An instance of this daemon is already running

     Program PWSCF v.7.1 starts on 10May2023 at 11:23:36 

     This program is part of the open-source Quantum ESPRESSO suite
     for quantum simulation of materials; please cite
         "P. Giannozzi et al., J. Phys.:Condens. Matter 21 395502 (2009);
         "P. Giannozzi et al., J. Phys.:Condens. Matter 29 465901 (2017);
         "P. Giannozzi et al., J. Chem. Phys. 152 154105 (2020);
          URL http://www.quantum-espresso.org", 
     in publications or presentations arising from this work. More details at
     http://www.quantum-espresso.org/quote

     Parallel version (MPI & OpenMP), running on       4 processor cores
     Number of MPI processes:                 4
     Threads/MPI process:                     1

     MPI processes distributed on     1 nodes
     150877 MiB available memory on the printing compute node when the environment starts
 
     Reading input from pw-si-97.in
Warning: card &CELL ignored
Warning: card / ignored

     Current dimensions of program PWSCF are:
     Max number of different atomic species (ntypx) = 10
     Max number of k-points (npk) =  40000
     Max angular momentum in pseudopotentials (lmaxx) =  4

     IMPORTANT: XC functional enforced from input :
     Exchange-correlation= PBE
                           (   1   4   3   4   0   0   0)
     Any further DFT definition will be discarded
     Please, verify this is what you really want


     gamma-point specific algorithms are used
 
     K-points division:     npool     =       2
     R & G space division:  proc/nbgrp/npool/nimage =       2
     Subspace diagonalization in iterative solution of the eigenvalue problem:
     a serial algorithm will be used

     Message from routine divide_et_impera:
     suboptimal parallelization: some nodes have no k-points
 
     Parallelization info
     --------------------
     sticks:   dense  smooth     PW     G-vecs:    dense   smooth      PW
     Min        2043    2043    542                98931    98931   13427
     Max        2044    2044    543                98936    98936   13430
     Sum        4087    4087   1085               197867   197867   26857
 
     Using Slab Decomposition
 


     bravais-lattice index     =            0
     lattice parameter (alat)  =      20.3682  a.u.
     unit-cell volume          =    8911.8454 (a.u.)^3
     number of atoms/cell      =           64
     number of atomic types    =            1
     number of electrons       =       256.00
     number of Kohn-Sham states=          154
     kinetic-energy cutoff     =      30.0000  Ry
     charge density cutoff     =     120.0000  Ry
     scf convergence threshold =      1.0E-06
     mixing beta               =       0.5000
     number of iterations used =            8  plain     mixing
     Exchange-correlation= PBE
                           (   1   4   3   4   0   0   0)

     GPU acceleration is ACTIVE.
     GPU-aware MPI enabled

     Message from routine print_cuda_info:
     High GPU oversubscription detected. Are you sure this is what you want?

     celldm(1)=  20.368185  celldm(2)=   0.000000  celldm(3)=   0.000000
     celldm(4)=   0.000000  celldm(5)=   0.000000  celldm(6)=   0.000000

     crystal axes: (cart. coord. in units of alat)
               a(1) = (   1.000000   0.000000   0.000000 )  
               a(2) = (   0.000000   1.033179   0.000000 )  
               a(3) = (   0.000000   0.000000   1.020786 )  

     reciprocal axes: (cart. coord. in units 2 pi/alat)
               b(1) = (  1.000000  0.000000  0.000000 )  
               b(2) = (  0.000000  0.967886  0.000000 )  
               b(3) = (  0.000000  0.000000  0.979637 )  


     PseudoPot. # 1 for Si read from file:
     /home/ppiaggi/pseudos/Si_ONCV_PBE_sr.upf
     MD5 check sum: 8553c464762ac42b85b1eed164b4d029
     Pseudo is Norm-conserving, Zval =  4.0
     Generated using ONCVPSP code by D. R. Hamann
     Using radial grid of 1510 points,  4 beta functions with: 
                l(1) =   0
                l(2) =   0
                l(3) =   1
                l(4) =   1

     atomic species   valence    mass     pseudopotential
        Si             4.00    28.08500     Si( 1.00)

     No symmetry found



   Cartesian axes

     site n.     atom                  positions (alat units)
         1           Si  tau(   1) = (   0.0020248   0.0044695  -0.0004954  )
         2           Si  tau(   2) = (  -0.0029643   0.2647126   0.2538310  )
         3           Si  tau(   3) = (   0.2459222  -0.0006472   0.2516494  )
         4           Si  tau(   4) = (   0.2425789   0.2667888  -0.0036306  )
         5           Si  tau(   5) = (   0.1265649   0.1316544   0.1256520  )
         6           Si  tau(   6) = (   0.4958676   0.0040864   0.0028607  )
         7           Si  tau(   7) = (   0.4966982   0.2625322   0.2602969  )
         8           Si  tau(   8) = (   0.6165133   0.1266338   0.1250270  )
         9           Si  tau(   9) = (   0.7410438  -0.0020518   0.2529853  )
        10           Si  tau(  10) = (   0.7425189   0.2595671   0.0038582  )
        11           Si  tau(  11) = (   0.0027294   0.5218691   0.0018026  )
        12           Si  tau(  12) = (   0.2477900   0.5252603   0.2544205  )
        13           Si  tau(  13) = (   0.1248927   0.6504842   0.1306402  )
        14           Si  tau(  14) = (   0.3722390   0.3897346   0.1244770  )
        15           Si  tau(  15) = (   0.4890687   0.5230530  -0.0006488  )
        16           Si  tau(  16) = (   0.6144373   0.6524605   0.1250406  )
        17           Si  tau(  17) = (   0.8619727   0.3883498   0.1278642  )
        18           Si  tau(  18) = (   0.7432240   0.5247476   0.2533459  )
        19           Si  tau(  19) = (  -0.0030112   0.7823722   0.2546363  )
        20           Si  tau(  20) = (   0.2456615   0.7903894  -0.0014630  )
        21           Si  tau(  21) = (   0.3700848   0.9212038   0.1235017  )
        22           Si  tau(  22) = (   0.4912327   0.7860150   0.2554176  )
        23           Si  tau(  23) = (   0.7363705   0.7855130  -0.0026778  )
        24           Si  tau(  24) = (   0.8615165   0.9198806   0.1248584  )
        25           Si  tau(  25) = (  -0.0030590   0.0042092   0.5133555  )
        26           Si  tau(  26) = (   0.2472186   0.2586686   0.5086965  )
        27           Si  tau(  27) = (   0.1277312   0.1274622   0.6418574  )
        28           Si  tau(  28) = (   0.3703418   0.1320385   0.3866420  )
        29           Si  tau(  29) = (   0.4912624   0.0028171   0.5103289  )
        30           Si  tau(  30) = (   0.6144816   0.1335725   0.6429460  )
        31           Si  tau(  31) = (   0.8643464   0.1340671   0.3807304  )
        32           Si  tau(  32) = (   0.7382220   0.2622715   0.5109839  )
        33           Si  tau(  33) = (   0.1193010   0.3971348   0.3819992  )
        34           Si  tau(  34) = (   0.0023807   0.5260733   0.5146333  )
        35           Si  tau(  35) = (   0.1242721   0.6570446   0.6430646  )
        36           Si  tau(  36) = (   0.6143289   0.3977495   0.3883717  )
        37           Si  tau(  37) = (   0.3742210   0.6518200   0.3853973  )
        38           Si  tau(  38) = (   0.3705411   0.3942785   0.6364709  )
        39           Si  tau(  39) = (   0.4927029   0.5269966   0.5142691  )
        40           Si  tau(  40) = (   0.6145004   0.6554110   0.6425027  )
        41           Si  tau(  41) = (   0.8658272   0.6516455   0.3881019  )
        42           Si  tau(  42) = (   0.8654498   0.3926147   0.6392669  )
        43           Si  tau(  43) = (   0.1231124   0.9196545   0.3860500  )
        44           Si  tau(  44) = (   0.2462105   0.7883473   0.5107355  )
        45           Si  tau(  45) = (   0.6192784   0.9158722   0.3846727  )
        46           Si  tau(  46) = (   0.3695883   0.9188013   0.6431547  )
        47           Si  tau(  47) = (   0.7394781   0.7885689   0.5083145  )
        48           Si  tau(  48) = (   0.8676026   0.9205015   0.6382891  )
        49           Si  tau(  49) = (   0.0018328   0.2619283   0.7640881  )
        50           Si  tau(  50) = (   0.2479264   0.0029371   0.7658256  )
        51           Si  tau(  51) = (   0.3688862   0.1289105   0.8941099  )
        52           Si  tau(  52) = (   0.4947734   0.2648892   0.7711469  )
        53           Si  tau(  53) = (   0.7396207   0.0040026   0.7721401  )
        54           Si  tau(  54) = (   0.8619259   0.1324814   0.8930399  )
        55           Si  tau(  55) = (   0.1198731   0.3905311   0.8973072  )
        56           Si  tau(  56) = (   0.2484482   0.5254382   0.7692580  )
        57           Si  tau(  57) = (   0.6132290   0.3920091   0.8954947  )
        58           Si  tau(  58) = (   0.3725277   0.6568935   0.8976713  )
        59           Si  tau(  59) = (   0.7433741   0.5269247   0.7665192  )
        60           Si  tau(  60) = (   0.8616682   0.6522467   0.8991969  )
        61           Si  tau(  61) = (  -0.0044134   0.7905637   0.7729998  )
        62           Si  tau(  62) = (   0.1230228   0.9211495   0.9010347  )
        63           Si  tau(  63) = (   0.4940313   0.7887777   0.7642174  )
        64           Si  tau(  64) = (   0.6181431   0.9128951   0.8949088  )

     number of k points=     1  Fermi-Dirac smearing, width (Ry)=  0.0100
                       cart. coord. in units 2pi/alat
        k(    1) = (   0.0000000   0.0000000   0.0000000), wk =   2.0000000

     Dense  grid:    98934 G-vectors     FFT dimensions: (  72,  75,  75)

     Estimated max dynamical RAM per process >     158.61 MB

     Estimated total dynamical RAM >     610.30 MB

     Initial potential from superposition of free atoms

     starting charge     255.9608, renormalised to     256.0000
     Starting wfcs are  256 randomized atomic wfcs

     total cpu time spent up to now is        4.2 secs

     Self-consistent Calculation

     iteration #  1     ecut=    30.00 Ry     beta= 0.50
     Davidson diagonalization with overlap
     ethr =  1.00E-02,  avg # of iterations =  3.0

     Threshold (ethr) on eigenvalues was too large:
     Diagonalizing with lowered threshold

     Davidson diagonalization with overlap
     ethr =  6.49E-04,  avg # of iterations =  4.0

     total cpu time spent up to now is        4.5 secs

     total energy              =    -503.82454255 Ry
     estimated scf accuracy    <       1.84192130 Ry

     iteration #  2     ecut=    30.00 Ry     beta= 0.50
     Davidson diagonalization with overlap
     ethr =  7.20E-04,  avg # of iterations =  1.0

     total cpu time spent up to now is        4.6 secs

     total energy              =    -503.80970854 Ry
     estimated scf accuracy    <       0.34220319 Ry

     iteration #  3     ecut=    30.00 Ry     beta= 0.50
     Davidson diagonalization with overlap
     ethr =  1.34E-04,  avg # of iterations =  4.0

     total cpu time spent up to now is        4.7 secs

     total energy              =    -503.82797649 Ry
     estimated scf accuracy    <       0.03085208 Ry

     iteration #  4     ecut=    30.00 Ry     beta= 0.50
     Davidson diagonalization with overlap
     c_bands:  1 eigenvalues not converged
     ethr =  1.21E-05,  avg # of iterations = 20.0

     total cpu time spent up to now is        4.9 secs

     total energy              =    -503.83498336 Ry
     estimated scf accuracy    <       0.00937379 Ry

     iteration #  5     ecut=    30.00 Ry     beta= 0.50
     Davidson diagonalization with overlap
     ethr =  3.66E-06,  avg # of iterations =  7.0

     total cpu time spent up to now is        5.0 secs

     total energy              =    -503.83659353 Ry
     estimated scf accuracy    <       0.00139243 Ry

     iteration #  6     ecut=    30.00 Ry     beta= 0.50
     Davidson diagonalization with overlap
     ethr =  5.44E-07,  avg # of iterations =  3.0

     total cpu time spent up to now is        5.1 secs

     total energy              =    -503.83672767 Ry
     estimated scf accuracy    <       0.00035215 Ry

     iteration #  7     ecut=    30.00 Ry     beta= 0.50
     Davidson diagonalization with overlap
     ethr =  1.38E-07,  avg # of iterations =  5.0

     total cpu time spent up to now is        5.2 secs

     total energy              =    -503.83677326 Ry
     estimated scf accuracy    <       0.00005187 Ry

     iteration #  8     ecut=    30.00 Ry     beta= 0.50
     Davidson diagonalization with overlap
     ethr =  2.03E-08,  avg # of iterations =  5.0

     total cpu time spent up to now is        5.3 secs

     total energy              =    -503.83678593 Ry
     estimated scf accuracy    <       0.00001354 Ry

     iteration #  9     ecut=    30.00 Ry     beta= 0.50
     Davidson diagonalization with overlap
     ethr =  5.29E-09,  avg # of iterations =  3.0

     total cpu time spent up to now is        5.4 secs

     total energy              =    -503.83678719 Ry
     estimated scf accuracy    <       0.00000146 Ry

     iteration # 10     ecut=    30.00 Ry     beta= 0.50
     Davidson diagonalization with overlap
     ethr =  5.71E-10,  avg # of iterations =  5.0

     total cpu time spent up to now is        5.5 secs

     End of self-consistent calculation

          k = 0.0000 0.0000 0.0000 ( 12360 PWs)   bands (ev):

    -5.8791  -4.9215  -4.8702  -4.8528  -4.7904  -4.7228  -4.6787  -4.0621
    -4.0350  -3.9594  -3.9507  -3.8967  -3.8645  -3.8463  -3.8162  -3.8108
    -3.7418  -3.6729  -3.6365  -3.5822  -3.5439  -3.5023  -3.3499  -2.0300
    -1.9624  -1.9082  -1.8638  -1.7936  -1.7821  -1.6926  -1.6811  -1.6574
    -1.6484  -1.6150  -1.6026  -1.5672  -1.5622  -1.5384  -1.5253  -1.4844
    -1.4346  -0.9950  -0.9203  -0.8559  -0.7996   0.3850   0.4162   0.4262
     0.4364   0.4582   0.4943   0.5194   0.5252   0.5548   0.5666   0.6050
     0.6665   1.9881   2.0145   2.0321   2.0642   2.0705   2.1159   2.1276
     2.1685   2.1845   2.1893   2.2029   2.2225   2.2295   2.2426   2.2578
     2.2667   2.2952   2.3143   2.3415   2.3742   2.4125   2.4297   2.4406
     2.4688   2.4842   2.4892   2.5128   2.5629   2.5804   2.6342   3.0126
     3.0408   3.1799   3.1979   3.2329   3.2951   3.9235   3.9419   4.0229
     4.0490   4.0669   4.0901   4.1259   4.1504   4.1833   4.1959   4.2949
     4.3103   4.3495   4.4331   4.4543   4.4710   4.5195   4.5536   4.6028
     4.6403   4.6538   4.6760   4.7343   4.7773   4.8013   4.8438   4.9110
     4.9143   4.9446   4.9976   5.0526   5.1030   5.8192   6.0101   6.1039
     6.4338   6.4916   6.6506   6.7054   6.7815   6.8386   6.9211   6.9958
     7.0849   7.1176   7.1931   7.2420   7.2737   7.2972   7.3198   7.3307
     8.0888   8.1251   8.1431   8.2417   8.2512   8.2733   8.3185   8.3392
     8.3886   8.4264

     the Fermi energy is     6.2423 ev

!    total energy              =    -503.83678747 Ry
     estimated scf accuracy    <       0.00000048 Ry
     smearing contrib. (-TS)   =      -0.05403504 Ry
     internal energy E=F+TS    =    -503.78275242 Ry

     The total energy is F=E-TS. E is the sum of the following terms:
     one-electron contribution =     143.09001704 Ry
     hartree contribution      =      37.48778568 Ry
     xc contribution           =    -153.32809080 Ry
     ewald contribution        =    -531.03246434 Ry

     convergence has been achieved in  10 iterations

     Forces acting on atoms (cartesian axes, Ry/au):

     atom    1 type  1   force =    -0.06433576    0.04872872    0.02417732
     atom    2 type  1   force =    -0.01300890   -0.01075996    0.00081711
     atom    3 type  1   force =     0.00442397    0.05393585    0.02475370
     atom    4 type  1   force =     0.02834567   -0.03275140    0.01825392
     atom    5 type  1   force =    -0.01913613    0.02187840    0.01153743
     atom    6 type  1   force =    -0.00583993    0.01709923   -0.03682020
     atom    7 type  1   force =    -0.00472083   -0.00426140   -0.01832202
     atom    8 type  1   force =     0.01524123    0.03572594    0.03781299
     atom    9 type  1   force =    -0.00371926    0.05776203    0.01862809
     atom   10 type  1   force =    -0.02046811    0.00477049   -0.02068877
     atom   11 type  1   force =    -0.05214184    0.00001274    0.00913384
     atom   12 type  1   force =     0.01726120   -0.02320972    0.00963658
     atom   13 type  1   force =    -0.00694250    0.03024578   -0.01626259
     atom   14 type  1   force =    -0.01452611    0.00507476    0.02384943
     atom   15 type  1   force =     0.01980515   -0.00289066    0.00648704
     atom   16 type  1   force =     0.00287038    0.00845615    0.01386791
     atom   17 type  1   force =     0.04240777    0.02482467    0.00337334
     atom   18 type  1   force =    -0.01072450   -0.00604480    0.01371439
     atom   19 type  1   force =    -0.02200914    0.01131357    0.00978145
     atom   20 type  1   force =     0.00458156   -0.02962279    0.02126241
     atom   21 type  1   force =    -0.00039194   -0.06520173    0.01831022
     atom   22 type  1   force =     0.01109735   -0.00203820   -0.00553396
     atom   23 type  1   force =     0.01875124   -0.01389832    0.02682341
     atom   24 type  1   force =     0.05352007   -0.06418700   -0.01659825
     atom   25 type  1   force =    -0.01312707    0.04170157   -0.01095327
     atom   26 type  1   force =    -0.01592902    0.02758894    0.01096537
     atom   27 type  1   force =    -0.02310250    0.02893717   -0.02183359
     atom   28 type  1   force =    -0.00488822   -0.00588653   -0.03295931
     atom   29 type  1   force =     0.01739767    0.02828227    0.01629280
     atom   30 type  1   force =     0.00594424   -0.00134493   -0.00880241
     atom   31 type  1   force =     0.01977702   -0.00213335    0.00532317
     atom   32 type  1   force =     0.00775938    0.00386856    0.00508696
     atom   33 type  1   force =     0.01326654   -0.01386306    0.00411242
     atom   34 type  1   force =    -0.03559158   -0.00505164    0.00429088
     atom   35 type  1   force =    -0.00913005    0.01172032    0.00427060
     atom   36 type  1   force =     0.01943090   -0.00179274   -0.01774666
     atom   37 type  1   force =    -0.02778502    0.02275936   -0.00850339
     atom   38 type  1   force =    -0.00923230   -0.00883479    0.01612090
     atom   39 type  1   force =     0.00731493   -0.00811634    0.00515024
     atom   40 type  1   force =     0.02120125    0.00987353   -0.01676206
     atom   41 type  1   force =     0.02230133    0.01016695   -0.01449592
     atom   42 type  1   force =     0.02859345    0.00347524   -0.00611376
     atom   43 type  1   force =    -0.01758951   -0.04919059   -0.01741935
     atom   44 type  1   force =     0.00936722   -0.01514840    0.00878997
     atom   45 type  1   force =    -0.02366923   -0.02856773   -0.01259743
     atom   46 type  1   force =     0.00355609   -0.04798254   -0.03367421
     atom   47 type  1   force =     0.01780716   -0.02292518    0.02951745
     atom   48 type  1   force =    -0.00298881   -0.04392811    0.01399761
     atom   49 type  1   force =    -0.03872054   -0.00416608    0.00622514
     atom   50 type  1   force =    -0.00957240    0.01872391    0.02971679
     atom   51 type  1   force =     0.00468273    0.02956366    0.00599790
     atom   52 type  1   force =    -0.02311186   -0.01015730   -0.02246997
     atom   53 type  1   force =     0.00561101    0.01946516   -0.03288025
     atom   54 type  1   force =     0.05408803    0.01291944    0.00736433
     atom   55 type  1   force =     0.00054083    0.02575990   -0.03586100
     atom   56 type  1   force =    -0.00520046   -0.00966635    0.00037246
     atom   57 type  1   force =     0.03449697    0.01780209    0.00748300
     atom   58 type  1   force =    -0.01490398    0.00990681   -0.02172166
     atom   59 type  1   force =    -0.01344227   -0.02371702    0.00602231
     atom   60 type  1   force =     0.04634312    0.00964933   -0.00737904
     atom   61 type  1   force =    -0.01441860   -0.01744247   -0.00917344
     atom   62 type  1   force =     0.00572308   -0.04955405   -0.04774736
     atom   63 type  1   force =    -0.00441262   -0.01556100    0.01983443
     atom   64 type  1   force =    -0.01872754   -0.01209633   -0.00583547

     Total force =     0.315257     Total SCF correction =     0.001257


     Computing stress (Cartesian axis) and pressure

          total   stress  (Ry/bohr**3)                   (kbar)     P=        3.78
   0.00010332  -0.00003228  -0.00001773           15.20       -4.75       -2.61
  -0.00003228  -0.00005493   0.00003357           -4.75       -8.08        4.94
  -0.00001773   0.00003357   0.00002872           -2.61        4.94        4.22

 
     init_run     :      0.92s CPU      4.17s WALL (       1 calls)
     electrons    :      1.17s CPU      1.30s WALL (       1 calls)
     forces       :      0.03s CPU      0.04s WALL (       1 calls)
     stress       :      0.15s CPU      0.15s WALL (       1 calls)

     Called by init_run:
     wfcinit      :      0.45s CPU      3.55s WALL (       1 calls)
                                        3.55s GPU  (       1 calls)
     potinit      :      0.15s CPU      0.23s WALL (       1 calls)
     hinit0       :      0.31s CPU      0.33s WALL (       1 calls)

     Called by electrons:
     c_bands      :      0.81s CPU      0.90s WALL (      11 calls)
     sum_band     :      0.19s CPU      0.21s WALL (      11 calls)
     v_of_rho     :      0.09s CPU      0.17s WALL (      11 calls)
     mix_rho      :      0.07s CPU      0.07s WALL (      11 calls)

     Called by c_bands:
     init_us_2    :      0.03s CPU      0.03s WALL (      23 calls)
     init_us_2:gp :      0.03s CPU      0.03s WALL (      23 calls)
     regterg      :      0.74s CPU      0.82s WALL (      11 calls)

     Called by *egterg:
     rdiaghg      :      0.32s CPU      0.95s WALL (      70 calls)
                                        0.93s GPU  (      70 calls)
     h_psi        :      0.74s CPU      3.24s WALL (      72 calls)
                                        3.23s GPU  (      72 calls)
     g_psi        :      0.00s CPU      0.00s WALL (      60 calls)
                                        0.00s GPU  (      60 calls)

     Called by h_psi:
     h_psi:calbec :      0.40s CPU      2.84s WALL (      72 calls)
                                        2.84s GPU  (      72 calls)
     vloc_psi     :      0.30s CPU      0.35s WALL (      72 calls)
                                        0.35s GPU  (      72 calls)
     add_vuspsi   :      0.03s CPU      0.04s WALL (      72 calls)
                                        0.04s GPU  (      72 calls)

     General routines
     calbec       :      0.40s CPU      2.84s WALL (      77 calls)
     fft          :      0.33s CPU      0.44s WALL (      95 calls)
                                        0.10s GPU  (      61 calls)
     ffts         :      0.02s CPU      0.02s WALL (      11 calls)
     fftw         :      0.34s CPU      0.45s WALL (    1215 calls)
                                        0.40s GPU  (    1215 calls)
 
     Parallel routines
 
     PWSCF        :      2.31s CPU      5.73s WALL

 
   This run was terminated on:  11:23:41  10May2023            

=------------------------------------------------------------------------------=
   JOB DONE.
=------------------------------------------------------------------------------=
