An instance of this daemon is already running
An instance of this daemon is already running

     Program PWSCF v.7.1 starts on 10May2023 at 11:17:38 

     This program is part of the open-source Quantum ESPRESSO suite
     for quantum simulation of materials; please cite
         "P. Giannozzi et al., J. Phys.:Condens. Matter 21 395502 (2009);
         "P. Giannozzi et al., J. Phys.:Condens. Matter 29 465901 (2017);
         "P. Giannozzi et al., J. Chem. Phys. 152 154105 (2020);
          URL http://www.quantum-espresso.org", 
     in publications or presentations arising from this work. More details at
     http://www.quantum-espresso.org/quote

     Parallel version (MPI & OpenMP), running on       4 processor cores
     Number of MPI processes:                 4
     Threads/MPI process:                     1

     MPI processes distributed on     1 nodes
     153038 MiB available memory on the printing compute node when the environment starts
 
     Reading input from pw-si-54.in
Warning: card &CELL ignored
Warning: card / ignored

     Current dimensions of program PWSCF are:
     Max number of different atomic species (ntypx) = 10
     Max number of k-points (npk) =  40000
     Max angular momentum in pseudopotentials (lmaxx) =  4

     IMPORTANT: XC functional enforced from input :
     Exchange-correlation= PBE
                           (   1   4   3   4   0   0   0)
     Any further DFT definition will be discarded
     Please, verify this is what you really want


     gamma-point specific algorithms are used
 
     K-points division:     npool     =       2
     R & G space division:  proc/nbgrp/npool/nimage =       2
     Subspace diagonalization in iterative solution of the eigenvalue problem:
     a serial algorithm will be used

     Message from routine divide_et_impera:
     suboptimal parallelization: some nodes have no k-points
 
     Parallelization info
     --------------------
     sticks:   dense  smooth     PW     G-vecs:    dense   smooth      PW
     Min        2070    2070    548               100905   100905   13720
     Max        2073    2073    549               100910   100910   13721
     Sum        4143    4143   1097               201815   201815   27441
 
     Using Slab Decomposition
 


     bravais-lattice index     =            0
     lattice parameter (alat)  =      20.5511  a.u.
     unit-cell volume          =    9092.8453 (a.u.)^3
     number of atoms/cell      =           64
     number of atomic types    =            1
     number of electrons       =       256.00
     number of Kohn-Sham states=          154
     kinetic-energy cutoff     =      30.0000  Ry
     charge density cutoff     =     120.0000  Ry
     scf convergence threshold =      1.0E-06
     mixing beta               =       0.5000
     number of iterations used =            8  plain     mixing
     Exchange-correlation= PBE
                           (   1   4   3   4   0   0   0)

     GPU acceleration is ACTIVE.
     GPU-aware MPI enabled

     Message from routine print_cuda_info:
     High GPU oversubscription detected. Are you sure this is what you want?

     celldm(1)=  20.551104  celldm(2)=   0.000000  celldm(3)=   0.000000
     celldm(4)=   0.000000  celldm(5)=   0.000000  celldm(6)=   0.000000

     crystal axes: (cart. coord. in units of alat)
               a(1) = (   1.000000   0.000000   0.000000 )  
               a(2) = (   0.000000   1.029068   0.000000 )  
               a(3) = (   0.000000   0.000000   1.018006 )  

     reciprocal axes: (cart. coord. in units 2 pi/alat)
               b(1) = (  1.000000  0.000000  0.000000 )  
               b(2) = (  0.000000  0.971753  0.000000 )  
               b(3) = (  0.000000  0.000000  0.982313 )  


     PseudoPot. # 1 for Si read from file:
     /home/ppiaggi/pseudos/Si_ONCV_PBE_sr.upf
     MD5 check sum: 8553c464762ac42b85b1eed164b4d029
     Pseudo is Norm-conserving, Zval =  4.0
     Generated using ONCVPSP code by D. R. Hamann
     Using radial grid of 1510 points,  4 beta functions with: 
                l(1) =   0
                l(2) =   0
                l(3) =   1
                l(4) =   1

     atomic species   valence    mass     pseudopotential
        Si             4.00    28.08500     Si( 1.00)

     No symmetry found



   Cartesian axes

     site n.     atom                  positions (alat units)
         1           Si  tau(   1) = (   0.0009902  -0.0010321  -0.0033255  )
         2           Si  tau(   2) = (   0.0012795   0.2627404   0.2555385  )
         3           Si  tau(   3) = (   0.2501040   0.0033798   0.2583899  )
         4           Si  tau(   4) = (   0.2537606   0.2589791  -0.0042663  )
         5           Si  tau(   5) = (   0.1233061   0.1309647   0.1279378  )
         6           Si  tau(   6) = (   0.5084050   0.0016102  -0.0009001  )
         7           Si  tau(   7) = (   0.5039654   0.2554496   0.2532774  )
         8           Si  tau(   8) = (   0.6321026   0.1290231   0.1239406  )
         9           Si  tau(   9) = (   0.7556386   0.0046829   0.2513259  )
        10           Si  tau(  10) = (   0.7590653   0.2576151   0.0028987  )
        11           Si  tau(  11) = (  -0.0035434   0.5238056  -0.0017457  )
        12           Si  tau(  12) = (   0.2535584   0.5173710   0.2553209  )
        13           Si  tau(  13) = (   0.1235497   0.6494508   0.1249737  )
        14           Si  tau(  14) = (   0.3820355   0.3893047   0.1300195  )
        15           Si  tau(  15) = (   0.5035723   0.5152476  -0.0030497  )
        16           Si  tau(  16) = (   0.6300019   0.6526706   0.1280239  )
        17           Si  tau(  17) = (   0.8853600   0.3897159   0.1231316  )
        18           Si  tau(  18) = (   0.7579362   0.5155800   0.2572325  )
        19           Si  tau(  19) = (   0.0038302   0.7762991   0.2533561  )
        20           Si  tau(  20) = (   0.2499227   0.7769004  -0.0001580  )
        21           Si  tau(  21) = (   0.3743854   0.9066114   0.1308955  )
        22           Si  tau(  22) = (   0.5031818   0.7773353   0.2562575  )
        23           Si  tau(  23) = (   0.7605336   0.7781115   0.0006941  )
        24           Si  tau(  24) = (   0.8872245   0.9077001   0.1303702  )
        25           Si  tau(  25) = (   0.0037141  -0.0022726   0.5106331  )
        26           Si  tau(  26) = (   0.2555335   0.2624417   0.5087280  )
        27           Si  tau(  27) = (   0.1293545   0.1312993   0.6386336  )
        28           Si  tau(  28) = (   0.3813616   0.1319317   0.3782730  )
        29           Si  tau(  29) = (   0.5016629  -0.0016965   0.5084664  )
        30           Si  tau(  30) = (   0.6271573   0.1323216   0.6397809  )
        31           Si  tau(  31) = (   0.8787233   0.1308713   0.3819485  )
        32           Si  tau(  32) = (   0.7587872   0.2640676   0.5129397  )
        33           Si  tau(  33) = (   0.1275833   0.3879868   0.3849165  )
        34           Si  tau(  34) = (   0.0010126   0.5209503   0.5143412  )
        35           Si  tau(  35) = (   0.1261997   0.6499289   0.6357785  )
        36           Si  tau(  36) = (   0.6284476   0.3869131   0.3788576  )
        37           Si  tau(  37) = (   0.3782703   0.6479967   0.3816590  )
        38           Si  tau(  38) = (   0.3785037   0.3895431   0.6370019  )
        39           Si  tau(  39) = (   0.5051671   0.5152521   0.5099198  )
        40           Si  tau(  40) = (   0.6307292   0.6523447   0.6366555  )
        41           Si  tau(  41) = (   0.8843397   0.6477764   0.3801728  )
        42           Si  tau(  42) = (   0.8852230   0.3904727   0.6399557  )
        43           Si  tau(  43) = (   0.1287985   0.9102857   0.3826318  )
        44           Si  tau(  44) = (   0.2562481   0.7790534   0.5055461  )
        45           Si  tau(  45) = (   0.6308430   0.9120127   0.3795862  )
        46           Si  tau(  46) = (   0.3750025   0.9121474   0.6359999  )
        47           Si  tau(  47) = (   0.7591794   0.7785580   0.5087694  )
        48           Si  tau(  48) = (   0.8823320   0.9065794   0.6369028  )
        49           Si  tau(  49) = (  -0.0008980   0.2626461   0.7691043  )
        50           Si  tau(  50) = (   0.2554201  -0.0020368   0.7670800  )
        51           Si  tau(  51) = (   0.3808059   0.1313063   0.8877431  )
        52           Si  tau(  52) = (   0.5079673   0.2569234   0.7615689  )
        53           Si  tau(  53) = (   0.7557038  -0.0013803   0.7601104  )
        54           Si  tau(  54) = (   0.8819047   0.1321138   0.8880451  )
        55           Si  tau(  55) = (   0.1221826   0.3923596   0.8932434  )
        56           Si  tau(  56) = (   0.2497047   0.5209144   0.7667383  )
        57           Si  tau(  57) = (   0.6325115   0.3915319   0.8886016  )
        58           Si  tau(  58) = (   0.3828781   0.6531560   0.8956765  )
        59           Si  tau(  59) = (   0.7551702   0.5154820   0.7682174  )
        60           Si  tau(  60) = (   0.8852529   0.6471570   0.8886572  )
        61           Si  tau(  61) = (  -0.0008837   0.7789594   0.7658418  )
        62           Si  tau(  62) = (   0.1294164   0.9130889   0.8929331  )
        63           Si  tau(  63) = (   0.5031574   0.7827636   0.7664975  )
        64           Si  tau(  64) = (   0.6290976   0.9113187   0.8901728  )

     number of k points=     1  Fermi-Dirac smearing, width (Ry)=  0.0100
                       cart. coord. in units 2pi/alat
        k(    1) = (   0.0000000   0.0000000   0.0000000), wk =   2.0000000

     Dense  grid:   100908 G-vectors     FFT dimensions: (  72,  75,  75)

     Estimated max dynamical RAM per process >     161.47 MB

     Estimated total dynamical RAM >     621.24 MB

     Initial potential from superposition of free atoms

     starting charge     255.9608, renormalised to     256.0000
     Starting wfcs are  256 randomized atomic wfcs

     total cpu time spent up to now is        4.2 secs

     Self-consistent Calculation

     iteration #  1     ecut=    30.00 Ry     beta= 0.50
     Davidson diagonalization with overlap
     ethr =  1.00E-02,  avg # of iterations =  3.0

     Threshold (ethr) on eigenvalues was too large:
     Diagonalizing with lowered threshold

     Davidson diagonalization with overlap
     ethr =  6.28E-04,  avg # of iterations =  4.0

     total cpu time spent up to now is        4.5 secs

     total energy              =    -503.87589287 Ry
     estimated scf accuracy    <       1.78374046 Ry

     iteration #  2     ecut=    30.00 Ry     beta= 0.50
     Davidson diagonalization with overlap
     ethr =  6.97E-04,  avg # of iterations =  1.0

     total cpu time spent up to now is        4.5 secs

     total energy              =    -503.86017752 Ry
     estimated scf accuracy    <       0.33713102 Ry

     iteration #  3     ecut=    30.00 Ry     beta= 0.50
     Davidson diagonalization with overlap
     ethr =  1.32E-04,  avg # of iterations =  4.0

     total cpu time spent up to now is        4.6 secs

     total energy              =    -503.88001581 Ry
     estimated scf accuracy    <       0.01136003 Ry

     iteration #  4     ecut=    30.00 Ry     beta= 0.50
     Davidson diagonalization with overlap
     ethr =  4.44E-06,  avg # of iterations = 19.0

     total cpu time spent up to now is        4.9 secs

     total energy              =    -503.88276933 Ry
     estimated scf accuracy    <       0.00933119 Ry

     iteration #  5     ecut=    30.00 Ry     beta= 0.50
     Davidson diagonalization with overlap
     ethr =  3.64E-06,  avg # of iterations =  4.0

     total cpu time spent up to now is        5.0 secs

     total energy              =    -503.88452013 Ry
     estimated scf accuracy    <       0.00185696 Ry

     iteration #  6     ecut=    30.00 Ry     beta= 0.50
     Davidson diagonalization with overlap
     ethr =  7.25E-07,  avg # of iterations =  4.0

     total cpu time spent up to now is        5.1 secs

     total energy              =    -503.88467467 Ry
     estimated scf accuracy    <       0.00034719 Ry

     iteration #  7     ecut=    30.00 Ry     beta= 0.50
     Davidson diagonalization with overlap
     ethr =  1.36E-07,  avg # of iterations =  5.0

     total cpu time spent up to now is        5.2 secs

     total energy              =    -503.88473215 Ry
     estimated scf accuracy    <       0.00000932 Ry

     iteration #  8     ecut=    30.00 Ry     beta= 0.50
     Davidson diagonalization with overlap
     ethr =  3.64E-09,  avg # of iterations =  5.0

     total cpu time spent up to now is        5.3 secs

     total energy              =    -503.88473627 Ry
     estimated scf accuracy    <       0.00001205 Ry

     iteration #  9     ecut=    30.00 Ry     beta= 0.50
     Davidson diagonalization with overlap
     ethr =  3.64E-09,  avg # of iterations =  3.0

     total cpu time spent up to now is        5.4 secs

     total energy              =    -503.88473719 Ry
     estimated scf accuracy    <       0.00000159 Ry

     iteration # 10     ecut=    30.00 Ry     beta= 0.50
     Davidson diagonalization with overlap
     ethr =  6.21E-10,  avg # of iterations =  5.0

     total cpu time spent up to now is        5.5 secs

     End of self-consistent calculation

          k = 0.0000 0.0000 0.0000 ( 12624 PWs)   bands (ev):

    -5.9130  -4.9871  -4.9234  -4.9066  -4.8564  -4.8144  -4.7492  -4.1172
    -4.0845  -4.0518  -4.0218  -4.0177  -3.9739  -3.9435  -3.9086  -3.8945
    -3.8725  -3.7856  -3.7398  -3.7240  -3.6860  -3.6064  -3.5514  -2.1203
    -2.0616  -2.0103  -1.9515  -1.9337  -1.9007  -1.8466  -1.8241  -1.8095
    -1.7953  -1.7772  -1.7600  -1.7363  -1.7220  -1.7027  -1.6810  -1.6534
    -1.5995  -1.0889  -1.0608  -0.9564  -0.8920   0.1883   0.2219   0.2679
     0.3028   0.3296   0.3444   0.3560   0.3846   0.3940   0.4173   0.4217
     0.4832   1.9145   1.9297   1.9474   1.9768   1.9863   2.0126   2.0374
     2.0453   2.0618   2.0751   2.0831   2.0934   2.1247   2.1364   2.1437
     2.1580   2.1662   2.1937   2.2041   2.2153   2.2373   2.2497   2.2541
     2.2742   2.3029   2.3143   2.3238   2.3369   2.3501   2.3906   2.8799
     2.9294   3.0341   3.0513   3.0699   3.1638   3.7293   3.8146   3.8708
     3.8920   3.9166   3.9366   3.9625   3.9930   4.0082   4.0362   4.0689
     4.1035   4.1610   4.2618   4.3700   4.3891   4.4047   4.4293   4.4492
     4.4826   4.5177   4.5311   4.5637   4.5802   4.5985   4.6176   4.6515
     4.6797   4.7040   4.7636   4.7717   4.8409   5.6438   5.7279   5.9327
     6.3131   6.3952   6.4858   6.5431   6.5804   6.6928   6.7522   6.8211
     6.8843   6.9198   6.9869   6.9998   7.0376   7.0634   7.0784   7.1002
     7.8666   7.9743   8.0073   8.0384   8.0582   8.0765   8.1164   8.1563
     8.1608   8.1994

     the Fermi energy is     6.0762 ev

!    total energy              =    -503.88473754 Ry
     estimated scf accuracy    <       0.00000016 Ry
     smearing contrib. (-TS)   =      -0.04727405 Ry
     internal energy E=F+TS    =    -503.83746349 Ry

     The total energy is F=E-TS. E is the sum of the following terms:
     one-electron contribution =     139.26301472 Ry
     hartree contribution      =      37.62486222 Ry
     xc contribution           =    -152.68837276 Ry
     ewald contribution        =    -528.03696766 Ry

     convergence has been achieved in  10 iterations

     Forces acting on atoms (cartesian axes, Ry/au):

     atom    1 type  1   force =     0.01094398    0.04321519    0.01598293
     atom    2 type  1   force =     0.01362962   -0.01004514    0.00148439
     atom    3 type  1   force =     0.00806159    0.02437639   -0.02172915
     atom    4 type  1   force =    -0.00649112    0.00783666    0.02233987
     atom    5 type  1   force =     0.01460554    0.00479697   -0.00955738
     atom    6 type  1   force =    -0.03616083    0.01484339    0.01281297
     atom    7 type  1   force =     0.01712461    0.01098103   -0.01008071
     atom    8 type  1   force =    -0.00646114    0.01235255    0.00797963
     atom    9 type  1   force =     0.00739427    0.00530517    0.00708478
     atom   10 type  1   force =    -0.00879085    0.01361552   -0.02192970
     atom   11 type  1   force =     0.04035911   -0.01943323    0.01228760
     atom   12 type  1   force =    -0.01112757    0.00502368   -0.00446081
     atom   13 type  1   force =     0.01857868   -0.01431228    0.00684786
     atom   14 type  1   force =    -0.01592078   -0.00788811   -0.01826987
     atom   15 type  1   force =     0.01459455    0.01870669    0.02143683
     atom   16 type  1   force =     0.00686072   -0.02589928   -0.00436861
     atom   17 type  1   force =    -0.03125559    0.00426956    0.02275399
     atom   18 type  1   force =    -0.00944442    0.01039221   -0.02214867
     atom   19 type  1   force =     0.02021668    0.00824709    0.01641311
     atom   20 type  1   force =     0.00893601    0.00992132    0.00810647
     atom   21 type  1   force =     0.01327355   -0.00895912   -0.01264283
     atom   22 type  1   force =     0.00215552    0.00707712   -0.00207863
     atom   23 type  1   force =    -0.01191371    0.00472536   -0.00416576
     atom   24 type  1   force =    -0.03621421   -0.01765806   -0.01026620
     atom   25 type  1   force =     0.00612855    0.04431990   -0.00265739
     atom   26 type  1   force =    -0.00050983   -0.01776376    0.00241242
     atom   27 type  1   force =    -0.00267835    0.00414730    0.00274538
     atom   28 type  1   force =    -0.01633830   -0.00695219    0.02341311
     atom   29 type  1   force =     0.01243262    0.04497439   -0.00040866
     atom   30 type  1   force =     0.02468514   -0.01818750   -0.03494841
     atom   31 type  1   force =     0.00028375    0.00612217    0.00966376
     atom   32 type  1   force =    -0.01814057   -0.01504155   -0.00861878
     atom   33 type  1   force =    -0.00303879    0.01738262   -0.00229568
     atom   34 type  1   force =     0.02271364   -0.00743967   -0.02130748
     atom   35 type  1   force =     0.01243877    0.01406208    0.00750896
     atom   36 type  1   force =     0.01027843    0.00008499    0.01633180
     atom   37 type  1   force =     0.01120036   -0.00983201    0.00279057
     atom   38 type  1   force =     0.00088166    0.00483999    0.01303152
     atom   39 type  1   force =    -0.00099868    0.01742166   -0.00349314
     atom   40 type  1   force =    -0.00237644   -0.01542244    0.00660023
     atom   41 type  1   force =    -0.02187866   -0.00260318    0.01173865
     atom   42 type  1   force =    -0.03230855    0.00583782    0.00125257
     atom   43 type  1   force =    -0.00384040   -0.04157990   -0.00130302
     atom   44 type  1   force =    -0.01594004   -0.00369466    0.01627597
     atom   45 type  1   force =     0.00195618   -0.03864269    0.00687798
     atom   46 type  1   force =     0.01389022   -0.04940898   -0.00070535
     atom   47 type  1   force =    -0.01129419    0.00019013   -0.01203843
     atom   48 type  1   force =    -0.01587327   -0.02196281   -0.00269005
     atom   49 type  1   force =     0.03843061   -0.00817635   -0.02276033
     atom   50 type  1   force =    -0.00891111    0.05049668   -0.01282036
     atom   51 type  1   force =     0.00598356   -0.00361016    0.01130299
     atom   52 type  1   force =    -0.02070204    0.02980447    0.01570546
     atom   53 type  1   force =    -0.00520247    0.03779159    0.01005279
     atom   54 type  1   force =    -0.02858243   -0.01990997    0.01157839
     atom   55 type  1   force =     0.01887857    0.00128626    0.00232668
     atom   56 type  1   force =     0.01630533    0.00229321   -0.00306597
     atom   57 type  1   force =    -0.01124210   -0.03261369    0.02182735
     atom   58 type  1   force =    -0.02179975   -0.01730662   -0.01816525
     atom   59 type  1   force =     0.01176175    0.02946733   -0.03138933
     atom   60 type  1   force =    -0.05023823    0.01341170    0.00086223
     atom   61 type  1   force =     0.04204259    0.00629432   -0.00790840
     atom   62 type  1   force =    -0.00724587   -0.05682303   -0.00859812
     atom   63 type  1   force =     0.00195807   -0.00638974   -0.01688155
     atom   64 type  1   force =     0.02393604   -0.03835839    0.00392479

     Total force =     0.254400     Total SCF correction =     0.000653


     Computing stress (Cartesian axis) and pressure

          total   stress  (Ry/bohr**3)                   (kbar)     P=      -14.14
  -0.00002442   0.00001071  -0.00006159           -3.59        1.58       -9.06
   0.00001071  -0.00016628  -0.00002671            1.58      -24.46       -3.93
  -0.00006159  -0.00002671  -0.00009762           -9.06       -3.93      -14.36

 
     init_run     :      0.92s CPU      4.17s WALL (       1 calls)
     electrons    :      1.21s CPU      1.29s WALL (       1 calls)
     forces       :      0.03s CPU      0.04s WALL (       1 calls)
     stress       :      0.15s CPU      0.15s WALL (       1 calls)

     Called by init_run:
     wfcinit      :      0.45s CPU      3.54s WALL (       1 calls)
                                        3.54s GPU  (       1 calls)
     potinit      :      0.15s CPU      0.25s WALL (       1 calls)
     hinit0       :      0.31s CPU      0.33s WALL (       1 calls)

     Called by electrons:
     c_bands      :      0.83s CPU      0.87s WALL (      11 calls)
     sum_band     :      0.21s CPU      0.23s WALL (      11 calls)
     v_of_rho     :      0.09s CPU      0.19s WALL (      11 calls)
     mix_rho      :      0.07s CPU      0.08s WALL (      11 calls)

     Called by c_bands:
     init_us_2    :      0.03s CPU      0.03s WALL (      23 calls)
     init_us_2:gp :      0.03s CPU      0.03s WALL (      23 calls)
     regterg      :      0.74s CPU      0.77s WALL (      11 calls)

     Called by *egterg:
     rdiaghg      :      0.31s CPU      0.96s WALL (      67 calls)
                                        0.95s GPU  (      67 calls)
     h_psi        :      0.75s CPU      3.20s WALL (      69 calls)
                                        3.20s GPU  (      69 calls)
     g_psi        :      0.00s CPU      0.00s WALL (      57 calls)
                                        0.00s GPU  (      57 calls)

     Called by h_psi:
     h_psi:calbec :      0.41s CPU      2.80s WALL (      69 calls)
                                        2.80s GPU  (      69 calls)
     vloc_psi     :      0.30s CPU      0.36s WALL (      69 calls)
                                        0.36s GPU  (      69 calls)
     add_vuspsi   :      0.02s CPU      0.04s WALL (      69 calls)
                                        0.03s GPU  (      69 calls)

     General routines
     calbec       :      0.41s CPU      2.81s WALL (      74 calls)
     fft          :      0.33s CPU      0.46s WALL (      95 calls)
                                        0.13s GPU  (      61 calls)
     ffts         :      0.02s CPU      0.02s WALL (      11 calls)
     fftw         :      0.35s CPU      0.46s WALL (    1213 calls)
                                        0.41s GPU  (    1213 calls)
 
     Parallel routines
 
     PWSCF        :      2.35s CPU      5.72s WALL

 
   This run was terminated on:  11:17:43  10May2023            

=------------------------------------------------------------------------------=
   JOB DONE.
=------------------------------------------------------------------------------=
