An instance of this daemon is already running

     Program PWSCF v.7.1 starts on 10May2023 at 11:20:14 

     This program is part of the open-source Quantum ESPRESSO suite
     for quantum simulation of materials; please cite
         "P. Giannozzi et al., J. Phys.:Condens. Matter 21 395502 (2009);
         "P. Giannozzi et al., J. Phys.:Condens. Matter 29 465901 (2017);
         "P. Giannozzi et al., J. Chem. Phys. 152 154105 (2020);
          URL http://www.quantum-espresso.org", 
     in publications or presentations arising from this work. More details at
     http://www.quantum-espresso.org/quote

     Parallel version (MPI & OpenMP), running on       4 processor cores
     Number of MPI processes:                 4
     Threads/MPI process:                     1

     MPI processes distributed on     1 nodes
     150324 MiB available memory on the printing compute node when the environment starts
 
     Reading input from pw-si-73.in
Warning: card &CELL ignored
Warning: card / ignored

     Current dimensions of program PWSCF are:
     Max number of different atomic species (ntypx) = 10
     Max number of k-points (npk) =  40000
     Max angular momentum in pseudopotentials (lmaxx) =  4

     IMPORTANT: XC functional enforced from input :
     Exchange-correlation= PBE
                           (   1   4   3   4   0   0   0)
     Any further DFT definition will be discarded
     Please, verify this is what you really want


     gamma-point specific algorithms are used
 
     K-points division:     npool     =       2
     R & G space division:  proc/nbgrp/npool/nimage =       2
     Subspace diagonalization in iterative solution of the eigenvalue problem:
     a serial algorithm will be used

     Message from routine divide_et_impera:
     suboptimal parallelization: some nodes have no k-points
 
     Parallelization info
     --------------------
     sticks:   dense  smooth     PW     G-vecs:    dense   smooth      PW
     Min        2108    2108    554               100931   100931   13694
     Max        2109    2109    555               100932   100932   13699
     Sum        4217    4217   1109               201863   201863   27393
 
     Using Slab Decomposition
 


     bravais-lattice index     =            0
     lattice parameter (alat)  =      21.0128  a.u.
     unit-cell volume          =    9091.3941 (a.u.)^3
     number of atoms/cell      =           64
     number of atomic types    =            1
     number of electrons       =       256.00
     number of Kohn-Sham states=          154
     kinetic-energy cutoff     =      30.0000  Ry
     charge density cutoff     =     120.0000  Ry
     scf convergence threshold =      1.0E-06
     mixing beta               =       0.5000
     number of iterations used =            8  plain     mixing
     Exchange-correlation= PBE
                           (   1   4   3   4   0   0   0)

     GPU acceleration is ACTIVE.
     GPU-aware MPI enabled

     Message from routine print_cuda_info:
     High GPU oversubscription detected. Are you sure this is what you want?

     celldm(1)=  21.012781  celldm(2)=   0.000000  celldm(3)=   0.000000
     celldm(4)=   0.000000  celldm(5)=   0.000000  celldm(6)=   0.000000

     crystal axes: (cart. coord. in units of alat)
               a(1) = (   1.000000   0.000000   0.000000 )  
               a(2) = (   0.000000   1.001800   0.000000 )  
               a(3) = (   0.000000   0.000000   0.978135 )  

     reciprocal axes: (cart. coord. in units 2 pi/alat)
               b(1) = (  1.000000  0.000000  0.000000 )  
               b(2) = (  0.000000  0.998203  0.000000 )  
               b(3) = (  0.000000  0.000000  1.022353 )  


     PseudoPot. # 1 for Si read from file:
     /home/ppiaggi/pseudos/Si_ONCV_PBE_sr.upf
     MD5 check sum: 8553c464762ac42b85b1eed164b4d029
     Pseudo is Norm-conserving, Zval =  4.0
     Generated using ONCVPSP code by D. R. Hamann
     Using radial grid of 1510 points,  4 beta functions with: 
                l(1) =   0
                l(2) =   0
                l(3) =   1
                l(4) =   1

     atomic species   valence    mass     pseudopotential
        Si             4.00    28.08500     Si( 1.00)

     No symmetry found



   Cartesian axes

     site n.     atom                  positions (alat units)
         1           Si  tau(   1) = (  -0.0033035   0.0003494   0.0000381  )
         2           Si  tau(   2) = (   0.0042710   0.2534640   0.2443157  )
         3           Si  tau(   3) = (   0.2508806  -0.0041480   0.2469296  )
         4           Si  tau(   4) = (   0.2501225   0.2537591  -0.0024372  )
         5           Si  tau(   5) = (   0.1244346   0.1265183   0.1262903  )
         6           Si  tau(   6) = (   0.4929461   0.0020724   0.0006586  )
         7           Si  tau(   7) = (   0.4965095   0.2517434   0.2426807  )
         8           Si  tau(   8) = (   0.6168712   0.1256396   0.1207496  )
         9           Si  tau(   9) = (   0.7394446   0.0030250   0.2451232  )
        10           Si  tau(  10) = (   0.7452723   0.2508709   0.0023427  )
        11           Si  tau(  11) = (   0.0033872   0.5026387   0.0037755  )
        12           Si  tau(  12) = (   0.2444674   0.5030218   0.2472921  )
        13           Si  tau(  13) = (   0.1228247   0.6275624   0.1234276  )
        14           Si  tau(  14) = (   0.3696255   0.3794404   0.1206129  )
        15           Si  tau(  15) = (   0.4945567   0.5012912   0.0025033  )
        16           Si  tau(  16) = (   0.6170778   0.6328527   0.1195214  )
        17           Si  tau(  17) = (   0.8650400   0.3825725   0.1213936  )
        18           Si  tau(  18) = (   0.7374038   0.5041646   0.2430033  )
        19           Si  tau(  19) = (  -0.0003674   0.7562492   0.2456166  )
        20           Si  tau(  20) = (   0.2459735   0.7585728   0.0017100  )
        21           Si  tau(  21) = (   0.3663484   0.8805661   0.1197609  )
        22           Si  tau(  22) = (   0.4896059   0.7572205   0.2420226  )
        23           Si  tau(  23) = (   0.7368767   0.7554822   0.0004443  )
        24           Si  tau(  24) = (   0.8627033   0.8851523   0.1229120  )
        25           Si  tau(  25) = (   0.0000255  -0.0030851   0.4947932  )
        26           Si  tau(  26) = (   0.2476560   0.2558921   0.4911811  )
        27           Si  tau(  27) = (   0.1194712   0.1239114   0.6114774  )
        28           Si  tau(  28) = (   0.3691153   0.1236513   0.3724501  )
        29           Si  tau(  29) = (   0.4962196  -0.0010397   0.4932854  )
        30           Si  tau(  30) = (   0.6215379   0.1264405   0.6129759  )
        31           Si  tau(  31) = (   0.8649971   0.1279171   0.3727390  )
        32           Si  tau(  32) = (   0.7371416   0.2491916   0.4889943  )
        33           Si  tau(  33) = (   0.1206789   0.3770271   0.3696595  )
        34           Si  tau(  34) = (   0.0010451   0.5034378   0.4944282  )
        35           Si  tau(  35) = (   0.1272192   0.6268815   0.6189691  )
        36           Si  tau(  36) = (   0.6203542   0.3830484   0.3730765  )
        37           Si  tau(  37) = (   0.3723376   0.6265107   0.3721076  )
        38           Si  tau(  38) = (   0.3680615   0.3816189   0.6102034  )
        39           Si  tau(  39) = (   0.4906143   0.5039074   0.4872595  )
        40           Si  tau(  40) = (   0.6173110   0.6343445   0.6117944  )
        41           Si  tau(  41) = (   0.8653702   0.6322500   0.3685469  )
        42           Si  tau(  42) = (   0.8641899   0.3758919   0.6157008  )
        43           Si  tau(  43) = (   0.1244876   0.8788853   0.3694246  )
        44           Si  tau(  44) = (   0.2459330   0.7592950   0.4957490  )
        45           Si  tau(  45) = (   0.6171211   0.8877242   0.3687936  )
        46           Si  tau(  46) = (   0.3683096   0.8841655   0.6159616  )
        47           Si  tau(  47) = (   0.7412315   0.7526720   0.4873138  )
        48           Si  tau(  48) = (   0.8654519   0.8835468   0.6156468  )
        49           Si  tau(  49) = (   0.0038341   0.2495957   0.7418838  )
        50           Si  tau(  50) = (   0.2429036  -0.0011754   0.7350955  )
        51           Si  tau(  51) = (   0.3730167   0.1288562   0.8587170  )
        52           Si  tau(  52) = (   0.4973376   0.2538536   0.7420728  )
        53           Si  tau(  53) = (   0.7431973   0.0022032   0.7339519  )
        54           Si  tau(  54) = (   0.8644117   0.1255354   0.8644198  )
        55           Si  tau(  55) = (   0.1250313   0.3780578   0.8621989  )
        56           Si  tau(  56) = (   0.2472099   0.5094034   0.7362830  )
        57           Si  tau(  57) = (   0.6179197   0.3784068   0.8609985  )
        58           Si  tau(  58) = (   0.3749185   0.6337120   0.8599354  )
        59           Si  tau(  59) = (   0.7408333   0.5058244   0.7390107  )
        60           Si  tau(  60) = (   0.8624362   0.6341574   0.8627640  )
        61           Si  tau(  61) = (   0.0009447   0.7563469   0.7406011  )
        62           Si  tau(  62) = (   0.1254697   0.8836213   0.8637810  )
        63           Si  tau(  63) = (   0.4954663   0.7610930   0.7373759  )
        64           Si  tau(  64) = (   0.6180070   0.8879215   0.8575926  )

     number of k points=     1  Fermi-Dirac smearing, width (Ry)=  0.0100
                       cart. coord. in units 2pi/alat
        k(    1) = (   0.0000000   0.0000000   0.0000000), wk =   2.0000000

     Dense  grid:   100932 G-vectors     FFT dimensions: (  75,  75,  72)

     Estimated max dynamical RAM per process >     161.27 MB

     Estimated total dynamical RAM >     620.44 MB

     Initial potential from superposition of free atoms

     starting charge     255.9608, renormalised to     256.0000
     Starting wfcs are  256 randomized atomic wfcs

     total cpu time spent up to now is        4.2 secs

     Self-consistent Calculation

     iteration #  1     ecut=    30.00 Ry     beta= 0.50
     Davidson diagonalization with overlap
     ethr =  1.00E-02,  avg # of iterations =  3.0

     Threshold (ethr) on eigenvalues was too large:
     Diagonalizing with lowered threshold

     Davidson diagonalization with overlap
     ethr =  6.30E-04,  avg # of iterations =  4.0

     total cpu time spent up to now is        4.5 secs

     total energy              =    -503.85055801 Ry
     estimated scf accuracy    <       1.78541731 Ry

     iteration #  2     ecut=    30.00 Ry     beta= 0.50
     Davidson diagonalization with overlap
     ethr =  6.97E-04,  avg # of iterations =  2.0

     total cpu time spent up to now is        4.6 secs

     total energy              =    -503.83508452 Ry
     estimated scf accuracy    <       0.33687608 Ry

     iteration #  3     ecut=    30.00 Ry     beta= 0.50
     Davidson diagonalization with overlap
     ethr =  1.32E-04,  avg # of iterations =  4.0

     total cpu time spent up to now is        4.7 secs

     total energy              =    -503.85435429 Ry
     estimated scf accuracy    <       0.01542570 Ry

     iteration #  4     ecut=    30.00 Ry     beta= 0.50
     Davidson diagonalization with overlap
     c_bands:  1 eigenvalues not converged
     ethr =  6.03E-06,  avg # of iterations = 20.0

     total cpu time spent up to now is        4.9 secs

     total energy              =    -503.85815566 Ry
     estimated scf accuracy    <       0.00943979 Ry

     iteration #  5     ecut=    30.00 Ry     beta= 0.50
     Davidson diagonalization with overlap
     ethr =  3.69E-06,  avg # of iterations =  6.0

     total cpu time spent up to now is        5.0 secs

     total energy              =    -503.85986535 Ry
     estimated scf accuracy    <       0.00121965 Ry

     iteration #  6     ecut=    30.00 Ry     beta= 0.50
     Davidson diagonalization with overlap
     ethr =  4.76E-07,  avg # of iterations =  4.0

     total cpu time spent up to now is        5.1 secs

     total energy              =    -503.85995832 Ry
     estimated scf accuracy    <       0.00027069 Ry

     iteration #  7     ecut=    30.00 Ry     beta= 0.50
     Davidson diagonalization with overlap
     ethr =  1.06E-07,  avg # of iterations =  5.0

     total cpu time spent up to now is        5.3 secs

     total energy              =    -503.86000660 Ry
     estimated scf accuracy    <       0.00000955 Ry

     iteration #  8     ecut=    30.00 Ry     beta= 0.50
     Davidson diagonalization with overlap
     ethr =  3.73E-09,  avg # of iterations =  5.0

     total cpu time spent up to now is        5.4 secs

     total energy              =    -503.86000960 Ry
     estimated scf accuracy    <       0.00001168 Ry

     iteration #  9     ecut=    30.00 Ry     beta= 0.50
     Davidson diagonalization with overlap
     ethr =  3.73E-09,  avg # of iterations =  3.0

     total cpu time spent up to now is        5.5 secs

     total energy              =    -503.86001084 Ry
     estimated scf accuracy    <       0.00000107 Ry

     iteration # 10     ecut=    30.00 Ry     beta= 0.50
     Davidson diagonalization with overlap
     ethr =  4.19E-10,  avg # of iterations =  5.0

     total cpu time spent up to now is        5.6 secs

     End of self-consistent calculation

          k = 0.0000 0.0000 0.0000 ( 12626 PWs)   bands (ev):

    -5.9236  -4.9890  -4.9604  -4.9190  -4.8372  -4.7937  -4.7774  -4.1263
    -4.1024  -4.0835  -4.0541  -4.0247  -3.9665  -3.9576  -3.9312  -3.9088
    -3.8324  -3.8165  -3.7680  -3.7215  -3.6767  -3.6344  -3.4467  -2.1161
    -2.0607  -2.0286  -1.9786  -1.9348  -1.8962  -1.8854  -1.8660  -1.8274
    -1.8138  -1.8001  -1.7732  -1.7413  -1.7379  -1.6714  -1.6476  -1.5984
    -1.5513  -1.1439  -1.0008  -0.9615  -0.9046   0.2087   0.2389   0.2588
     0.2745   0.2869   0.3213   0.3676   0.3860   0.4053   0.4293   0.4450
     0.4693   1.9139   1.9473   1.9656   1.9738   1.9891   2.0024   2.0260
     2.0311   2.0473   2.0609   2.0663   2.0940   2.1109   2.1187   2.1296
     2.1399   2.1428   2.1575   2.1669   2.1942   2.2073   2.2272   2.2334
     2.2713   2.3031   2.3085   2.3735   2.4034   2.4312   2.4697   2.8949
     2.9238   3.0327   3.0576   3.0701   3.1347   3.7528   3.8086   3.8531
     3.8610   3.8833   3.9230   3.9477   3.9875   4.0391   4.0550   4.1019
     4.1737   4.2121   4.2590   4.3251   4.3866   4.3888   4.4007   4.4436
     4.4553   4.4922   4.5096   4.5317   4.5687   4.5923   4.6227   4.6381
     4.6569   4.6821   4.7316   4.7707   5.0791   5.6267   5.7604   5.9280
     6.3017   6.3476   6.5175   6.5440   6.5960   6.6819   6.7382   6.8132
     6.9049   6.9485   6.9841   7.0008   7.0337   7.0433   7.0545   7.1045
     7.8705   7.9491   7.9990   8.0161   8.0666   8.0767   8.1291   8.1405
     8.1618   8.2162

     the Fermi energy is     6.0710 ev

!    total energy              =    -503.86001100 Ry
     estimated scf accuracy    <       0.00000033 Ry
     smearing contrib. (-TS)   =      -0.04858014 Ry
     internal energy E=F+TS    =    -503.81143085 Ry

     The total energy is F=E-TS. E is the sum of the following terms:
     one-electron contribution =     138.82312147 Ry
     hartree contribution      =      37.83783130 Ry
     xc contribution           =    -152.69910987 Ry
     ewald contribution        =    -527.77327376 Ry

     convergence has been achieved in  10 iterations

     Forces acting on atoms (cartesian axes, Ry/au):

     atom    1 type  1   force =    -0.01537510    0.02179737    0.02911539
     atom    2 type  1   force =    -0.05799398   -0.00039152    0.01019363
     atom    3 type  1   force =    -0.02128785    0.03320522    0.00699848
     atom    4 type  1   force =    -0.01009989   -0.01272171    0.02845158
     atom    5 type  1   force =     0.00802852   -0.00824717   -0.01909152
     atom    6 type  1   force =    -0.00311674    0.01028653    0.00655931
     atom    7 type  1   force =    -0.01005671    0.00865166    0.02419186
     atom    8 type  1   force =     0.00691619    0.00913100    0.00661774
     atom    9 type  1   force =     0.01513089    0.02309361    0.00835345
     atom   10 type  1   force =    -0.01607974    0.01479634    0.00822462
     atom   11 type  1   force =    -0.05104767    0.01022156   -0.00875476
     atom   12 type  1   force =     0.01140698   -0.00130689    0.00240424
     atom   13 type  1   force =     0.00391579    0.01840767    0.00861566
     atom   14 type  1   force =    -0.00242760   -0.00617474    0.02205329
     atom   15 type  1   force =     0.00104792    0.01900666   -0.00223154
     atom   16 type  1   force =    -0.01687392   -0.01339328    0.01970606
     atom   17 type  1   force =     0.03377575   -0.01682648    0.01274130
     atom   18 type  1   force =     0.02300418    0.01742558    0.01104039
     atom   19 type  1   force =    -0.03172106   -0.00157677   -0.00404246
     atom   20 type  1   force =    -0.00072907   -0.03225283    0.00214594
     atom   21 type  1   force =     0.02054863   -0.00537244    0.00721036
     atom   22 type  1   force =     0.01790464   -0.00464315    0.02010255
     atom   23 type  1   force =     0.01653453    0.02764942    0.00551306
     atom   24 type  1   force =     0.02799305   -0.03252958    0.00055747
     atom   25 type  1   force =    -0.03652833    0.01775759   -0.02059326
     atom   26 type  1   force =    -0.01537630   -0.02524409    0.00019869
     atom   27 type  1   force =     0.01771287    0.02057685    0.01184620
     atom   28 type  1   force =     0.01639512    0.01586257   -0.01532615
     atom   29 type  1   force =    -0.01267127    0.03015620    0.01014596
     atom   30 type  1   force =    -0.02666843    0.00406719    0.01308773
     atom   31 type  1   force =     0.03685854   -0.00950729   -0.02407908
     atom   32 type  1   force =     0.02799306    0.02475009    0.01404771
     atom   33 type  1   force =     0.00675987    0.01147593    0.00050026
     atom   34 type  1   force =    -0.03740790    0.00079812   -0.00132230
     atom   35 type  1   force =    -0.03429037    0.03191414   -0.02154388
     atom   36 type  1   force =    -0.01738702   -0.02315361   -0.03073172
     atom   37 type  1   force =    -0.03195223    0.03489579   -0.02647851
     atom   38 type  1   force =     0.01345706   -0.00745158    0.03088592
     atom   39 type  1   force =     0.02943978    0.00227031    0.03299643
     atom   40 type  1   force =    -0.00886305   -0.02061902    0.00719145
     atom   41 type  1   force =     0.03249174   -0.02328633   -0.01166113
     atom   42 type  1   force =     0.02757274   -0.00031774    0.00377165
     atom   43 type  1   force =    -0.00987773   -0.00596861   -0.00146961
     atom   44 type  1   force =     0.00999837   -0.03118071   -0.00791319
     atom   45 type  1   force =    -0.00035904   -0.05161371   -0.01436255
     atom   46 type  1   force =     0.01038601   -0.01989081   -0.00281068
     atom   47 type  1   force =     0.00356652    0.03298027    0.01243328
     atom   48 type  1   force =     0.02814116   -0.04259637   -0.01076595
     atom   49 type  1   force =    -0.04699091    0.00351491   -0.01225357
     atom   50 type  1   force =     0.01316783    0.03915351    0.01025559
     atom   51 type  1   force =    -0.01755660   -0.01432408   -0.01740235
     atom   52 type  1   force =    -0.00733489    0.00112319   -0.04269599
     atom   53 type  1   force =     0.00703296    0.02278844    0.01531320
     atom   54 type  1   force =     0.03801420   -0.00060494   -0.03451045
     atom   55 type  1   force =     0.00224464    0.01079816   -0.02556087
     atom   56 type  1   force =     0.02148600   -0.02981625    0.02385666
     atom   57 type  1   force =     0.01679698    0.00229868   -0.00063009
     atom   58 type  1   force =    -0.01089671   -0.00633388   -0.00466074
     atom   59 type  1   force =     0.00371025    0.00151351   -0.01219862
     atom   60 type  1   force =     0.04581499   -0.02034102   -0.01420358
     atom   61 type  1   force =    -0.02788528   -0.00158690   -0.00445021
     atom   62 type  1   force =    -0.02077463   -0.01840970   -0.02345219
     atom   63 type  1   force =     0.00181065   -0.00735653   -0.00825780
     atom   64 type  1   force =     0.00257164   -0.02732836   -0.00387235

     Total force =     0.279286     Total SCF correction =     0.001053


     Computing stress (Cartesian axis) and pressure

          total   stress  (Ry/bohr**3)                   (kbar)     P=      -13.16
  -0.00012249  -0.00002812  -0.00003510          -18.02       -4.14       -5.16
  -0.00002812  -0.00013038   0.00003005           -4.14      -19.18        4.42
  -0.00003510   0.00003005  -0.00001554           -5.16        4.42       -2.29

 
     init_run     :      1.00s CPU      4.17s WALL (       1 calls)
     electrons    :      1.28s CPU      1.39s WALL (       1 calls)
     forces       :      0.03s CPU      0.04s WALL (       1 calls)
     stress       :      0.15s CPU      0.16s WALL (       1 calls)

     Called by init_run:
     wfcinit      :      0.57s CPU      3.58s WALL (       1 calls)
                                        3.58s GPU  (       1 calls)
     potinit      :      0.15s CPU      0.24s WALL (       1 calls)
     hinit0       :      0.26s CPU      0.28s WALL (       1 calls)

     Called by electrons:
     c_bands      :      0.89s CPU      0.94s WALL (      11 calls)
     sum_band     :      0.22s CPU      0.25s WALL (      11 calls)
     v_of_rho     :      0.09s CPU      0.19s WALL (      11 calls)
     mix_rho      :      0.07s CPU      0.08s WALL (      11 calls)

     Called by c_bands:
     init_us_2    :      0.03s CPU      0.03s WALL (      23 calls)
     init_us_2:gp :      0.03s CPU      0.03s WALL (      23 calls)
     regterg      :      0.80s CPU      0.85s WALL (      11 calls)

     Called by *egterg:
     rdiaghg      :      0.32s CPU      0.91s WALL (      71 calls)
                                        0.90s GPU  (      71 calls)
     h_psi        :      0.91s CPU      3.36s WALL (      73 calls)
                                        3.35s GPU  (      73 calls)
     g_psi        :      0.00s CPU      0.00s WALL (      61 calls)
                                        0.00s GPU  (      61 calls)

     Called by h_psi:
     h_psi:calbec :      0.52s CPU      2.92s WALL (      73 calls)
                                        2.92s GPU  (      73 calls)
     vloc_psi     :      0.34s CPU      0.39s WALL (      73 calls)
                                        0.39s GPU  (      73 calls)
     add_vuspsi   :      0.03s CPU      0.04s WALL (      73 calls)
                                        0.04s GPU  (      73 calls)

     General routines
     calbec       :      0.53s CPU      2.92s WALL (      78 calls)
     fft          :      0.29s CPU      0.40s WALL (      95 calls)
                                        0.11s GPU  (      61 calls)
     ffts         :      0.03s CPU      0.03s WALL (      11 calls)
     fftw         :      0.38s CPU      0.50s WALL (    1223 calls)
                                        0.45s GPU  (    1223 calls)
 
     Parallel routines
 
     PWSCF        :      2.49s CPU      5.82s WALL

 
   This run was terminated on:  11:20:20  10May2023            

=------------------------------------------------------------------------------=
   JOB DONE.
=------------------------------------------------------------------------------=
