11.09059171374823 0.0 0.0 0.0 10.890916700533907 0.0 0.0 0.0 11.037101789912823
10.888913283632155 0.0 0.0 0.0 10.909297329299115 0.0 0.0 0.0 10.989831731944857
11.049132796182564 0.0 0.0 0.0 10.959181806088841 0.0 0.0 0.0 10.951005447819666
11.046778486782598 0.0 0.0 0.0 10.939105536871928 0.0 0.0 0.0 11.087960876981324
10.915252550000742 0.0 0.0 0.0 11.01178704355295 0.0 0.0 0.0 10.996549350993147
10.9082626482556 0.0 0.0 0.0 10.986900313686876 0.0 0.0 0.0 11.066748796272107
11.08204603101053 0.0 0.0 0.0 10.961573108607414 0.0 0.0 0.0 11.00276507370468
10.964780890816593 0.0 0.0 0.0 11.086654430418019 0.0 0.0 0.0 10.892468160841657
11.09025092362605 0.0 0.0 0.0 10.92542761439912 0.0 0.0 0.0 11.01485939784724
10.93084158138163 0.0 0.0 0.0 11.05379168748901 0.0 0.0 0.0 10.892802252678422
10.937147786173579 0.0 0.0 0.0 11.032388469095578 0.0 0.0 0.0 10.9267684329245
10.937391207689421 0.0 0.0 0.0 11.02075600347443 0.0 0.0 0.0 10.8763386899681
11.063416876567652 0.0 0.0 0.0 10.96562733479567 0.0 0.0 0.0 10.924526741099223
10.908307628318312 0.0 0.0 0.0 10.962391017539515 0.0 0.0 0.0 11.088665586644927
11.070325285022706 0.0 0.0 0.0 11.070768098034108 0.0 0.0 0.0 11.064679419127344
10.926995521431316 0.0 0.0 0.0 11.020618019058938 0.0 0.0 0.0 11.061867427152343
10.982033126163335 0.0 0.0 0.0 11.024028420837784 0.0 0.0 0.0 11.007566353181664
11.071853548800432 0.0 0.0 0.0 10.944726526353104 0.0 0.0 0.0 11.08201751035823
11.02904681688509 0.0 0.0 0.0 10.915502779905259 0.0 0.0 0.0 10.908256696146566
10.981277990287015 0.0 0.0 0.0 10.986208584104654 0.0 0.0 0.0 10.937265028101946
10.953205139383858 0.0 0.0 0.0 10.927618452178256 0.0 0.0 0.0 11.03441220228725
10.898023069273961 0.0 0.0 0.0 11.015307593545486 0.0 0.0 0.0 11.07529031251877
10.882744135737168 0.0 0.0 0.0 11.014283864105822 0.0 0.0 0.0 11.068697584784509
10.897841561491495 0.0 0.0 0.0 10.938806547921143 0.0 0.0 0.0 11.032527985349969
10.94180772067034 0.0 0.0 0.0 10.984163458357054 0.0 0.0 0.0 10.956382208554274
10.91961561608362 0.0 0.0 0.0 10.909012669320402 0.0 0.0 0.0 11.081760988366845
10.980409610488108 0.0 0.0 0.0 10.880685530405655 0.0 0.0 0.0 10.909245575802535
10.99434443391568 0.0 0.0 0.0 10.980348633451307 0.0 0.0 0.0 10.994212501782473
11.09004824875525 0.0 0.0 0.0 10.97851563351752 0.0 0.0 0.0 11.013238574584372
10.99759993210147 0.0 0.0 0.0 10.95652389635507 0.0 0.0 0.0 11.013821392001319
10.956063225486178 0.0 0.0 0.0 10.876007271497551 0.0 0.0 0.0 11.02788021992924
10.95401160544939 0.0 0.0 0.0 10.999777465936958 0.0 0.0 0.0 10.959948679739544
10.90475049912376 0.0 0.0 0.0 11.021791186230855 0.0 0.0 0.0 10.98325379796695
11.056142277484415 0.0 0.0 0.0 10.973696624521214 0.0 0.0 0.0 10.952070810226454
10.902700466618597 0.0 0.0 0.0 10.930022633987942 0.0 0.0 0.0 10.91932708483019
10.886458430562602 0.0 0.0 0.0 10.907687024502197 0.0 0.0 0.0 11.066498680087246
10.936798529216066 0.0 0.0 0.0 11.082586053610516 0.0 0.0 0.0 10.883886297931719
11.01072035180539 0.0 0.0 0.0 11.005148927307376 0.0 0.0 0.0 10.965686505566504
10.920141089051514 0.0 0.0 0.0 10.944656805796434 0.0 0.0 0.0 10.930285900123243
10.89180999967068 0.0 0.0 0.0 10.877225866081123 0.0 0.0 0.0 10.900980903690403
11.039122350932141 0.0 0.0 0.0 10.992658684957068 0.0 0.0 0.0 11.082130771611372
10.90856798350482 0.0 0.0 0.0 10.921745533628895 0.0 0.0 0.0 10.950936861552753
10.889567346661678 0.0 0.0 0.0 10.897081148130876 0.0 0.0 0.0 11.04404674904142
10.985479128144135 0.0 0.0 0.0 10.993245861887733 0.0 0.0 0.0 11.03990119174496
11.05437641314014 0.0 0.0 0.0 10.873449434386275 0.0 0.0 0.0 11.052839854818714
10.925243944871667 0.0 0.0 0.0 11.037752107015955 0.0 0.0 0.0 10.94951983691717
11.030170260098423 0.0 0.0 0.0 10.901293750779432 0.0 0.0 0.0 10.878935595662213
10.951253533839452 0.0 0.0 0.0 10.930106663265608 0.0 0.0 0.0 10.923919205018988
11.025753747117504 0.0 0.0 0.0 11.038080539806781 0.0 0.0 0.0 11.0414544204534
10.915969585118063 0.0 0.0 0.0 10.992119388943848 0.0 0.0 0.0 11.01654932887534
10.948231931979754 0.0 0.0 0.0 10.985269800605641 0.0 0.0 0.0 10.99189348092449
10.93311069325105 0.0 0.0 0.0 10.91548651881353 0.0 0.0 0.0 10.973257075716667
10.999190109612574 0.0 0.0 0.0 11.044044806879574 0.0 0.0 0.0 10.930995130932976
10.917435405985202 0.0 0.0 0.0 10.996226537310198 0.0 0.0 0.0 11.066829592080705
10.917823822056134 0.0 0.0 0.0 11.036456895706596 0.0 0.0 0.0 11.07359933234923
10.931718428015872 0.0 0.0 0.0 11.041516607906862 0.0 0.0 0.0 10.970821184832884
10.976879998508387 0.0 0.0 0.0 10.90239089083851 0.0 0.0 0.0 10.96589214162988
11.00767017437644 0.0 0.0 0.0 11.086507108165323 0.0 0.0 0.0 11.086771292249507
10.943760913746374 0.0 0.0 0.0 10.915996592308199 0.0 0.0 0.0 11.081422482280388
10.938620486344428 0.0 0.0 0.0 11.087943594603516 0.0 0.0 0.0 10.968154761657557
11.01726098210064 0.0 0.0 0.0 11.032035129077636 0.0 0.0 0.0 10.934223886078547
11.069159507632705 0.0 0.0 0.0 10.939860655424047 0.0 0.0 0.0 10.98473502806799
11.043241466321964 0.0 0.0 0.0 11.031480414160331 0.0 0.0 0.0 11.014275043955802
10.89164330885005 0.0 0.0 0.0 10.995015895494344 0.0 0.0 0.0 10.970378998329727
11.001816416097633 0.0 0.0 0.0 10.93940311156911 0.0 0.0 0.0 10.954761647285983
10.915770085310513 0.0 0.0 0.0 10.94994736144762 0.0 0.0 0.0 10.975806820779722
10.922052477128087 0.0 0.0 0.0 11.086516743328682 0.0 0.0 0.0 11.08268310290921
10.874713871600404 0.0 0.0 0.0 11.041966970945618 0.0 0.0 0.0 11.056539087533563
11.036641568179379 0.0 0.0 0.0 11.012074004048612 0.0 0.0 0.0 11.019336114200474
11.046537711152798 0.0 0.0 0.0 10.957138081456439 0.0 0.0 0.0 10.957502617200907
10.969851996004245 0.0 0.0 0.0 10.994314765955334 0.0 0.0 0.0 11.065651713485352
10.944677448671241 0.0 0.0 0.0 10.96948903244738 0.0 0.0 0.0 11.079789491775088
10.995734582442024 0.0 0.0 0.0 10.919556133254865 0.0 0.0 0.0 10.901918974984628
11.071255049377784 0.0 0.0 0.0 10.960387501313315 0.0 0.0 0.0 10.952626551523702
10.991071472882014 0.0 0.0 0.0 11.023385223012287 0.0 0.0 0.0 11.044773848098515
11.011081779838696 0.0 0.0 0.0 10.903833843303067 0.0 0.0 0.0 11.059464473179307
10.9974813964068 0.0 0.0 0.0 11.022379694288265 0.0 0.0 0.0 10.924227172825333
11.063221081000561 0.0 0.0 0.0 10.903368599601183 0.0 0.0 0.0 11.077039044130732
11.017168905266384 0.0 0.0 0.0 11.072298818468337 0.0 0.0 0.0 10.91570077964888
11.00856660056739 0.0 0.0 0.0 10.990622637008464 0.0 0.0 0.0 10.927895824518432
11.044462807318844 0.0 0.0 0.0 11.036720638890914 0.0 0.0 0.0 10.980206122705862
11.03256902038389 0.0 0.0 0.0 11.025585404193988 0.0 0.0 0.0 10.920577412257973
10.929332367983406 0.0 0.0 0.0 10.913452048052726 0.0 0.0 0.0 10.922840344556825
10.96812423241897 0.0 0.0 0.0 11.011843175609393 0.0 0.0 0.0 10.93375013107457
11.079126031174834 0.0 0.0 0.0 11.03723585565096 0.0 0.0 0.0 11.028139893179368
10.927374941489706 0.0 0.0 0.0 10.918589332036747 0.0 0.0 0.0 11.04580583110557
10.87242994276915 0.0 0.0 0.0 10.919572799000996 0.0 0.0 0.0 11.02641616804859
11.036179067299278 0.0 0.0 0.0 10.979199274774812 0.0 0.0 0.0 11.006999409845339
11.048228961510697 0.0 0.0 0.0 10.944364561043535 0.0 0.0 0.0 10.983199085843246
11.048432165558705 0.0 0.0 0.0 11.03615735742277 0.0 0.0 0.0 11.049570154071757
10.996799286985233 0.0 0.0 0.0 11.038455162684333 0.0 0.0 0.0 11.033022743836561
11.01106696287686 0.0 0.0 0.0 11.091612917710304 0.0 0.0 0.0 11.033749760820386
11.023900568533852 0.0 0.0 0.0 10.954119277935034 0.0 0.0 0.0 11.081632735811263
10.881796908534216 0.0 0.0 0.0 10.943181124895258 0.0 0.0 0.0 10.937881689800802
10.899276160903343 0.0 0.0 0.0 10.952421031463908 0.0 0.0 0.0 10.930524385656652
11.08359493269938 0.0 0.0 0.0 10.882560687810079 0.0 0.0 0.0 11.083916356952429
11.044115137892957 0.0 0.0 0.0 11.041563947296105 0.0 0.0 0.0 10.883323865600374
11.051798261781041 0.0 0.0 0.0 10.944430041667838 0.0 0.0 0.0 10.906190819682076
10.945268539612973 0.0 0.0 0.0 10.940999884882524 0.0 0.0 0.0 11.005500352386465
11.007796647729236 0.0 0.0 0.0 11.062835630967882 0.0 0.0 0.0 10.874040910662679
