0.008433285939134155 -0.0004147881300941838 0.0034103569519775808 0.009401494595744374 2.7291484096173946 2.7605192573389026 2.7686187164674525 -0.0033293956324672185 2.768571026923084 2.7688438554792416 2.7260297352274883 -0.006048808720678285 1.3866012290113725 1.3542178102663989 1.3807897589533684 5.543572378921798 -0.00932940574960501 0.0031996357094163648 5.55370585257065 2.7147860933480903 2.764456417397283 6.92474365423012 1.3673989785181888 1.37892764860463 8.318400717689778 0.0037220025791339065 2.7611935653150983 8.316916796518479 2.7248474781508025 0.0035744977093410545 -0.006517940750169835 5.441623223652339 0.005401118164595388 2.7725081869814643 5.4437659259714355 2.7516057487785632 1.3905128807088116 6.807387448951921 1.385952429396118 4.1655497226010105 4.092391743420442 1.3771054643860612 5.54738976058967 5.442053538610833 -0.008665079305951492 6.939600610889857 6.797424770415461 1.3751834648420687 9.701762384861565 4.083977311487221 1.3860245182422575 8.311791834087556 5.448429519787067 2.7613565970132905 0.007397424673070069 8.17704447194303 2.7496227509801447 2.773385452786022 8.171014517228265 -0.005431062762222509 4.1564776185791645 9.521522524566414 1.3817845850300916 5.542188273075923 8.172476257216138 2.7621739736225934 8.326624391445524 8.171181985163141 0.0005467661714877877 9.705422280127102 9.534083728741406 1.3752622080432364 0.004346402892617931 -0.005873577371601062 5.521164947423341 2.7691832275856827 2.730963939480935 5.525415971227222 1.3797716426340463 1.3516303752195815 6.906536229813659 4.166349354263572 1.3598440674427834 4.1475973817939655 5.543054448288767 -0.0021249573723541608 5.521459957162927 6.939475287203492 1.3557937833489226 6.904324765825939 9.699746115288006 1.3556540418933294 4.147038415971593 8.32124878164187 2.714086277010953 5.528201927865715 1.3839306145267019 4.09318139355046 4.140844320499465 0.0003637714082109419 5.451155587230306 5.521356814659989 1.37933910955721 6.812074333010152 6.899183167507444 6.932993945405976 4.080115567452493 4.134683496802477 4.165295748050766 6.802117199769548 4.129023967850952 4.151444708059466 4.0870272242085015 6.900894445808876 5.550537270518033 5.445273137385334 5.513694324844961 6.94038582478319 6.798445104853127 6.904171715660289 9.70649252222748 6.812197438578174 4.132922310838334 9.710913232084579 4.087003933965902 6.900642689376974 1.391553178211561 9.53842680445651 4.1312631583179575 2.76534921003024 8.17433393132819 5.514290998679161 6.93101205666673 9.529853777061783 4.129580715554982 4.156189263194607 9.53732994493602 6.8970293745966345 8.324513851842397 8.167363494436099 5.517622612429971 9.700333916648834 9.524168739749316 6.900830120376936 0.009718685518757575 2.7183650272941167 8.28010712262055 2.7722486671353623 -0.009480237796911987 8.280041688129439 4.168919044363647 1.3669398280212397 9.66189947106484 5.550542815813889 2.7283033065288063 8.286261291962507 8.315599234222887 -0.004879860354049221 8.278302683348722 9.709901770120284 1.360017080673518 9.651012946238625 1.3931335875307702 4.078489686707258 9.658159723538965 2.767388769846398 5.453146348442924 8.27272744289422 6.934151803180892 4.079004290162776 9.666219256537346 4.152058017781235 6.815475817488759 9.66051203804145 8.324384091919345 5.443452062225936 8.283772563181943 9.712328391587254 6.801337531172072 9.648170427582391 0.0045870687328062685 8.163975318667548 8.285378480862093 1.390330995004706 9.53168261563538 9.665040326638174 5.551568695547411 8.162767553229921 8.277326711277912 6.924937739585111 9.530084461369428 9.660279135615461
0.001687781558962984 0.007982662328230732 -0.004643032624140751 0.0042902318337510684 2.7588281362369833 2.732212365497801 2.699490092189158 -0.0003146895938969693 2.726650308592522 2.696878930783743 2.743886369429183 -0.005594723645130201 1.3513032495854669 1.379666690906672 1.3683574655702915 5.38677697926135 -0.0029726733264315783 0.006328636400447008 5.386420911796975 2.757959200956949 2.728743157725636 6.73805082878095 1.383228454441748 1.3738803223877496 8.080538414171988 -0.0016344258838731863 2.727523599437869 8.088302209343217 2.7432580791327177 -0.0007469794512571658 0.0066476815596574305 5.501029990781189 0.0018532930408741927 2.6905034720561765 5.497865672580964 2.734353125849363 1.3521210069730676 6.866329849501436 1.3688256888414876 4.046920155319637 4.130342297768199 1.3609758712553173 5.389326073861048 5.496944470517169 0.004834677497932677 6.744732265971787 6.877308051873993 1.3594601345262356 9.438959746370966 4.11887300540655 1.3688104443628906 8.096007204382715 5.5002122333935874 2.7250322160785743 0.0070407713291965515 8.254388625875803 2.7355607063325182 2.703561456865908 8.241536441527131 0.008688263909010096 4.039623494528275 9.616891122773485 1.3762421276789696 5.398949695421122 8.24946139261496 2.7356282175948765 8.084782912569949 8.240476950264634 -0.004755188430962162 9.428034899673497 9.627282412720056 1.3758163711695794 0.004725788365096355 0.0037577639741814563 5.462585593541996 2.689240358115275 2.750284694874645 5.468608251479174 1.3556228814850837 1.3684119101367098 6.835029668267635 4.048034091148552 1.3759459492376547 4.104296017193751 5.3826762145187335 0.0007491572339138923 5.467836227527363 6.7461935581344505 1.3690238670632495 6.825982070220265 9.435428471793083 1.3712070941766181 4.091089943163362 8.08200079522598 2.7512374747869632 5.470617255980003 1.3542879007165103 4.125413975616028 4.106097043450864 0.0046713437986781944 5.499418431615211 5.476124868318864 1.3436853658522379 6.871186304825936 6.830042545983732 6.742226727025223 4.1218848788208025 4.1065445777868215 4.0405926078105185 6.882681730579466 4.098222181364141 4.035838508270884 4.121177099457366 6.841589149629695 5.388214315814789 5.507017804195858 5.475947379032341 6.748198207069967 6.880114124827186 6.8381362752274555 9.4286915011445 6.868080786757444 4.099438472977923 9.432339287094518 4.118279559632592 6.835209335336816 1.340781292679493 9.624061472170757 4.0959888652496685 2.6909564508487755 8.246145718520093 5.473847996551258 6.729897210514166 9.624548206594536 4.105362041804218 4.050919653168715 9.618798860380778 6.826333782119327 8.090681436895691 8.251713219882015 5.471345724278678 9.429597458729699 9.63059917570625 6.836164293031789 0.0011705581779904565 2.7463527082879255 8.206736563563972 2.6979852443733603 -0.0051461004178445565 8.201399907163664 4.045130017975808 1.3715718727716197 9.562437845224698 5.381552478667863 2.7596742047991216 8.208650834519235 8.088803099354266 -0.004579876927095684 8.202502954079296 9.4402740382043 1.378488510489383 9.571438620944948 1.357479441199943 4.1287993387559085 9.573075224611477 2.6933999229896224 5.499782121318884 8.194566025186855 6.747452316510038 4.116850934209779 9.578028591264202 4.0467666216423375 6.870860726318755 9.562442200790011 8.09104948216468 5.490653945313215 8.204638269974216 9.434776225887394 6.87999870234638 9.559143948956399 -0.008776464106607516 8.24741209913498 8.199444258337923 1.3568446175555071 9.621648488987105 9.568008613260604 5.396657579174917 8.2458811179273 8.194153335373407 6.740486678682499 9.617433390655009 9.561801932688933
0.0025059433181742054 -0.009105590337334052 -0.009048134846793902 -0.005299164089049157 2.753495823732837 2.7399164395263287 2.7892231946292934 0.007406233713281172 2.7290507223345624 2.791406503269819 2.757906637545073 -0.0043699320208902045 1.3982887487092162 1.3772953963964694 1.3583538680439735 5.579423132597769 -0.009342041779172357 0.003163366719547068 5.572996956963509 2.7619793478937456 2.735065870228804 6.959271983583435 1.3750656813981996 1.3616487194437952 8.364347109656068 0.0037102987929581045 2.742830095844682 8.359024742388147 2.7667150062101897 0.0023866126839754338 0.002758968459206786 5.5231543189199295 0.0070504516372440935 2.7763929416263657 5.510957181226224 2.741073283730089 1.401968109930345 6.901586671081127 1.373690064365075 4.184868990773663 4.129732713207432 1.3743740056851586 5.5743526855576 5.52497521600474 0.0068294689813204424 6.961312758410891 6.894082100085959 1.3760391099975433 9.749792346403 4.128020097624024 1.3761142441005574 8.35965564787081 5.5203655178021735 2.7307799116171654 -0.0012032505615042813 8.26439886420836 2.731983162178669 2.782442341832276 8.271155408913225 -0.009048134846793902 4.185205989323946 9.653380928363351 1.3769827059383373 5.576687367317434 8.27764898425754 2.726079610525669 8.367719304985462 8.273001719003467 0.00024639566135487115 9.755457236787604 9.6578127355279 1.3705576352173572 0.002494894185378023 0.0029114464917941057 5.465528671734719 2.7890353593717583 2.760117569017589 5.474848615248299 1.3930315713247925 1.3784522406002295 6.8383270710831425 4.183570717670111 1.3817780295718805 4.113159014013158 5.567069097218357 -0.004554452538586453 5.470807947384735 6.97382037673617 1.3851192873294462 6.833372639937334 9.75243087931473 1.3862242006090644 4.112876156213575 8.348370063632787 2.7570602739728853 5.46523586971562 1.3972755432318062 4.138271483032322 4.108382473905368 0.008641526759894384 5.510633441635296 5.468295374586883 1.4026653102097841 6.898562523434811 6.832498653533156 6.963521480056849 4.132464058834648 4.101130928051234 4.174602136579449 6.896341647742778 4.102990497100832 4.177603081046893 4.139457054981352 6.831642345741452 5.568146387665984 5.515477381453142 5.46358733910243 6.960624397437689 6.893023593164084 6.837097302602927 9.758088035306375 6.901076201145943 4.110562467806055 9.752588881913715 4.13413910736655 6.84817516314438 1.3903333730959646 9.64693044463694 4.102327549133061 2.7830412048298294 8.274952995855273 5.478968836867995 6.970816117528888 9.662275480264277 4.099602832985522 4.173962391790551 9.652190936761201 6.844975334286605 8.367620967703576 8.274591689212837 5.477887126767249 9.756796391682501 9.657978472519844 6.837390104622026 -0.008813893231514831 2.750945683883478 8.213071222716973 2.7821517496397368 -0.003356726543480263 8.203899337582861 4.176111448119409 1.384555781556841 9.576182847342983 5.571904197729967 2.7526472503340904 8.199961426654303 8.365112814558843 -0.00799625740459732 8.200644263061106 9.752624239138663 1.3769307750141953 9.56947491882242 1.3974910013213317 4.129372511478277 9.571615135845041 2.7848024365975403 5.513565881479402 8.212693342375344 6.966239566724709 4.138380869447004 9.57691761467393 4.171503959743401 6.89295066888763 9.572218418495712 8.36602105327469 5.52581715992381 8.207019612684503 9.758700157263284 6.90310924158044 9.580053358561486 0.0032738580475088937 8.266555654930174 8.19846316424714 1.3890770866970388 9.656671360110055 9.575365211516065 5.579624226814659 8.273712178242262 8.198541613089994 6.963067360698925 9.645433287143057 9.573622763274107
0.00567473010866022 -0.005376467089517091 -0.00024302912670921714 0.009809539296262947 2.7401843346261865 2.7748877892424137 2.743567962876688 -0.00971895571267133 2.771248980408868 2.7453575409915465 2.749634853621629 -8.616487219690426e-05 1.3666301069353355 1.3632310131949525 1.3895068805036137 5.499450874410441 -0.0017288208331814768 0.008039845382680376 5.496956511828126 2.746311982652805 2.7763238704456956 6.8686659275116835 1.3670719780748068 1.385663706268062 8.227051823662332 -0.0002728554286235302 2.789409884241138 8.236684614502808 2.7348973464424122 0.009977450329262044 -0.00942732076062027 5.487899258146812 -0.010047045033728774 2.743004577173862 5.475228603222472 2.782285816795012 1.3774382750068035 6.852308962606305 1.3821453073200216 4.114008103712115 4.1144831151870465 1.3862281966487364 5.489852328583276 5.490374841205701 0.0013841613443938596 6.862544907552158 6.851242948482331 1.3820072225889368 9.606771258426658 4.106142797429525 1.3864690164197484 8.224871189589042 5.487927979770879 2.787763914246608 -0.0007080985010027646 8.223000969991231 2.7842631901441464 2.7383759769879 8.231320298869626 -0.0018867897655424678 4.1189161873937925 9.594331481172691 1.3939090217305965 5.484492431661489 8.230123932759508 2.770262503089998 8.238112962961148 8.228176385712288 0.008680558534913766 9.610565826836869 9.588049178247259 1.3939034983413532 0.003040073439562571 0.009067195781951157 5.553497238157026 2.7434387155683924 2.7453310287231787 5.553216649983461 1.3817719262071684 1.3786931890429022 6.959648299806673 4.117921977329982 1.3657861330589454 4.161341340172281 5.497122213505428 -0.00902742737939874 5.553873933303424 6.859987578332467 1.3639181228168304 6.959293698217248 9.60646857669612 1.3797470517105412 4.179434858655782 8.23604611070627 2.740017528271036 5.549548014848001 1.3769168670622274 4.108400758952224 4.179196248240467 0.007669778303373158 5.475851641529127 5.552694137361036 1.375816607924944 6.855252929073032 6.946294953971851 6.867469561401566 4.120089355269089 4.169792125714669 4.124136894906646 6.84637021449181 4.16573795801002 4.120651636294066 4.119265265593975 6.951999510382426 5.491381202725846 5.488626136171243 5.558747771971793 6.8707835949476 6.8436416602055745 6.941654202329554 9.605250117029028 6.844003994539942 4.172554925014214 9.605034704848535 4.116580898421686 6.94233468388434 1.3766848847140052 9.595597441987278 4.163117662152955 2.740474864900389 8.218540280838267 5.5603296706511 6.865867778520982 9.583371972235955 4.160033401599446 4.121129961802543 9.595127953901589 6.958270766529372 8.238914959079288 8.224707697267439 5.56418278698729 9.59847844181663 9.600274647998582 6.942286078058998 -0.006980459325797924 2.744580952463926 8.34567544508695 2.7472984599716743 -0.0008660674333637557 8.340479040486768 4.122330746624057 1.3734581207180159 9.729538526461669 5.49748786187334 2.7480330707410454 8.343986392656321 8.237445737540547 0.0009920007081130773 8.336143179930707 9.60237243123322 1.360404142580185 9.729354045260937 1.373155438987478 4.107044214554048 9.722309514619917 2.7536426248566337 5.477232488839975 8.338208927507734 6.854158193324992 4.103244122754594 9.725518603770327 4.1250548821988975 6.853225845220709 9.735947867339698 8.236517808147658 5.472778427754104 8.340264732984124 9.616923247856011 6.855373338958538 9.73084094164526 0.008828585366636653 8.224958459139089 8.34520043361202 1.378305447118016 9.58743718671909 9.719986377104146 5.499340406625573 8.228481276798524 8.343545626194699 6.864526699612687 9.585929301455645 9.72372681629977
-0.007881903866355537 0.006051416013720412 -0.0020313284995551384 -0.003427389300700233 2.7617182578374178 2.718015769677725 2.7102113641044743 0.006643022701930452 2.7283525138425757 2.7108455402776293 2.7716096596982287 -0.000367844010935025 1.3488359609875167 1.3849850943826092 1.367378792019458 5.416804321988623 -0.007685429320455523 0.008800968131065599 5.4266182255563296 2.7548438317814274 2.7229243587494603 6.776343779626671 1.3892213038972645 1.3566698377426523 8.146292022096398 0.006805659964925464 2.72339808071013 8.133707827431502 2.767946500942448 0.007085090430205482 0.009228846031025627 5.519564875595351 0.001294548952430088 2.7097660218004345 5.5207186177898855 2.7257153888264956 1.3587797560605674 6.902888668539849 1.3541997160905872 4.072856211092997 4.152696917395232 1.352487112965492 5.425471032513324 5.520660766951371 -0.006193314296870422 6.783511825976257 6.904116634451725 1.369903489934273 9.49136331247942 4.140721793822627 1.3625356944630227 8.139262599454199 5.536353625542507 2.7174514511208896 -0.008940683363705609 8.299641496696614 2.7276790427602404 2.7150795667417746 8.287920698508424 -0.00910877825297562 4.073629010973537 9.673688416498868 1.353468394169737 5.435397363182295 8.286041092019314 2.7163140818051796 8.130410329636147 8.30092840497226 -0.00031545079869502147 9.490648363437394 9.681528842405534 1.3586749696360874 -0.003217816451740219 -0.007080724329185482 5.444541070243431 2.719722915176545 2.765680494513068 5.443137368765501 1.3498194252422717 1.3734978825989883 6.804346860043697 4.0661433307747465 1.3724685742835234 4.088809944220078 5.4159944102494135 0.009736405274600662 5.447677022301045 6.7883603811589674 1.3757540653010736 6.807220846040113 9.499810626427866 1.3912067883361097 4.0803113285846475 8.146969859279755 2.7577931330204377 5.44371806020116 1.3565246648837372 4.1393846753852515 4.075443125947348 -0.0062522566606404255 5.536614500078452 5.438953552463085 1.3660733278144779 6.9036254480869745 6.815834071827319 6.790396075759542 4.1551812288756125 4.079526521926303 4.069629662439217 6.917277154451261 4.0791117423294025 4.0737720007819425 4.141715081804677 6.797476800088727 5.432891221196814 5.5367913271697615 5.44569372091271 6.785047602010042 6.919054157566401 6.799267993032182 9.48809965196697 6.9099148166062845 4.082238962184977 9.493648966363391 4.155271825471778 6.807506825656923 1.3583169493524474 9.677135453254158 4.076487715616382 2.703118632997484 8.295779680344424 5.439737267596175 6.7799840163520955 9.674859623097483 4.079265647390358 4.064669771680497 9.664062255275022 6.8070243714942125 8.1391971079389 8.295539544788324 5.449113469536625 9.499300884133781 9.666009536329943 6.807391123979892 -0.0019571047822151333 2.7565837230378976 8.16029629111805 2.7155773022580547 -0.006498941368270443 8.159175294681164 4.073762177054647 1.3843400029569042 9.532264946834783 5.423888320893574 2.7569384687457723 8.175978234456636 8.139634809566154 -0.008385097008910571 8.176072105628567 9.498090382625985 1.3881057650866546 9.523206378743538 1.3612389624600825 4.1471257724937125 9.532531278997004 2.7133396754853045 5.536604676351157 8.16241821621377 6.775343942493091 4.151518070119832 9.532878384028093 4.075385275108832 6.908971738785966 9.520453552050427 8.131047780385067 5.526651057550811 8.16342460249888 9.495058125467596 6.8993204724812545 9.537251034199624 -0.005360480527305364 8.288214318802018 8.174534146544271 1.3559243259934872 9.667187292080087 9.53318510262475 5.424924178360569 8.282852746749459 8.16024608095632 6.7794491689771466 9.678564259812953 9.538384037414314
0.009919974052323643 0.0047025520276629896 0.005805377381401631 -0.009101854353704473 2.7471652268195763 2.7620102814575875 2.7489334561948584 -0.00616425922252924 2.754089791948689 2.736611482707389 2.7341603960903256 0.008788787215699537 1.3752810299041214 1.3694331102983917 1.3873957464012743 5.4813954357908505 0.008656797237655644 -0.0067696677995074265 5.497264776291533 2.7357715464834733 2.763526529965695 6.8615633673613905 1.3750235949056226 1.3901948065968166 8.221396115703053 -0.007807043577356534 2.7560532792253745 8.227266942660343 2.7464049209129926 0.009048403866728021 -0.0020758423819630407 5.47489629290502 -0.0031328530325790086 2.7464027392604633 5.476511806603226 2.7673367861087304 1.3809696888751868 6.84508861828373 1.3792516375080863 4.116348537903322 4.101079151848294 1.376434033266042 5.4859256372686716 5.472560833872028 -0.005590484607230996 6.867967608362181 6.857812015836655 1.3726575927372158 9.594001348779557 4.112574279027026 1.3807340704019844 8.239178765472237 5.479813737706853 2.75911522855074 0.009781439116690797 8.227352027109 2.7547704675379396 2.739407270424137 8.225605614259013 0.001289356645023812 4.109631229764527 9.582247695776061 1.38076243188487 5.497124059703371 8.210308957547365 2.7530142372515707 8.223876654629265 8.217629492610609 -0.006723853096384753 9.598747533857813 9.59023581651338 1.3790007474671766 0.0007112187246662652 -0.0035571844495961517 5.529759399894422 2.742527033541538 2.7350614185850715 5.528175520157895 1.3792832714697663 1.3785687802663056 6.911974812364039 4.11258409646341 1.368324830813329 4.139634406178554 5.492137892846853 -0.009249115899455923 5.5274926629161145 6.859586790169527 1.3723172549425904 6.898822720089036 9.61295227347837 1.3772019749564792 4.1398067567283965 8.228436308416235 2.7318652976291324 5.519781612050061 1.3736404272018237 4.114373051537723 4.150656114758351 -0.005055979737466471 5.470467538269828 5.5216240176113525 1.3688822430346548 6.852955657305652 6.901934847422584 6.852609865379702 4.115420244751956 4.1397096731908265 4.12221391072929 6.848598897203939 4.142786894083899 4.123777064766784 4.118514918865266 6.901519242615685 5.478818904153333 5.4842064950753056 5.534449952833171 6.852208441314247 6.85337562541761 6.898808539347594 9.609441994558162 6.856529204149221 4.1456306781563 9.606586211396849 4.1176226229806385 6.915364009568852 1.3776197614159074 9.591853511864114 4.139412968446794 2.744902853146328 8.222236051926968 5.52347951308782 6.864898023252962 9.59037871475407 4.137396030683132 4.110935857977258 9.59698366778759 6.913363434199161 8.230004916585056 8.225750694152236 5.530552430588949 9.6121450620424 9.594212969074933 6.906799932563707 -0.00246417653224094 2.7339575024050684 8.280116384364877 2.7488745515765576 -0.0014562530635421225 8.286023208588908 4.116074740510851 1.3733906279871788 9.672229954361523 5.481121638398379 2.7423088682885726 8.286086476512267 8.238392279735299 -0.005338503740056291 8.291664962030586 9.598896977056093 1.3692629414010788 9.661654393724037 1.3651330731624491 4.1071768706686695 9.67023810560195 2.7435175037899997 5.477810980684634 8.290460689834218 6.862429483415662 4.1030546382138935 9.680237709971607 4.117180838343384 6.85759166893116 9.672451392093281 8.230612506814563 5.472575014613471 8.285486522066613 9.605271765747734 6.852952384826858 9.67070607006956 0.00803393544044025 8.223395600246478 8.279405165640211 1.3652956062759083 9.591145565618243 9.666629652317908 5.493022552947626 8.225411447183875 8.29717472549422 6.8550816776957975 9.588991183745213 9.679405409531544
-0.002721750505216186 -0.0011558574010343981 0.008885584507664242 0.0073052847436421405 2.732442463226905 2.737957997536539 2.7917934689505848 -0.0008034483372482634 2.7330198378251205 2.790627637708123 2.736261336289191 -0.00897756548972163 1.3925832027120204 1.366448413557088 1.3648625727700505 5.576656226313376 -0.006509593838615584 -0.008881151689251838 5.573223008452969 2.747981708171588 2.737467062897365 6.972827795530238 1.3739021977175458 1.3649988819362322 8.357772143913083 -0.008983106512737135 2.7220763173694977 8.358751796782224 2.742997003866839 9.19809820573874e-05 -0.007846088589955454 5.478483705138463 -0.0051343119261671784 2.7880699014841652 5.477361093875522 2.737792875050677 1.4020683259099622 6.844498810695739 1.3745671204794065 4.1898401203558935 4.1134925806344524 1.370953265268694 5.57312327003869 5.476908946397456 0.005375900529643207 6.981267881787455 6.85451254748936 1.3730754770836324 9.770807262575332 4.1054248511238765 1.3655662826930197 8.375075650585902 5.469367614073353 2.734265459799006 0.005526616355664951 8.21271037777636 2.721170914208764 2.787450415111032 8.221906259572894 0.00553659019709286 4.176925103911354 9.58147493895393 1.355917145213819 5.586840626615874 8.22088671133804 2.7231368691746654 8.369706399283878 8.222163363040812 -0.004696571107942262 9.757822429240797 9.578150325144627 1.3711893128491546 -0.0033002333080349353 -0.00035462547299233693 5.453386195492033 2.7865062247891896 2.7361881947853868 5.4567141339151455 1.3962336286746353 1.3653645894552553 6.832447085637015 4.191526807761813 1.370262853800962 4.09631319287718 5.583948212601781 0.0010128990072343625 5.458786476522945 6.977014592520753 1.3717666874473702 6.831773297238329 9.757454505312568 1.3635016975174423 4.093673449512593 8.362709195419898 2.7308810029411354 5.454170804351029 1.4031344187381456 4.114503263232481 4.102866006695317 -0.009879644036645888 5.473211975841512 5.46296219146743 1.3991349083255535 6.856405360951457 6.824881372811643 6.981764357449644 4.102942472812931 4.0895309807062015 4.184416567028317 6.8562136415551205 4.1008967271156065 4.186738255671814 4.100764850767837 6.833904374690092 5.576206295244517 5.479587476923152 5.463266947733283 6.969158530089369 6.847826749118852 6.832582286598593 9.755381054500166 6.855668404890394 4.098591661541156 9.770109093675378 4.104225773743321 6.826834029322308 1.3927161872643925 9.586850839483573 4.08837955612358 2.799001231689154 8.22414594107576 5.464819542382227 6.980266064826251 9.57711858665914 4.100698358491651 4.190055112048895 9.585240618195268 6.831582686046596 8.359939792116748 8.20792182568636 5.450083745774792 9.753087070971747 9.577228298914847 6.826149158877592 0.0006305684191644991 2.7306693358619434 8.19301536557005 2.786815413873455 0.00015182403062484424 8.194292017272822 4.193714403648334 1.3760997674454953 9.551083535918487 5.584050167425266 2.735355933128458 8.180261038792958 8.366361837791718 0.004366326136218148 8.196807641721861 9.771640632436865 1.364186567962159 9.562017082532682 1.3935916689008423 4.1004357140007155 9.560201843392802 2.786561635019345 5.483366454619726 8.189388211904099 6.964163851943194 4.109097441178554 9.560075508068048 4.181376761802011 6.838957787680233 9.56013313470741 8.367440120870535 5.482228328492341 8.19293003381561 9.76098192056424 6.838643057572953 9.554729529062689 0.0020756672216082723 8.213352028241557 8.182754499149937 1.3856890618761286 9.591639391573574 9.55768178612535 5.569053942736103 8.21023797330684 8.188066123812598 6.980002312130713 9.57937710764026 9.547924044595046
-0.006400142605969646 -0.007049257634705987 0.00027631247844857814 0.0070635118498640495 2.78273200567474 2.7141856779357996 2.722692154950895 0.0017390142492835117 2.726394961457724 2.722297422838826 2.766784828347136 0.004653453010062562 1.3556723516034945 1.3897783025643797 1.3638520781480439 5.427119177893868 -0.004920993663798487 0.005778439529460345 5.428413022038985 2.7680578394085598 2.7086210516337106 6.791610502767846 1.3866928132217038 1.3669682688772138 8.142241248117744 -0.009537166418832272 2.7155211882483012 8.142916678620619 2.78215854763415 0.0029407542349170106 0.000688588239943282 5.555079267367787 0.0025317679076895514 2.725148265870438 5.551869876001045 2.724350029821587 1.3543971475858925 6.949977026130088 1.34976781709379 4.080826099864378 4.158625606197078 1.3588959971853947 5.4293143270282105 5.544593647401899 0.00810735899066979 6.7852059742495205 6.942235890821172 1.3582721011527072 9.507289583860976 4.172653946868789 1.3557096318585233 8.14415460238319 5.54561885441519 2.726528731784592 0.00633764335489199 8.339271781857184 2.724853313264475 2.7204553396491686 8.331098634181169 -0.006109575912363005 4.077782276689088 9.719708091102587 1.3688081591106929 5.440915065210693 8.327387055849627 2.7262831206926377 8.156449411196064 8.331895773751931 4.385912356326637e-05 9.498182236853063 9.723829752239446 1.355661386822604 -0.009771812729895748 -0.003042726697201605 5.429448097355078 2.7165705177795525 2.7794809481406126 5.436553275372328 1.366743490868952 1.389176336093474 6.786026139860154 4.067523627687639 1.3976334715945604 4.08515718831625 5.436630028838563 0.007595303723068654 5.432386658633816 6.794290295217563 1.3972584760880946 6.79306223975779 9.511933168568236 1.3881971811599239 4.068369012294321 8.15203608688751 2.7700830344390934 5.43749186061658 1.3664748537371272 4.164527947750605 4.077602454282478 -0.0052378758315430865 5.561688837288771 5.431349390361545 1.348817170590556 6.937095601539558 6.7963385162879675 6.788075457408648 4.1727581122872515 4.077805302728958 4.06980320563484 6.936705255339844 4.07711013562048 4.074313020015233 4.175320581581436 6.786175260880269 5.4270270737343855 5.544257028628551 5.428993058948109 6.7900118377139655 6.9405527969544325 6.799464575319938 9.507876199638634 6.949114097873982 4.085333721288593 9.504822508160542 4.16012778117912 6.786379205804837 1.3674737452762804 9.71698334305122 4.084933506786078 2.71180960991676 8.32554387618188 5.42616085604401 6.790829810368421 9.725766132544763 4.070572933253375 4.066613550873702 9.716855055114797 6.795473395075682 8.143621714031898 8.330848637176858 5.434976539880227 9.506014379843373 9.71712478872471 6.800029261535815 -0.005822298653023611 2.776453572136658 8.162905474184576 2.7170551610949265 -0.0016238840499299375 8.152896822187438 4.067907395018818 1.3968286566771748 9.507499011175991 5.436070825013131 2.7863547692810653 8.149155638947493 8.142176555910488 0.005499934094833603 8.16187588125893 9.502437668316789 1.3829110602924612 9.518390328034839 1.3513708680600272 4.161467677403977 9.519766408036636 2.7102054624724334 5.560500255040206 8.157280541587587 6.787329852308071 4.173729591874178 9.507028622075774 4.068384362987569 6.945049453597756 9.507383880976636 8.144043858096193 5.563071496159103 8.157101815659066 9.501382856395093 6.9405560863887 9.513383809080093 0.006919873220194352 8.3308343829617 8.157019579802386 1.3573115863466718 9.716042564850788 9.513410124554229 5.430909702647823 8.32488818228461 8.153688479367757 6.800258425456434 9.724108257674072 9.518396906903373