-0.10941226658725674 0.03087792052577908 -0.053333164205501694 -0.13384880236306626 -0.12104573706112702 0.04904944922848326 0.1654620583929731 0.0986740542341462 -0.1163035943904513 0.12783782028229598 -0.06317766109974926 0.1406408855842352 0.06610691893140228 0.1214619986629392 0.022992861350747497 -0.025550851885910834 0.101882790979431 0.03562777650593864 -0.15099548934568188 0.1184077852176477 -0.057455928124623634 0.09918236132913243 -0.13687036279820944 -0.014923968299683975 -0.024268385629061428 0.008069150161379652 -0.07842276018427785 0.07480367537445182 -0.08386809956956523 -0.010769579811678228 0.11318304648359861 -0.0009050283127726349 -0.03418255941897984 0.05161592440407885 0.011867955082179561 0.08687397627542458 -0.04398900398644037 -0.00016557904358681163 -0.157975777318257 -0.033154632375097734 -0.17250739527552872 0.01480595466458095 -0.022540347194361182 0.09656240720778209 0.05236360120338078 -0.11937554844755568 0.15963799551202829 0.008029812283011977 -0.0060965998160411134 0.0022944524611315325 0.00888444697382341 0.09951969006389312 -0.053330078881708154 0.010994037117658485 -0.05818817830495786 -0.026793723154076434 0.07733312666452488 -0.03921446541593246 -0.04107542988407119 0.13488778515054187 -0.03636491178227931 0.08439414727636432 0.021292076609556877 0.10851263759112278 -0.13300110965079032 -0.13162017014286365 -0.048914980533148016 -0.07532098133050254 -0.0799358543946946 0.012408915187314112 0.017276784802576696 0.043749377171808525 -0.08728149612648839 0.0009690487814886537 -0.006112540655641086 -0.026195427448445212 -0.13420515726122048 -0.0325805050391826 0.12491499020854616 0.052806602278070346 -0.08652276358359293 -0.12251897917254383 0.055680838502071846 -0.02369940049946886 0.1112907145568922 0.014681770381890844 -0.0032629870219879286 -0.13430234496071708 0.04569210272047615 -0.007445657644767822 0.14557920342611702 0.07538397335795405 -0.060472346353444235 -0.015104716851922374 0.1187019194192988 -0.059608455691252185 0.0688500288941782 -0.029122628397569197 0.010577775515846299 -0.05293670009803141 0.013646130028524885 -0.054524613410441576 0.06913079335939062 0.018384673154774787 -0.045494384887373264 0.05746466987537199 -0.03107563835888196 0.12224567090649917 -0.11216977472773584 0.06749248642501925 0.12491858975297195 0.13447615153442002 0.03782838370168324 0.005119580614752473 -0.04567230522613425 -0.04554529272996672 0.06204791837068023 -0.019306670748411914 0.0461261049341012 -0.09080699278124361 0.03782221305409615 -0.0030033056026980537 0.004071341855896214 -0.009105561845693997 -0.07512737726245772 0.011727058628941094 -0.10972157029755941 -0.1063372272063588 0.10055507330694294 0.12059348001505685 -0.08113167447500867 -0.01880710540417406 0.016510596060513503 0.0015480612134102373 0.14642895302092201 0.038276784093011496 -0.17718680302906906 0.015481640575366887 -0.10708850355008653 -0.010613770960104301 -0.022476840946277422 0.09633820701211797 0.005021364473991353 0.019063701499670394 -0.07948308312799214 0.06215179093839619 -0.017862739213033753 0.06669030223869805 0.16275725786730033 0.06458482585992104 -0.11551349438898816 -0.10432302498980744 -0.04017785777046629 -0.014878973994361474 -0.04413015754999496 -0.12005251990992227 0.041348223929483625 -0.0053172984478553585 0.055870328805058614 -0.04869129455811615 -0.0007936995458889556 0.09918981752830013 -0.10044245898847863 0.12993969711664718 -0.013587765986763697 0.02225032675776813 -0.020222240584145817 0.0786454177180452 0.04209667205973395 0.0744527197929363 -0.09025317716030262 0.09281630990178853 -0.10304595804959674 -0.09652795442542085 -0.039380558680151535 -0.07423211914169796 -0.01690963127114507 -0.051991562575942715 0.05738727967021729 0.16569191501559208 -0.031619940898126184 0.10410422411078199 -0.051236686687789176 -0.03655851585032413 -0.04318116337316434 -0.0635484141756067 -0.094460787483747 0.061697477009796976 -0.035242368142061886 0.10125621313902562 -0.061205367864726856 -0.0016079679170681984
-0.7540695902021594 0.48909324106193186 -0.24668500703020746 -0.7553026912783121 -0.07276401923660372 0.04584662602046943 -0.09369228474883863 0.7479935592114086 0.161560923566354 0.05458014923872535 0.07279461536422302 -0.36312975498421335 -0.10627320673764278 0.048115367449988095 -0.07504304507876754 0.1231995501793362 0.6745075742071158 -0.48862632872784234 0.06751048414714825 0.002771906318182323 0.11352423187310126 -0.03893010140629424 -0.02283936649201873 -0.1456884753104717 0.020599935638538715 0.7418445088908772 0.1546811657273852 0.12701146772625868 0.028990216584762973 -0.3252026409211367 -0.8205374920174062 -0.05894331130342752 -0.4274045058028832 0.11484989266306027 -0.008164795198979486 0.021217514617879588 -0.1388017754929674 0.09327910847082 -0.02886423252985997 -0.1602969692522659 -0.07004739163638904 -0.00033784295539296654 0.1152674398164531 0.051010172499279895 -0.5150048187213712 -0.05054608837866778 -0.09331099015001994 0.04285051950662297 0.7728489276921916 0.064832680204669 -0.13701048792049955 -0.06356924011121311 -0.079400807826831 0.06950591731062224 -0.8936267558039125 -0.19168653930714083 -0.04889338326659321 -0.056703109118999125 -0.06375590220072246 -0.5065019234566824 0.10787731799996904 -0.6966267747036583 -0.13721051974644755 -0.028554928819557273 -0.10048591063190436 -0.028128382805099945 0.17281952719930882 0.08434298232345473 -0.40564731663144976 0.9295548371590895 -0.737345335468943 -0.3278143675123709 -0.9120163140546939 0.6446532098498446 0.1246915613438304 0.10468606475618099 -0.04476547714114871 0.021002570393596088 -0.18485434687665586 0.11628276845484489 0.040459650676943223 -0.11751355553815244 0.11406853441234548 -0.10424820588781401 0.13015901221630488 0.74225408562447 -0.023904060311107218 -0.16544997420811505 0.16360186525578277 0.20086794869609279 0.7321753612322294 0.15887052121838446 0.05706769154726946 0.20707741994091433 -0.08632581708143842 -0.10528667445465738 -0.179352186111504 0.034273576470889355 -0.021059905994092763 -0.8842034056074836 -0.07638233271548135 -0.12043150051589582 -0.07736963632941514 0.0537594531096429 0.12721509909663253 -0.0531794122364568 0.1543160690784826 -0.08555705723621396 0.002985050770252924 -0.11406930574329387 0.02373436750246235 0.03681794015929788 0.07994253926291393 -0.10822415981642652 0.028158978932719247 -0.061862798943067655 -0.054582977452202766 0.0035969733226389666 -0.14394732424964887 -0.001637021382790729 0.9080809835560296 0.07959569744645646 0.027333140597314218 0.8389918420678519 0.017523610706060143 0.03656340094633057 0.09745329445316765 -0.6756149483386816 0.0511199586042668 -0.02137023814565997 0.0029475126640981495 -0.12677364068383973 0.14510226378969848 -0.6909361520767843 -0.016940484509080502 -0.14585096903026495 -0.7079697105203033 0.1440787076211906 0.045971324523791796 -0.06045691973447653 -0.07252310687039124 0.9603656518923589 -0.6957461718709179 -0.146312996268348 -0.6826176049087599 0.05881604169694387 -0.002336618552976621 0.08343461157657243 0.6749665161214053 -0.0323151671929379 -0.033936247736128654 0.041843161288031165 0.4799758521416959 0.22903798337240555 -0.15772123810528965 -0.06415262341850886 0.06692684372953635 0.8388260059139488 0.09911139888188092 0.6660136778034917 0.01812910550054297 0.30449446183950785 -0.16655092058177767 -0.03776539167423173 0.34600517948878473 -0.028523304250673457 0.02081050898744803 0.1175220401785847 -0.08324692104579856 0.08791424461448084 0.3655033974227125 -0.013190787658661154 -0.005134493013087931 0.42389366443614734 0.03571802222689978 0.054022476963042444 0.026870342028282757 0.7551538244052737 -0.10485550045450975 0.47565434194820666 -0.6325101467294075 0.020157448784481412 0.029147053877601414 -0.23070431533123495 -0.7490551677067036 0.497431328613982 -0.020496834401771153 -0.04708332664104794 0.09956494147953175 -0.09018658558842532 -0.6220874087341868 0.5649826933013947
0.7106110047978922 0.727889846482998 -0.031211392605797864 0.8751533795900734 0.019419027956560104 -0.018533282917497115 -0.01389681258675026 0.4748616708435823 0.15197996474613826 0.0012138178024430706 0.04734300806033782 0.0061061128977378705 -0.02084341910791249 0.07153014682950262 0.018208552588226703 -0.1300363705955115 0.6060771493488595 -0.14319167703054697 0.007409147979877562 -0.12785916043853465 0.03168447558747447 0.11729372621786252 0.10410679521394328 0.07616764560151398 -0.08539430640610454 0.6215330788926134 -0.10235355996826243 -0.08973381432172288 -0.13546474069993444 -0.10109011987480655 0.7424821424748761 -0.14102449417589907 -0.05515916167064694 0.16847333441547113 0.02489753457262809 -0.05427521640379685 0.006708779478743284 -0.10477219671208407 -0.07906219354048964 -0.08543415850510448 0.14488294869004079 -0.06926037695871944 -0.07030527328346602 -0.1128932831573217 -0.10955624836428873 0.10950636896295979 0.05110350354403456 -0.14149114939967244 -0.6636618897418635 0.17342785020726906 -0.10320305245275128 -0.05638506365794805 -0.05123025892988597 0.15388155264422532 0.7498961755507602 0.07692020749682237 0.023298051295992134 0.0952395746313005 0.07123575551753537 0.06504299644326218 -0.09101268103414649 -0.5719007605774666 -0.18880536110460389 -0.030778418833437314 -0.07159982372517347 0.2025193682565867 -0.1912913607512512 -0.02327311159532766 0.012064901584334061 -0.7765099214835466 -0.6286110687853175 0.05965293577594243 0.7779795640505375 0.5549942146301151 -0.011859470441747318 -0.02336130043375977 -0.014044651018524198 -0.009288367280461424 0.047752841904246786 0.072516679112488 0.004463435087992313 -0.04293947967600347 0.05064841828448697 -0.11841447008586702 0.07888710141520608 0.5822895600109584 0.0640574926015413 -0.1179969229324742 -0.12302574360563327 0.04170097928321206 -0.7554713556456925 -0.009716198846499397 -0.055147334596105026 0.07364050830428608 0.11942568495920078 0.0947063278356498 -0.00454596749946959 -0.10805086746335583 -0.05857821465452492 0.6420772215925523 0.024485643846190088 0.10384454269149211 -0.011081711735458334 -0.14630142630412224 0.08741030839486882 0.012087270181837247 0.12608869880167317 -0.05544738233502709 0.028714337215557 0.030146955897025502 -0.04294179366884862 0.038040242602173195 0.011132105357419538 0.10940609593966963 0.02470444472521552 -0.0027189415930598333 0.02674924306938619 0.08679350074647633 -0.027356794746398048 -0.05789481543425513 -0.7767086677579139 -0.1458234582264392 -0.04681387502974518 -0.7515920751959443 0.048885155736477094 -0.1444638588747512 0.12733311273173553 -0.46447338563072266 -0.08015465527372001 0.08968239225849715 -0.010840799369245846 -0.11221811146716802 -0.04015446073169859 -0.689638002090651 0.0697098057913122 0.07596941354777885 -0.5502798398735813 -0.05617191920587746 -0.19703494810324776 0.002575216926343952 -0.05613206710687752 -0.7028383028310089 -0.6569369123132041 0.04868898056527098 0.8678771576436344 0.053701346178197835 -0.07608717007256573 0.0324303526145635 0.6294225089430192 0.09955157174309306 0.09164362974992604 -0.11185250059763317 0.018141189685401016 0.01913517816755414 0.10761377992593725 0.051942197395246026 -0.18707012358105204 0.6240460751224542 0.07377163456551167 -0.8125174499264072 -0.007195232196858576 0.2045901347426864 -0.0474687350049247 0.08519735990395004 0.13296459998590004 0.02420410805002928 -0.018260231761768553 -0.11496404964342137 -0.032696718902072715 0.06956710956586083 -0.005452795584455125 0.14482664153080865 0.021935109510194478 0.0590276434871177 -0.14556583368967832 -0.06569554242559654 0.07291211477869379 -0.7154397936451034 -0.09375347700407725 0.013126252969312878 0.7394173875066234 0.05942950691122668 0.04414738394117559 0.11071787277255772 -0.6752429097112436 -0.0570149839324631 -0.15331770972095532 -0.09693496005585242 0.1023892983022043 0.10518408743852208 -0.5025581083175861 0.03233059381190561
-0.5557830290799977 0.13507907522574156 0.17124292674080832 -0.5706663739497332 0.018696033747606512 0.09061030338940525 0.012951160844029308 0.30188993433712524 0.06007279692218041 -0.04376069002571819 -0.14240954744888376 0.22514044809021228 0.08454070015655762 0.08435069563293861 -0.03651712108942743 -0.07431439444285912 0.17056826927128688 0.09207300397786078 -0.04296904736235825 -0.032245490297267046 -0.015495010311805571 -0.035369637748545533 0.0424478847515656 0.16362423385328592 0.2284396876667743 0.20436876276049964 -0.08400925313311983 0.018977312433451188 0.025978169231316548 0.05178793120556888 -0.31029204235789143 -0.10530235818394124 0.2929244976137213 0.011888781017785977 0.05791358448733251 -0.025982797217006862 -0.15844448942455938 -0.013813251734008467 0.1161866091966128 0.06660417028279497 0.00771022416006414 0.07850529259575512 0.02199141666942664 -0.15304722966838805 0.19394191100022085 -0.00040469163758639974 0.07424857420193019 0.13056910317052997 0.4624159888810617 0.13617179406928806 0.12014765072688986 0.17696568815719846 -0.06971160556352511 -0.15986708080369885 -0.4309366873258579 -0.10840773658214234 -0.04584122670383073 0.15058951215651484 -0.11725695944265611 0.23559223955115557 -0.04217766180931446 -0.16133543781910922 -0.11647174453719941 0.07176308877591511 -0.18267559405778216 0.051826497752988164 0.0736839599477118 -0.09905046373695844 0.0950912219788943 0.4487701159628529 -0.04883373367325138 0.08148597249063386 -0.42655989841440084 0.15216945504912502 0.11012934725893937 0.13889407809645757 -0.07468154797429073 0.1245864032245338 -0.1664107954594876 -0.0178820224867434 -0.09190793915490622 0.01858316231882606 0.04601580460848204 0.0314078248873201 -0.06490184287970757 0.22040421895680748 0.04119190085727745 0.048162418637839634 0.11804114590684832 -0.17657179515288945 0.5153866275408221 -0.06828644308122434 -0.1913965188705478 -0.04395583675565978 0.04202288139900505 0.20222292006209042 -0.08426173546355811 -0.0017807460495066106 -0.17544899440235592 -0.5356402355835355 0.07693820521895135 0.10503007835916105 -0.07148900917892205 -0.0980680452190311 0.052563118808696574 -0.09641122634189848 -0.08274786992219296 0.026133978082890474 -0.10117265228628383 0.10263895241916517 -0.0035499221347874347 0.029057836597904795 -0.09520949272431346 -0.09374782057712241 0.0242573298854679 -0.08490862501893763 -0.004941917386307618 -0.039088995581661706 0.11617375368080637 0.14090108122415734 0.5230688266764282 0.09493875556143004 0.009129215994777826 0.5111191105137197 -0.086760847736328 0.011641698003986402 -0.10926365682453439 -0.21457372831795948 0.0915973498930229 0.1303598153732013 0.05891271517580821 -0.03256893507495681 -0.033429997523671456 -0.16837537538502614 0.1109562140356089 -0.018526083828645516 -0.23135197621756284 -0.13461062022975526 0.021573355295401556 -0.09887228628788132 -0.100763075552691 0.6840481667076993 -0.19272706475651324 0.048739888407864446 -0.46221004351784273 -0.053184811553095505 -0.10847921325002609 0.047126778284473675 0.23629929292050916 -0.007301418757419683 -0.004811562456030424 -0.00040623429948317134 -0.15752069205870936 -0.1386246264851548 -0.11151594319382084 -0.13259230424814583 -0.01572898069948259 0.11757423357275881 0.030149012779554528 0.5461709599115304 0.08689968730703744 -0.15757159990130282 -0.09310838722091061 0.10998048038590091 -0.15754768864190288 -0.07682584801080317 0.11027564302881654 0.015052523457748268 0.16399318715693048 0.10530467217678638 -0.05099808831442185 -0.09839483243083054 0.08404447724642945 -0.3079016877488439 0.05913537270957557 0.0868094415860763 0.0021700110681252952 0.30003771161973486 0.019102010936773554 -0.2640988316312806 -0.5958642133715996 -0.025916976976077945 -0.19679763528146108 -0.08541538945202709 -0.051365241845853477 -0.13847833071527765 -0.04641072605405556 -0.1933094196225445 -0.12177490191766768 0.08306848648640533 -0.05795446502759696 -0.11367104186361068
-0.31518896543887653 0.2276267048471757 -0.7322640642912936 -0.4543080150619466 0.06592745593074453 0.028272621692448086 0.05465599678198328 0.24064265749086944 -0.17703639349413383 0.00517665910493302 -0.08231052527445824 -0.7178342620192089 0.03723394465079394 0.014369381347794608 -0.19985621960212677 0.1666303676694614 0.4965682092827383 -0.904574513064668 -0.048577137577755045 0.17759715109361027 0.012185486322598369 0.07055929827580107 -0.13160217242073463 -0.0081514254625408 -0.08958340478678765 0.3689268212819647 -0.03848761455223695 0.059038956341027356 -0.006039264215544438 -0.9082270222155907 -0.5450083070619969 -0.055245293626550014 -0.7169549447380492 0.07310854706021602 0.0933906943480198 -0.09481045751368188 -0.08206961290824576 0.11385513284995875 0.07227936629070134 -0.03920315256202281 -0.12784913313620563 0.0718502491730827 0.040162945372130825 0.16302233860322893 -0.6972507814409025 -0.012023506823437358 0.040740929362787906 -0.3162564874714424 0.5152817265318417 0.09703111931408451 -0.07727836216718949 0.11012291950103614 -0.1289192262719328 0.01948741930065031 -0.36450838049929485 -0.14367555864550094 -0.17838390866096376 0.011020776590535858 -0.039475175276486855 -0.6892927029360904 -0.17069091089208024 -0.43021960665417514 0.11167997957551089 -0.11266136965217372 0.058496710684312156 0.020456725192455092 0.10514346400857376 -0.17316585479513402 -0.6946763358455068 0.48871786000038414 -0.3573468297538491 -0.08878841968931807 -0.4709433096257825 0.37776473128856874 -0.02818314730243533 -0.15646036911499506 -0.07634967970533302 0.010760580950613727 0.0685540949203142 0.08785150969734548 -0.038679675958385 0.010357689085240226 0.19916510707237312 -0.06540783598184864 0.12285270836287873 0.11709343728159835 0.03058430054476023 -0.023015229948250688 0.07875623226429662 0.057463127213475226 0.47424640585708644 -0.10044297320911087 0.0413965606689158 -0.034611676536598454 0.15422788024005052 0.03605303696881532 -0.11254926955434164 0.05020850253359095 0.117176741024024 -0.32741713207395223 -0.0915011906347908 0.05228389700538092 -0.2547130195410065 0.14173386153809783 -0.14959398101246493 -0.04997273237370103 -0.13173458423354087 0.03495877546337205 -0.03864702294823667 -0.07178777136626346 0.03268103517278888 0.02003017917799776 0.08570618121956852 0.14523570404376923 -0.05521444038861459 -0.05351956918469493 -0.0702178557759823 0.025025318399744 -0.09427798204897957 0.08481349420197007 0.48970027851831144 0.0892044241808141 0.016011030716275652 0.4801044072997602 -0.11076672373262214 -0.040426997666794896 -0.13721334795992499 -0.3518958339416069 0.06341960190722626 0.06367568378209033 -0.1072067742955057 0.03985209899993136 0.024446305967822414 -0.2494836528212671 0.0684993304229788 0.04840101701120697 -0.28147331835398626 -0.07480496092603246 0.03586148978329953 -0.010035015638498845 -0.1034910160068153 0.4318525142719079 -0.27453905312799814 0.05686868816258593 -0.39478260600280396 0.1726961142475671 0.13808598037286543 -0.05487942564669903 0.38657435916039873 0.24671097517213636 -0.157218073216626 -0.08799060637837104 0.7531378224165094 0.08803328669084838 0.08104374274689269 -0.04100318188523906 0.08947927510875557 0.38666460488135984 0.0024240360604603417 0.3254841767172975 0.04757517867580193 0.7902516965496713 -0.08815232876721593 -0.03863545298401088 0.5944436788749892 0.09997477532344073 -0.23456534094853798 0.1391910405115861 0.07378243319878906 -0.09272092197450484 0.6897367324520444 -0.04313925439163538 -0.031114462016617384 0.8112637800249641 0.06802907565477961 0.0640171262819091 0.1477319881030617 0.3697899406132083 0.09366245995216772 0.6849123144802075 -0.38257732218586366 -0.11539830896736254 0.06521885989949414 -0.09056916573882468 -0.19951426288167576 0.7229512715308001 0.08708969183065646 0.12367648981575476 0.1720528242366134 -0.12772520596383163 -0.4150151309995949 0.6695507444224726
0.3158032019841077 -0.18893828713804237 -0.19201975427684348 0.6720894516839264 0.017497899674447284 -0.02534387808142732 -0.01353917213701539 -0.1388657959616834 0.09611632080929898 0.04317036473988694 0.05097057751059608 -0.22893822456974766 -0.02165614481719496 -0.0009795903044499256 0.031073324366036804 0.042940251006951854 -0.24894166427486805 0.0611950834520817 -0.16427163762929772 0.06540192244457768 0.014860976272232469 -0.056969732516824474 -0.12310287670047185 -0.15341566875140028 0.156296332733305 -0.05335861812679842 0.09210874231180266 0.020496063070822766 -0.14522053453511763 -0.19506214064759309 0.5047833981036791 0.07731744293524104 -0.062184186838228385 0.06254157017764712 -0.00628660433966014 -0.04673391372142919 -0.039626356142370464 -0.0007800726991341405 -0.008775689310101016 0.020286518163177968 0.03174901027682274 0.08075989295788673 0.015014985351593497 0.1178737670910486 -0.03767720283579963 -0.0749448289380064 -0.23243492486909645 0.002178495708557538 -0.3920544084383635 0.0007996130831599132 -0.03515520774489429 -0.15049798088397306 0.1257380003304738 0.06949923244240289 0.43792366016665224 -0.07037186485534333 0.04303332494139041 0.013741003735176335 -0.04798295563718188 -0.18251361455862114 0.14560979955373632 0.25852699397045803 -0.059075466005917614 -0.06323885335498787 0.11735851801752692 0.07198497497873409 0.10010693002593082 0.09047506336312161 -0.08227350138893573 -0.4590110769645708 0.188725656906604 -0.08885578259214374 0.5975035487472354 -0.059574002908890956 -0.08017445276806193 0.09601116269000239 0.1041060238829949 -0.048007381117214094 -0.01989031116602381 -0.19025469195662073 -0.05113384256133774 0.09065555480504386 -0.07460467198976829 0.04948910786906316 -0.08243470955714836 -0.100369182548382 -0.07099381471005838 -0.008239871411289035 -0.1157063271260846 0.13509887272008347 -0.6593637765871417 -0.22272052579481 0.019442424995327806 0.02784993233273268 0.19690999248960925 0.02890382751854377 0.016279710996630028 -0.10760452395455662 -0.07199834471517277 0.5472886184557413 0.17037775052703558 0.059928043814200006 0.10416104549064643 -0.11283157668145086 -0.019360663914798914 0.07058526641773004 -0.0005702706811732115 0.0879587246991711 -0.04651768394556505 0.04320044664687399 -0.0026227823348277408 -0.16940124554637923 -0.1188584996018211 0.09854601329671415 0.11794884330335816 0.00373298467987099 -0.17908607693431094 0.07067036993236861 -0.011166301029464639 0.1613981727362446 -0.5176237444014569 0.0017018131824551336 -0.047061215153860886 -0.608499642747423 -0.1907969376133359 -0.15941533797826093 0.01983606088932068 0.2115303135059454 0.03647649765947911 0.04603148833776589 0.013352510047506037 -0.0027158562692662907 -0.10136317103053512 0.11365510102401072 0.05055483012941616 0.10732093127586678 0.06036281735877347 -0.05446599225836426 0.017045385518060965 -0.0033000109075104456 -0.074190210160169 -0.5922237884055349 0.14836267970852512 0.014818038849438995 0.5189776873261901 0.08402185153861014 0.11585802221260048 -0.06398215927891562 -0.11203196359829093 0.11701501863517912 -0.08357345114728187 -0.005638172122383838 0.048895697259438375 0.11568241586668465 -0.007663687192844865 0.02432829233271939 -0.19053108554645895 -0.16345479815495723 -0.047944903310394846 -0.42875279230066154 -0.005817120902409336 0.3033156110400582 0.09280371149629824 -0.06562792241245471 0.08868506134223436 0.0068386201883882235 0.07690915175322884 -0.00604260664965411 -0.07544799382667006 0.03396992918754149 -0.047582634874969665 -0.027952519348867992 -0.07173994884746354 0.09719901235051646 -0.09841797235928211 0.1422002596515551 0.0922079868938283 -0.5091051654074845 -0.01925833400897974 0.0008507780360695026 0.4053603815186503 -0.04061468819756876 0.10884713811240611 0.14157496736273037 0.2241017224130528 0.12925732633764192 -0.08855650618417006 0.0005617860407409679 -0.09140863092098452 0.046458548572855474 0.28597480576876555 0.020343339543042384
0.5100945259039472 -0.05088495977532527 -0.5812104680141668 0.5441313037736822 0.08230255485465825 -0.03510507123324922 0.029397736435826792 -0.03002765671034183 -0.07490549105963873 0.06588554694921556 0.030424120817812116 -0.41184650346362617 0.15329945488851016 0.02089998337746078 -0.0453347193810574 0.055037034270485855 0.01367981147993773 -0.5078003305531319 0.10506298847962552 -0.10296136875559041 -0.09626235946886003 -0.14667295071092806 -0.06300205475383343 -0.07358934335137648 0.024455047718570787 0.028232512483132022 0.09002434897894819 0.08066527636155141 -0.02040067514353906 -0.5653737580922262 0.6899087392535345 0.021070704627370165 -0.49365977738669176 0.1117260023220979 0.04367635784202801 -0.003526525096019733 -0.028922853681937286 -0.04399954550940164 -0.22401430490556903 -0.16580838598879832 -0.06885208577670723 -0.10472180309012287 0.10897980703552845 0.08716091138822409 -0.5317411576394455 -0.018635869933632424 -0.1330299060061967 -0.17100972768407968 -0.6181222534388516 -0.0525237809303289 -0.03764892070102548 -0.04653362478516502 0.09558564511680957 -0.0727737894286166 0.5094715476079678 -0.010608114533149473 0.13147336015235422 -0.05437343254455797 -0.10210133474814029 -0.6733415789234727 0.11638561258129633 0.135029967155361 0.04935952426973435 -0.12203869710201563 2.288281813544446e-05 0.07223720019885622 -0.041938034994682606 -0.09865759917391397 -0.5480347525931464 -0.5264786236889256 0.10882502662521905 -0.15728466478850334 0.5568155841095701 -0.11844660887538312 0.14689637957564378 0.08382439081582338 -0.011802134841250641 0.131504984721238 0.0156616177966569 -0.015166680438109365 -0.12598225513079594 -0.08258126243734165 -0.016797274062996876 -0.004365733167863449 0.023376212832095223 -0.08058094417786123 0.08447796523942226 -0.008698813325578567 -0.07363022389164094 -0.09633357902642764 -0.5846452047273286 -0.01845357871949725 -0.07782857824370466 0.05441457019513855 0.06927528935705489 0.09740290083120645 -0.08540716192191097 -0.07090356898909725 -0.045163226800199636 0.7071279313452983 0.1554219005481517 -0.008945639229062012 0.023449489272191874 -0.10899806186797359 -0.07448357303087172 -0.1356046087119084 0.09908054564394549 0.11126500352527934 0.0596544784378392 -0.04106077459605186 -0.08896171204238873 -0.07720997082309929 0.08525855215918866 -0.11965399891992295 0.05390497754857168 -0.08286819755014115 -0.011216694651425843 -0.005025221128733281 -0.03275096917877585 -0.0891943968784851 -0.4381296055298713 -0.13569511154318564 -0.09080210768523717 -0.748468441965298 -0.05814164133773858 0.03336417728274254 0.09897847284844244 0.020363137037384283 0.06735287552336143 -0.09994546474740205 0.0283402417055899 -0.04977887119534007 -0.1347486884695163 0.15446210773804364 -0.10870752721074825 -0.05490796489178931 0.13914733175784422 -0.031458475619597435 -0.025557536754130177 0.047584691757498694 0.22529265739736037 -0.5333910345380427 0.14167986837171084 -0.08751238119037186 0.6014062262357514 0.0442096046376787 0.07023559638779517 0.0898004058936002 -0.04290451267300998 0.08466334177735096 -0.07073593306298141 -0.09678506474154945 0.5439163595493988 -0.007216829463413377 0.060620441895534304 0.1931548963225512 0.03262447090324059 -0.10666221464594534 0.01920202684974758 -0.67766720288202 0.010891964322155435 0.6119703749048429 0.04563528134061173 0.10289709117655828 0.4758898549977804 -0.0028107299759177404 -0.12097631727577231 0.10120067731074184 0.03520174471211357 0.02296869298103141 0.4937590219687174 -0.02957077167858133 0.09141428734793934 0.5791407299693317 -0.07597481286441754 -0.1325074578438234 0.04500356129388378 -0.498545130503451 0.11552172191910427 0.5588015041913473 0.504123395922177 0.020734147223557837 0.18656593025112383 0.0910569040085206 -0.021683141400388465 0.5673627634977971 0.09905252061948747 0.01660701242906172 0.1635175330720926 -0.13424192403642687 0.07047522320242702 0.5845382468358191