An instance of this daemon is already running
An instance of this daemon is already running

     Program PWSCF v.7.1 starts on  8May2023 at 15:10:16 

     This program is part of the open-source Quantum ESPRESSO suite
     for quantum simulation of materials; please cite
         "P. Giannozzi et al., J. Phys.:Condens. Matter 21 395502 (2009);
         "P. Giannozzi et al., J. Phys.:Condens. Matter 29 465901 (2017);
         "P. Giannozzi et al., J. Chem. Phys. 152 154105 (2020);
          URL http://www.quantum-espresso.org", 
     in publications or presentations arising from this work. More details at
     http://www.quantum-espresso.org/quote

     Parallel version (MPI & OpenMP), running on       4 processor cores
     Number of MPI processes:                 4
     Threads/MPI process:                     1

     MPI processes distributed on     1 nodes
     618800 MiB available memory on the printing compute node when the environment starts
 
     Reading input from pw-si-26.in
Warning: card &CELL ignored
Warning: card / ignored

     Current dimensions of program PWSCF are:
     Max number of different atomic species (ntypx) = 10
     Max number of k-points (npk) =  40000
     Max angular momentum in pseudopotentials (lmaxx) =  4

     IMPORTANT: XC functional enforced from input :
     Exchange-correlation= PBE
                           (   1   4   3   4   0   0   0)
     Any further DFT definition will be discarded
     Please, verify this is what you really want


     gamma-point specific algorithms are used
 
     K-points division:     npool     =       2
     R & G space division:  proc/nbgrp/npool/nimage =       2
     Subspace diagonalization in iterative solution of the eigenvalue problem:
     a serial algorithm will be used

     Message from routine divide_et_impera:
     suboptimal parallelization: some nodes have no k-points
 
     Parallelization info
     --------------------
     sticks:   dense  smooth     PW     G-vecs:    dense   smooth      PW
     Min        2035    2035    539                97604    97604   13267
     Max        2036    2036    542                97605    97605   13270
     Sum        4071    4071   1081               195209   195209   26537
 
     Using Slab Decomposition
 


     bravais-lattice index     =            0
     lattice parameter (alat)  =      20.7500  a.u.
     unit-cell volume          =    8795.6158 (a.u.)^3
     number of atoms/cell      =           64
     number of atomic types    =            1
     number of electrons       =       256.00
     number of Kohn-Sham states=          128
     kinetic-energy cutoff     =      30.0000  Ry
     charge density cutoff     =     120.0000  Ry
     scf convergence threshold =      1.0E-06
     mixing beta               =       0.5000
     number of iterations used =            8  plain     mixing
     Exchange-correlation= PBE
                           (   1   4   3   4   0   0   0)

     GPU acceleration is ACTIVE.
     GPU-aware MPI enabled

     Message from routine print_cuda_info:
     High GPU oversubscription detected. Are you sure this is what you want?

     celldm(1)=  20.749967  celldm(2)=   0.000000  celldm(3)=   0.000000
     celldm(4)=   0.000000  celldm(5)=   0.000000  celldm(6)=   0.000000

     crystal axes: (cart. coord. in units of alat)
               a(1) = (   1.000000   0.000000   0.000000 )  
               a(2) = (   0.000000   0.990918   0.000000 )  
               a(3) = (   0.000000   0.000000   0.993519 )  

     reciprocal axes: (cart. coord. in units 2 pi/alat)
               b(1) = (  1.000000  0.000000  0.000000 )  
               b(2) = (  0.000000  1.009165  0.000000 )  
               b(3) = (  0.000000  0.000000  1.006523 )  


     PseudoPot. # 1 for Si read from file:
     /home/ppiaggi/pseudos/Si_ONCV_PBE_sr.upf
     MD5 check sum: 8553c464762ac42b85b1eed164b4d029
     Pseudo is Norm-conserving, Zval =  4.0
     Generated using ONCVPSP code by D. R. Hamann
     Using radial grid of 1510 points,  4 beta functions with: 
                l(1) =   0
                l(2) =   0
                l(3) =   1
                l(4) =   1

     atomic species   valence    mass     pseudopotential
        Si             4.00    28.08500     Si( 1.00)

     No symmetry found



   Cartesian axes

     site n.     atom                  positions (alat units)
         1           Si  tau(   1) = (   0.0007142   0.0004197  -0.0000318  )
         2           Si  tau(   2) = (  -0.0005073   0.2488842   0.2467890  )
         3           Si  tau(   3) = (   0.2509315   0.0007606   0.2469281  )
         4           Si  tau(   4) = (   0.2507833   0.2500672   0.0004011  )
         5           Si  tau(   5) = (   0.1259211   0.1253154   0.1226152  )
         6           Si  tau(   6) = (   0.5030228  -0.0000360   0.0000217  )
         7           Si  tau(   7) = (   0.5020326   0.2500119   0.2455638  )
         8           Si  tau(   8) = (   0.6283667   0.1245042   0.1232595  )
         9           Si  tau(   9) = (   0.7540549   0.0004596   0.2455942  )
        10           Si  tau(  10) = (   0.7534327   0.2487601  -0.0005918  )
        11           Si  tau(  11) = (  -0.0000343   0.4988652  -0.0001257  )
        12           Si  tau(  12) = (   0.2508599   0.4991678   0.2465871  )
        13           Si  tau(  13) = (   0.1251652   0.6243278   0.1238967  )
        14           Si  tau(  14) = (   0.3778340   0.3732553   0.1237831  )
        15           Si  tau(  15) = (   0.5025356   0.4995260  -0.0003247  )
        16           Si  tau(  16) = (   0.6291542   0.6239660   0.1233961  )
        17           Si  tau(  17) = (   0.8806729   0.3733782   0.1226926  )
        18           Si  tau(  18) = (   0.7537528   0.4981282   0.2455340  )
        19           Si  tau(  19) = (  -0.0002031   0.7490625   0.2463578  )
        20           Si  tau(  20) = (   0.2505135   0.7483527   0.0007086  )
        21           Si  tau(  21) = (   0.3775929   0.8726285   0.1224139  )
        22           Si  tau(  22) = (   0.5037145   0.7478988   0.2454381  )
        23           Si  tau(  23) = (   0.7541973   0.7487975  -0.0008354  )
        24           Si  tau(  24) = (   0.8805020   0.8731142   0.1223257  )
        25           Si  tau(  25) = (   0.0003334   0.0007117   0.4923193  )
        26           Si  tau(  26) = (   0.2505867   0.2492105   0.4917971  )
        27           Si  tau(  27) = (   0.1260497   0.1240715   0.6153107  )
        28           Si  tau(  28) = (   0.3767771   0.1249470   0.3689383  )
        29           Si  tau(  29) = (   0.5022791   0.0003890   0.4926711  )
        30           Si  tau(  30) = (   0.6291038   0.1250589   0.6158429  )
        31           Si  tau(  31) = (   0.8795394   0.1245439   0.3694407  )
        32           Si  tau(  32) = (   0.7542701   0.2490736   0.4927542  )
        33           Si  tau(  33) = (   0.1254499   0.3740301   0.3684601  )
        34           Si  tau(  34) = (   0.0000150   0.4982509   0.4922555  )
        35           Si  tau(  35) = (   0.1253713   0.6236280   0.6148647  )
        36           Si  tau(  36) = (   0.6290811   0.3748230   0.3692929  )
        37           Si  tau(  37) = (   0.3778908   0.6228462   0.3698090  )
        38           Si  tau(  38) = (   0.3764682   0.3741073   0.6161771  )
        39           Si  tau(  39) = (   0.5021691   0.4994620   0.4924067  )
        40           Si  tau(  40) = (   0.6280966   0.6233967   0.6157058  )
        41           Si  tau(  41) = (   0.8794432   0.6232957   0.3685874  )
        42           Si  tau(  42) = (   0.8794855   0.3744554   0.6159501  )
        43           Si  tau(  43) = (   0.1255032   0.8727786   0.3694368  )
        44           Si  tau(  44) = (   0.2511315   0.7490676   0.4918067  )
        45           Si  tau(  45) = (   0.6277316   0.8723839   0.3684330  )
        46           Si  tau(  46) = (   0.3765550   0.8734563   0.6152138  )
        47           Si  tau(  47) = (   0.7541348   0.7482362   0.4914533  )
        48           Si  tau(  48) = (   0.8794968   0.8730198   0.6155044  )
        49           Si  tau(  49) = (   0.0000412   0.2502911   0.7379599  )
        50           Si  tau(  50) = (   0.2518320  -0.0004795   0.7376766  )
        51           Si  tau(  51) = (   0.3771172   0.1250890   0.8618226  )
        52           Si  tau(  52) = (   0.5036907   0.2502722   0.7381233  )
        53           Si  tau(  53) = (   0.7551625   0.0003054   0.7377684  )
        54           Si  tau(  54) = (   0.8803414   0.1253913   0.8606998  )
        55           Si  tau(  55) = (   0.1264960   0.3742770   0.8616050  )
        56           Si  tau(  56) = (   0.2507425   0.4985451   0.7380343  )
        57           Si  tau(  57) = (   0.6284258   0.3732746   0.8614474  )
        58           Si  tau(  58) = (   0.3775003   0.6243521   0.8621769  )
        59           Si  tau(  59) = (   0.7549213   0.4983893   0.7388981  )
        60           Si  tau(  60) = (   0.8808005   0.6231744   0.8614831  )
        61           Si  tau(  61) = (  -0.0004704   0.7472822   0.7388692  )
        62           Si  tau(  62) = (   0.1248161   0.8729722   0.8615411  )
        63           Si  tau(  63) = (   0.5036822   0.7479095   0.7392905  )
        64           Si  tau(  64) = (   0.6291238   0.8719774   0.8619693  )

     number of k points=     1
                       cart. coord. in units 2pi/alat
        k(    1) = (   0.0000000   0.0000000   0.0000000), wk =   2.0000000

     Dense  grid:    97605 G-vectors     FFT dimensions: (  75,  72,  72)

     Estimated max dynamical RAM per process >     143.14 MB

     Estimated total dynamical RAM >     548.72 MB

     Initial potential from superposition of free atoms

     starting charge     255.9608, renormalised to     256.0000
     Starting wfcs are  256 randomized atomic wfcs

     total cpu time spent up to now is        5.3 secs

     Self-consistent Calculation

     iteration #  1     ecut=    30.00 Ry     beta= 0.50
     Davidson diagonalization with overlap
     ethr =  1.00E-02,  avg # of iterations =  2.0

     Threshold (ethr) on eigenvalues was too large:
     Diagonalizing with lowered threshold

     Davidson diagonalization with overlap
     ethr =  6.60E-04,  avg # of iterations =  2.0

     total cpu time spent up to now is        5.5 secs

     total energy              =    -503.93943122 Ry
     estimated scf accuracy    <       1.88637325 Ry

     iteration #  2     ecut=    30.00 Ry     beta= 0.50
     Davidson diagonalization with overlap
     ethr =  7.37E-04,  avg # of iterations =  1.0

     total cpu time spent up to now is        5.6 secs

     total energy              =    -503.91067490 Ry
     estimated scf accuracy    <       0.36936131 Ry

     iteration #  3     ecut=    30.00 Ry     beta= 0.50
     Davidson diagonalization with overlap
     ethr =  1.44E-04,  avg # of iterations =  2.0

     total cpu time spent up to now is        5.7 secs

     total energy              =    -503.93803620 Ry
     estimated scf accuracy    <       0.00613986 Ry

     iteration #  4     ecut=    30.00 Ry     beta= 0.50
     Davidson diagonalization with overlap
     ethr =  2.40E-06,  avg # of iterations =  7.0

     total cpu time spent up to now is        5.8 secs

     total energy              =    -503.94151000 Ry
     estimated scf accuracy    <       0.00044189 Ry

     iteration #  5     ecut=    30.00 Ry     beta= 0.50
     Davidson diagonalization with overlap
     ethr =  1.73E-07,  avg # of iterations =  5.0

     total cpu time spent up to now is        5.9 secs

     total energy              =    -503.94169132 Ry
     estimated scf accuracy    <       0.00006778 Ry

     iteration #  6     ecut=    30.00 Ry     beta= 0.50
     Davidson diagonalization with overlap
     ethr =  2.65E-08,  avg # of iterations =  5.0

     total cpu time spent up to now is        6.0 secs

     total energy              =    -503.94171572 Ry
     estimated scf accuracy    <       0.00001167 Ry

     iteration #  7     ecut=    30.00 Ry     beta= 0.50
     Davidson diagonalization with overlap
     ethr =  4.56E-09,  avg # of iterations =  6.0

     total cpu time spent up to now is        6.2 secs

     total energy              =    -503.94171903 Ry
     estimated scf accuracy    <       0.00000205 Ry

     iteration #  8     ecut=    30.00 Ry     beta= 0.50
     Davidson diagonalization with overlap
     ethr =  8.00E-10,  avg # of iterations =  4.0

     total cpu time spent up to now is        6.3 secs

     End of self-consistent calculation

          k = 0.0000 0.0000 0.0000 ( 12185 PWs)   bands (ev):

    -5.7773  -4.7599  -4.7479  -4.7358  -4.6820  -4.6590  -4.6346  -3.8675
    -3.8454  -3.8335  -3.7858  -3.7666  -3.7631  -3.7590  -3.7313  -3.7183
    -3.6807  -3.6545  -3.6450  -3.5210  -3.4589  -3.4474  -3.3257  -1.7924
    -1.7485  -1.7289  -1.6770  -1.6690  -1.6183  -1.5823  -1.5696  -1.5627
    -1.5304  -1.5274  -1.5117  -1.4930  -1.4797  -1.4535  -1.4488  -1.4255
    -1.4107  -0.8948  -0.8120  -0.7773  -0.7412   0.5841   0.5865   0.5981
     0.6109   0.6266   0.6299   0.6423   0.6589   0.6706   0.6756   0.6843
     0.6905   2.2113   2.2229   2.2341   2.2380   2.2506   2.2561   2.2683
     2.2765   2.2859   2.2935   2.3127   2.3229   2.3758   2.3805   2.3879
     2.4004   2.4103   2.4152   2.4336   2.4408   2.4468   2.4540   2.4594
     2.4811   2.5756   2.5869   2.5969   2.6076   2.6378   2.6515   3.2270
     3.2498   3.2618   3.2819   3.3139   3.3490   4.1451   4.1596   4.1607
     4.2002   4.2024   4.2476   4.2644   4.2648   4.2711   4.3017   4.3171
     4.3490   4.5748   4.6686   4.7013   4.7412   4.7526   4.7584   4.7753
     4.7848   4.8205   4.8286   4.8465   4.8607   4.8707   4.8945   4.8958
     4.9427   4.9567   4.9823   5.0158   5.1807   6.0126   6.1314   6.1793

     highest occupied level (ev):     6.1793

!    total energy              =    -503.94171929 Ry
     estimated scf accuracy    <       0.00000055 Ry

     The total energy is the sum of the following terms:
     one-electron contribution =     147.18473909 Ry
     hartree contribution      =      36.86430092 Ry
     xc contribution           =    -153.90223706 Ry
     ewald contribution        =    -534.08852224 Ry

     convergence has been achieved in   8 iterations

     Forces acting on atoms (cartesian axes, Ry/au):

     atom    1 type  1   force =     0.01761228    0.02575151   -0.03387572
     atom    2 type  1   force =     0.02083563    0.00101810   -0.00461508
     atom    3 type  1   force =     0.00438116    0.01634918   -0.00789629
     atom    4 type  1   force =     0.00592618   -0.00063035   -0.02851928
     atom    5 type  1   force =    -0.00005482    0.00043676    0.00183221
     atom    6 type  1   force =     0.00235661    0.02001971   -0.03051968
     atom    7 type  1   force =     0.00807755   -0.00378109    0.00626041
     atom    8 type  1   force =    -0.00222119    0.00442837   -0.00391501
     atom    9 type  1   force =    -0.00119148    0.01731922    0.00154740
     atom   10 type  1   force =     0.00250655    0.00179050   -0.02472589
     atom   11 type  1   force =     0.02115608    0.00137027   -0.02589733
     atom   12 type  1   force =     0.00511101   -0.00200436   -0.00303187
     atom   13 type  1   force =     0.00162675   -0.00403665   -0.00454160
     atom   14 type  1   force =    -0.00715808    0.01052256   -0.00818701
     atom   15 type  1   force =     0.00233407   -0.00384520   -0.02336818
     atom   16 type  1   force =    -0.00075292   -0.00341889   -0.00862970
     atom   17 type  1   force =    -0.02461423    0.00001113   -0.00351072
     atom   18 type  1   force =     0.00389882    0.00157523   -0.00149088
     atom   19 type  1   force =     0.01679425   -0.00484082   -0.00015975
     atom   20 type  1   force =     0.00284870   -0.00088963   -0.03021302
     atom   21 type  1   force =    -0.00544292   -0.01895951    0.00366506
     atom   22 type  1   force =    -0.00696595   -0.00308410    0.00142849
     atom   23 type  1   force =     0.00260415   -0.00663531   -0.02265998
     atom   24 type  1   force =    -0.02348868   -0.02126205    0.00000570
     atom   25 type  1   force =     0.01663861    0.01746934    0.00063388
     atom   26 type  1   force =     0.00377667    0.00211647    0.00264287
     atom   27 type  1   force =     0.00017647    0.00694974    0.00150671
     atom   28 type  1   force =     0.00151978    0.00389664    0.00188851
     atom   29 type  1   force =     0.00380083    0.02199897   -0.00269986
     atom   30 type  1   force =    -0.00372892   -0.00038252   -0.00178605
     atom   31 type  1   force =    -0.01917411    0.00183750    0.00004824
     atom   32 type  1   force =    -0.00192061    0.00400109   -0.00144291
     atom   33 type  1   force =     0.00080083   -0.00001502    0.00315140
     atom   34 type  1   force =     0.01618485    0.00251792   -0.00195194
     atom   35 type  1   force =     0.00290807   -0.00050517    0.00072318
     atom   36 type  1   force =    -0.00618797   -0.00398196    0.00087866
     atom   37 type  1   force =    -0.00487142    0.00687370   -0.00526025
     atom   38 type  1   force =     0.00128764   -0.00075153   -0.00619734
     atom   39 type  1   force =     0.00335010   -0.00677929    0.00451768
     atom   40 type  1   force =     0.00467632   -0.00071523   -0.00050351
     atom   41 type  1   force =    -0.01652079   -0.00195699    0.00079245
     atom   42 type  1   force =    -0.01669410   -0.00106396   -0.00402918
     atom   43 type  1   force =     0.00101634   -0.01775085   -0.00141649
     atom   44 type  1   force =     0.00321268   -0.00766362    0.00208187
     atom   45 type  1   force =     0.00249435   -0.01621693    0.00293695
     atom   46 type  1   force =     0.00658284   -0.02874035    0.00186078
     atom   47 type  1   force =    -0.00428001   -0.00275580    0.00380881
     atom   48 type  1   force =    -0.01468081   -0.02607414   -0.00262771
     atom   49 type  1   force =     0.02281955   -0.00231803    0.00426368
     atom   50 type  1   force =    -0.00315160    0.02483850    0.01125583
     atom   51 type  1   force =     0.00058475    0.00210287    0.02403459
     atom   52 type  1   force =    -0.00589787   -0.00462060    0.00453038
     atom   53 type  1   force =    -0.00735400    0.01989153    0.00958894
     atom   54 type  1   force =    -0.01752071   -0.00179570    0.03134597
     atom   55 type  1   force =    -0.00318810    0.00065054    0.02683320
     atom   56 type  1   force =     0.00535266    0.00650931    0.00673285
     atom   57 type  1   force =     0.00098682    0.00741336    0.02882181
     atom   58 type  1   force =    -0.00663935   -0.00443129    0.02368043
     atom   59 type  1   force =    -0.00712910    0.00214966    0.00320579
     atom   60 type  1   force =    -0.02325363   -0.00301402    0.03065779
     atom   61 type  1   force =     0.02049325    0.00368229   -0.00189730
     atom   62 type  1   force =     0.00462431   -0.02126999    0.02632841
     atom   63 type  1   force =    -0.00566874    0.00181117   -0.00174654
     atom   64 type  1   force =    -0.00160541   -0.01111219    0.02382516

     Total force =     0.165705     Total SCF correction =     0.001163


     Computing stress (Cartesian axis) and pressure

          total   stress  (Ry/bohr**3)                   (kbar)     P=       15.51
   0.00007390   0.00002459  -0.00002155           10.87        3.62       -3.17
   0.00002459   0.00013064  -0.00002438            3.62       19.22       -3.59
  -0.00002155  -0.00002438   0.00011185           -3.17       -3.59       16.45

 
     init_run     :      1.27s CPU      5.21s WALL (       1 calls)
     electrons    :      0.91s CPU      0.99s WALL (       1 calls)
     forces       :      0.04s CPU      0.04s WALL (       1 calls)
     stress       :      0.14s CPU      0.14s WALL (       1 calls)

     Called by init_run:
     wfcinit      :      0.54s CPU      4.29s WALL (       1 calls)
                                        4.29s GPU  (       1 calls)
     potinit      :      0.20s CPU      0.30s WALL (       1 calls)
     hinit0       :      0.50s CPU      0.54s WALL (       1 calls)

     Called by electrons:
     c_bands      :      0.58s CPU      0.62s WALL (       9 calls)
     sum_band     :      0.18s CPU      0.20s WALL (       9 calls)
     v_of_rho     :      0.09s CPU      0.20s WALL (       9 calls)
     mix_rho      :      0.06s CPU      0.07s WALL (       9 calls)

     Called by c_bands:
     init_us_2    :      0.03s CPU      0.03s WALL (      19 calls)
     init_us_2:gp :      0.03s CPU      0.03s WALL (      19 calls)
     regterg      :      0.50s CPU      0.53s WALL (       9 calls)

     Called by *egterg:
     rdiaghg      :      0.20s CPU      0.96s WALL (      42 calls)
                                        0.95s GPU  (      42 calls)
     h_psi        :      0.74s CPU      3.73s WALL (      44 calls)
                                        3.73s GPU  (      44 calls)
     g_psi        :      0.00s CPU      0.00s WALL (      34 calls)
                                        0.00s GPU  (      34 calls)

     Called by h_psi:
     h_psi:calbec :      0.47s CPU      3.40s WALL (      44 calls)
                                        3.40s GPU  (      44 calls)
     vloc_psi     :      0.23s CPU      0.30s WALL (      44 calls)
                                        0.30s GPU  (      44 calls)
     add_vuspsi   :      0.02s CPU      0.03s WALL (      44 calls)
                                        0.03s GPU  (      44 calls)

     General routines
     calbec       :      0.48s CPU      3.40s WALL (      49 calls)
     fft          :      0.53s CPU      0.67s WALL (      79 calls)
                                        0.13s GPU  (      51 calls)
     ffts         :      0.03s CPU      0.03s WALL (       9 calls)
     fftw         :      0.26s CPU      0.37s WALL (     826 calls)
                                        0.34s GPU  (     826 calls)
 
     Parallel routines
 
     PWSCF        :      2.39s CPU      6.47s WALL

 
   This run was terminated on:  15:10:22   8May2023            

=------------------------------------------------------------------------------=
   JOB DONE.
=------------------------------------------------------------------------------=
