An instance of this daemon is already running
An instance of this daemon is already running

     Program PWSCF v.7.1 starts on  8May2023 at 15: 9:49 

     This program is part of the open-source Quantum ESPRESSO suite
     for quantum simulation of materials; please cite
         "P. Giannozzi et al., J. Phys.:Condens. Matter 21 395502 (2009);
         "P. Giannozzi et al., J. Phys.:Condens. Matter 29 465901 (2017);
         "P. Giannozzi et al., J. Chem. Phys. 152 154105 (2020);
          URL http://www.quantum-espresso.org", 
     in publications or presentations arising from this work. More details at
     http://www.quantum-espresso.org/quote

     Parallel version (MPI & OpenMP), running on       4 processor cores
     Number of MPI processes:                 4
     Threads/MPI process:                     1

     MPI processes distributed on     1 nodes
     618773 MiB available memory on the printing compute node when the environment starts
 
     Reading input from pw-si-23.in
Warning: card &CELL ignored
Warning: card / ignored

     Current dimensions of program PWSCF are:
     Max number of different atomic species (ntypx) = 10
     Max number of k-points (npk) =  40000
     Max angular momentum in pseudopotentials (lmaxx) =  4

     IMPORTANT: XC functional enforced from input :
     Exchange-correlation= PBE
                           (   1   4   3   4   0   0   0)
     Any further DFT definition will be discarded
     Please, verify this is what you really want


     gamma-point specific algorithms are used
 
     K-points division:     npool     =       2
     R & G space division:  proc/nbgrp/npool/nimage =       2
     Subspace diagonalization in iterative solution of the eigenvalue problem:
     a serial algorithm will be used

     Message from routine divide_et_impera:
     suboptimal parallelization: some nodes have no k-points
 
     Parallelization info
     --------------------
     sticks:   dense  smooth     PW     G-vecs:    dense   smooth      PW
     Min        2027    2027    541                98503    98503   13401
     Max        2028    2028    544                98504    98504   13404
     Sum        4055    4055   1085               197007   197007   26805
 
     Using Slab Decomposition
 


     bravais-lattice index     =            0
     lattice parameter (alat)  =      20.5939  a.u.
     unit-cell volume          =    8875.2868 (a.u.)^3
     number of atoms/cell      =           64
     number of atomic types    =            1
     number of electrons       =       256.00
     number of Kohn-Sham states=          128
     kinetic-energy cutoff     =      30.0000  Ry
     charge density cutoff     =     120.0000  Ry
     scf convergence threshold =      1.0E-06
     mixing beta               =       0.5000
     number of iterations used =            8  plain     mixing
     Exchange-correlation= PBE
                           (   1   4   3   4   0   0   0)

     GPU acceleration is ACTIVE.
     GPU-aware MPI enabled

     Message from routine print_cuda_info:
     High GPU oversubscription detected. Are you sure this is what you want?

     celldm(1)=  20.593936  celldm(2)=   0.000000  celldm(3)=   0.000000
     celldm(4)=   0.000000  celldm(5)=   0.000000  celldm(6)=   0.000000

     crystal axes: (cart. coord. in units of alat)
               a(1) = (   1.000000   0.000000   0.000000 )  
               a(2) = (   0.000000   1.003759   0.000000 )  
               a(3) = (   0.000000   0.000000   1.012359 )  

     reciprocal axes: (cart. coord. in units 2 pi/alat)
               b(1) = (  1.000000  0.000000  0.000000 )  
               b(2) = (  0.000000  0.996255  0.000000 )  
               b(3) = (  0.000000  0.000000  0.987792 )  


     PseudoPot. # 1 for Si read from file:
     /home/ppiaggi/pseudos/Si_ONCV_PBE_sr.upf
     MD5 check sum: 8553c464762ac42b85b1eed164b4d029
     Pseudo is Norm-conserving, Zval =  4.0
     Generated using ONCVPSP code by D. R. Hamann
     Using radial grid of 1510 points,  4 beta functions with: 
                l(1) =   0
                l(2) =   0
                l(3) =   1
                l(4) =   1

     atomic species   valence    mass     pseudopotential
        Si             4.00    28.08500     Si( 1.00)

     No symmetry found



   Cartesian axes

     site n.     atom                  positions (alat units)
         1           Si  tau(   1) = (  -0.0001596   0.0000131   0.0005870  )
         2           Si  tau(   2) = (  -0.0002778   0.2509803   0.2512278  )
         3           Si  tau(   3) = (   0.2526576   0.0000919   0.2506396  )
         4           Si  tau(   4) = (   0.2518783   0.2508381   0.0004400  )
         5           Si  tau(   5) = (   0.1256107   0.1246737   0.1248920  )
         6           Si  tau(   6) = (   0.5038150  -0.0002979  -0.0008650  )
         7           Si  tau(   7) = (   0.5053155   0.2501075   0.2511915  )
         8           Si  tau(   8) = (   0.6314971   0.1257622   0.1252758  )
         9           Si  tau(   9) = (   0.7574900   0.0001182   0.2512432  )
        10           Si  tau(  10) = (   0.7561254   0.2500072  -0.0004774  )
        11           Si  tau(  11) = (  -0.0000568   0.5001925  -0.0004752  )
        12           Si  tau(  12) = (   0.2526838   0.5001424   0.2507699  )
        13           Si  tau(  13) = (   0.1264948   0.6257936   0.1261422  )
        14           Si  tau(  14) = (   0.3780118   0.3759945   0.1264072  )
        15           Si  tau(  15) = (   0.5038726   0.5010827  -0.0000240  )
        16           Si  tau(  16) = (   0.6299898   0.6257833   0.1248971  )
        17           Si  tau(  17) = (   0.8838838   0.3761534   0.1248865  )
        18           Si  tau(  18) = (   0.7561267   0.5009578   0.2512685  )
        19           Si  tau(  19) = (  -0.0004502   0.7502410   0.2505125  )
        20           Si  tau(  20) = (   0.2525895   0.7502035  -0.0000744  )
        21           Si  tau(  21) = (   0.3792873   0.8750557   0.1254202  )
        22           Si  tau(  22) = (   0.5054021   0.7505366   0.2515867  )
        23           Si  tau(  23) = (   0.7566903   0.7498273  -0.0005899  )
        24           Si  tau(  24) = (   0.8824165   0.8759227   0.1255216  )
        25           Si  tau(  25) = (   0.0008647  -0.0008549   0.5014800  )
        26           Si  tau(  26) = (   0.2526643   0.2499570   0.5030638  )
        27           Si  tau(  27) = (   0.1253783   0.1243160   0.6271998  )
        28           Si  tau(  28) = (   0.3780687   0.1259976   0.3760122  )
        29           Si  tau(  29) = (   0.5053674  -0.0000235   0.5027828  )
        30           Si  tau(  30) = (   0.6315558   0.1246897   0.6271855  )
        31           Si  tau(  31) = (   0.8820986   0.1258689   0.3763818  )
        32           Si  tau(  32) = (   0.7565322   0.2509887   0.5017674  )
        33           Si  tau(  33) = (   0.1265012   0.3762061   0.3768129  )
        34           Si  tau(  34) = (   0.0001026   0.5012568   0.5023291  )
        35           Si  tau(  35) = (   0.1252802   0.6261608   0.6283007  )
        36           Si  tau(  36) = (   0.6305154   0.3744368   0.3763499  )
        37           Si  tau(  37) = (   0.3777391   0.6258546   0.3763198  )
        38           Si  tau(  38) = (   0.3792818   0.3748780   0.6274740  )
        39           Si  tau(  39) = (   0.5047760   0.5008581   0.5016203  )
        40           Si  tau(  40) = (   0.6298854   0.6254214   0.6277503  )
        41           Si  tau(  41) = (   0.8822418   0.6259424   0.3758318  )
        42           Si  tau(  42) = (   0.8837794   0.3749772   0.6285463  )
        43           Si  tau(  43) = (   0.1261410   0.8760265   0.3766820  )
        44           Si  tau(  44) = (   0.2521944   0.7509105   0.5029780  )
        45           Si  tau(  45) = (   0.6314396   0.8758498   0.3762275  )
        46           Si  tau(  46) = (   0.3786143   0.8763172   0.6276642  )
        47           Si  tau(  47) = (   0.7569281   0.7506000   0.5023306  )
        48           Si  tau(  48) = (   0.8832451   0.8754842   0.6269321  )
        49           Si  tau(  49) = (  -0.0007824   0.2499546   0.7531778  )
        50           Si  tau(  50) = (   0.2525024  -0.0006190   0.7526581  )
        51           Si  tau(  51) = (   0.3788294   0.1259414   0.8794173  )
        52           Si  tau(  52) = (   0.5051413   0.2509237   0.7542313  )
        53           Si  tau(  53) = (   0.7571004  -0.0006781   0.7524853  )
        54           Si  tau(  54) = (   0.8830531   0.1248028   0.8793699  )
        55           Si  tau(  55) = (   0.1252389   0.3754416   0.8790386  )
        56           Si  tau(  56) = (   0.2516108   0.5004283   0.7532859  )
        57           Si  tau(  57) = (   0.6303209   0.3748007   0.8781751  )
        58           Si  tau(  58) = (   0.3780138   0.6256451   0.8796064  )
        59           Si  tau(  59) = (   0.7570520   0.5001416   0.7528023  )
        60           Si  tau(  60) = (   0.8823992   0.6247957   0.8782726  )
        61           Si  tau(  61) = (  -0.0003760   0.7508030   0.7538984  )
        62           Si  tau(  62) = (   0.1259627   0.8756931   0.8788339  )
        63           Si  tau(  63) = (   0.5039280   0.7504812   0.7533696  )
        64           Si  tau(  64) = (   0.6298148   0.8765437   0.8785709  )

     number of k points=     1
                       cart. coord. in units 2pi/alat
        k(    1) = (   0.0000000   0.0000000   0.0000000), wk =   2.0000000

     Dense  grid:    98504 G-vectors     FFT dimensions: (  72,  75,  75)

     Estimated max dynamical RAM per process >     145.05 MB

     Estimated total dynamical RAM >     556.15 MB

     Initial potential from superposition of free atoms

     starting charge     255.9608, renormalised to     256.0000
     Starting wfcs are  256 randomized atomic wfcs

     total cpu time spent up to now is        5.1 secs

     Self-consistent Calculation

     iteration #  1     ecut=    30.00 Ry     beta= 0.50
     Davidson diagonalization with overlap
     ethr =  1.00E-02,  avg # of iterations =  2.0

     Threshold (ethr) on eigenvalues was too large:
     Diagonalizing with lowered threshold

     Davidson diagonalization with overlap
     ethr =  6.49E-04,  avg # of iterations =  2.0

     total cpu time spent up to now is        5.3 secs

     total energy              =    -503.94592519 Ry
     estimated scf accuracy    <       1.85879884 Ry

     iteration #  2     ecut=    30.00 Ry     beta= 0.50
     Davidson diagonalization with overlap
     ethr =  7.26E-04,  avg # of iterations =  1.0

     total cpu time spent up to now is        5.4 secs

     total energy              =    -503.91782788 Ry
     estimated scf accuracy    <       0.36575630 Ry

     iteration #  3     ecut=    30.00 Ry     beta= 0.50
     Davidson diagonalization with overlap
     ethr =  1.43E-04,  avg # of iterations =  2.0

     total cpu time spent up to now is        5.5 secs

     total energy              =    -503.94443642 Ry
     estimated scf accuracy    <       0.00604595 Ry

     iteration #  4     ecut=    30.00 Ry     beta= 0.50
     Davidson diagonalization with overlap
     ethr =  2.36E-06,  avg # of iterations =  8.0

     total cpu time spent up to now is        5.7 secs

     total energy              =    -503.94796347 Ry
     estimated scf accuracy    <       0.00042385 Ry

     iteration #  5     ecut=    30.00 Ry     beta= 0.50
     Davidson diagonalization with overlap
     ethr =  1.66E-07,  avg # of iterations =  5.0

     total cpu time spent up to now is        5.8 secs

     total energy              =    -503.94813840 Ry
     estimated scf accuracy    <       0.00008299 Ry

     iteration #  6     ecut=    30.00 Ry     beta= 0.50
     Davidson diagonalization with overlap
     ethr =  3.24E-08,  avg # of iterations =  6.0

     total cpu time spent up to now is        5.9 secs

     total energy              =    -503.94816418 Ry
     estimated scf accuracy    <       0.00001221 Ry

     iteration #  7     ecut=    30.00 Ry     beta= 0.50
     Davidson diagonalization with overlap
     ethr =  4.77E-09,  avg # of iterations =  6.0

     total cpu time spent up to now is        6.0 secs

     total energy              =    -503.94816770 Ry
     estimated scf accuracy    <       0.00000198 Ry

     iteration #  8     ecut=    30.00 Ry     beta= 0.50
     Davidson diagonalization with overlap
     ethr =  7.75E-10,  avg # of iterations =  4.0

     total cpu time spent up to now is        6.1 secs

     End of self-consistent calculation

          k = 0.0000 0.0000 0.0000 ( 12314 PWs)   bands (ev):

    -5.8088  -4.8100  -4.7832  -4.7661  -4.7290  -4.7008  -4.6692  -3.9368
    -3.9013  -3.8760  -3.8340  -3.8206  -3.7962  -3.7894  -3.7837  -3.7619
    -3.7229  -3.7164  -3.6898  -3.5745  -3.5100  -3.4937  -3.3907  -1.8790
    -1.8392  -1.7541  -1.7318  -1.7126  -1.6963  -1.6433  -1.6326  -1.6227
    -1.6004  -1.5971  -1.5838  -1.5595  -1.5443  -1.5317  -1.5199  -1.5097
    -1.4706  -0.9312  -0.8739  -0.8529  -0.7705   0.4903   0.5074   0.5393
     0.5436   0.5503   0.5581   0.5686   0.5718   0.5809   0.5846   0.6088
     0.6315   2.1416   2.1430   2.1569   2.1677   2.2031   2.2189   2.2288
     2.2290   2.2354   2.2448   2.2540   2.2659   2.3112   2.3251   2.3348
     2.3418   2.3561   2.3688   2.3772   2.3843   2.3905   2.3990   2.4093
     2.4258   2.4476   2.4719   2.5209   2.5251   2.5511   2.5627   3.1265
     3.1801   3.2066   3.2174   3.2552   3.2808   4.0260   4.1103   4.1264
     4.1292   4.1384   4.1480   4.1693   4.1930   4.2027   4.2051   4.2194
     4.3096   4.3872   4.6391   4.6762   4.6835   4.6902   4.6948   4.7006
     4.7161   4.7425   4.7443   4.7527   4.7768   4.7794   4.7952   4.8289
     4.8461   4.8490   4.8793   4.8811   5.1164   5.9365   5.9952   6.1124

     highest occupied level (ev):     6.1124

!    total energy              =    -503.94816786 Ry
     estimated scf accuracy    <       0.00000063 Ry

     The total energy is the sum of the following terms:
     one-electron contribution =     145.05636952 Ry
     hartree contribution      =      37.09818365 Ry
     xc contribution           =    -153.60031616 Ry
     ewald contribution        =    -532.50240486 Ry

     convergence has been achieved in   8 iterations

     Forces acting on atoms (cartesian axes, Ry/au):

     atom    1 type  1   force =     0.02646946   -0.00869228   -0.02820904
     atom    2 type  1   force =     0.03284712   -0.00228063   -0.00147369
     atom    3 type  1   force =    -0.00024562   -0.00995594   -0.00133181
     atom    4 type  1   force =     0.00089158   -0.00113283   -0.02459208
     atom    5 type  1   force =     0.00462293    0.00306055    0.00300461
     atom    6 type  1   force =     0.00371179   -0.00382076   -0.01762685
     atom    7 type  1   force =    -0.00450409    0.00024774   -0.00372119
     atom    8 type  1   force =    -0.00600797   -0.00832595   -0.00299426
     atom    9 type  1   force =    -0.00617215   -0.00729975   -0.00279673
     atom   10 type  1   force =     0.00345948    0.00453863   -0.02285313
     atom   11 type  1   force =     0.03091536    0.00864090   -0.02543766
     atom   12 type  1   force =    -0.00256900    0.00394906    0.00308266
     atom   13 type  1   force =     0.00096743   -0.00298728   -0.00766265
     atom   14 type  1   force =     0.00510547   -0.00433800   -0.00659637
     atom   15 type  1   force =     0.00076990   -0.00458846   -0.02492263
     atom   16 type  1   force =     0.00189442   -0.00122663    0.00013885
     atom   17 type  1   force =    -0.03896402   -0.00359533    0.00032292
     atom   18 type  1   force =    -0.00147627   -0.00366336   -0.00529580
     atom   19 type  1   force =     0.03212991    0.00546090    0.00201113
     atom   20 type  1   force =    -0.00146872    0.00388209   -0.02187318
     atom   21 type  1   force =    -0.00200575    0.01044920   -0.00155948
     atom   22 type  1   force =    -0.00332849    0.00147331   -0.00204059
     atom   23 type  1   force =    -0.00438960    0.00636553   -0.02396819
     atom   24 type  1   force =    -0.02818575    0.00604822   -0.00522666
     atom   25 type  1   force =     0.02118175   -0.00332229   -0.00118346
     atom   26 type  1   force =    -0.00283847    0.00149892   -0.00377618
     atom   27 type  1   force =     0.00599452    0.00089428    0.00369541
     atom   28 type  1   force =     0.00420414   -0.00631065    0.00445320
     atom   29 type  1   force =    -0.00450529   -0.00696690   -0.00735448
     atom   30 type  1   force =    -0.00321577    0.00424695    0.00522350
     atom   31 type  1   force =    -0.02317278   -0.00399575    0.00336189
     atom   32 type  1   force =     0.00001460   -0.00220515    0.00444500
     atom   33 type  1   force =     0.00302375   -0.00385153    0.00215912
     atom   34 type  1   force =     0.02710380   -0.00112950   -0.00134460
     atom   35 type  1   force =     0.00611875   -0.00057410    0.00014092
     atom   36 type  1   force =    -0.00001649    0.00722963    0.00058907
     atom   37 type  1   force =     0.00272348    0.00043413    0.00200531
     atom   38 type  1   force =    -0.00210765    0.00427587    0.00384563
     atom   39 type  1   force =    -0.00277128   -0.00289181   -0.00091336
     atom   40 type  1   force =     0.00320157    0.00108810    0.00041969
     atom   41 type  1   force =    -0.02845000   -0.00239749    0.00493969
     atom   42 type  1   force =    -0.03390284    0.00397990   -0.00796170
     atom   43 type  1   force =     0.00526849    0.00443751   -0.00450582
     atom   44 type  1   force =    -0.00056290    0.00138120   -0.00226942
     atom   45 type  1   force =    -0.00163323    0.00968880    0.00350749
     atom   46 type  1   force =     0.00170787    0.00553293    0.00017562
     atom   47 type  1   force =    -0.00485780    0.00020310   -0.00084186
     atom   48 type  1   force =    -0.02804564    0.00916660    0.00212917
     atom   49 type  1   force =     0.03549931   -0.00409409    0.00625537
     atom   50 type  1   force =    -0.00016890   -0.00278030    0.00709618
     atom   51 type  1   force =    -0.00505609   -0.00315275    0.02041178
     atom   52 type  1   force =    -0.00118459   -0.00765114   -0.00536123
     atom   53 type  1   force =    -0.00129517   -0.00675604    0.00545510
     atom   54 type  1   force =    -0.03141093   -0.00472701    0.02290583
     atom   55 type  1   force =     0.00557965   -0.00211034    0.02120777
     atom   56 type  1   force =     0.00363146   -0.00103970    0.00193310
     atom   57 type  1   force =     0.00224673    0.00674797    0.02934677
     atom   58 type  1   force =    -0.00074992   -0.00140784    0.01885738
     atom   59 type  1   force =    -0.00650603   -0.00093313    0.00257006
     atom   60 type  1   force =    -0.02636689   -0.00046129    0.02807531
     atom   61 type  1   force =     0.02854190    0.00164465    0.00135168
     atom   62 type  1   force =     0.00496011    0.00862200    0.02505841
     atom   63 type  1   force =    -0.00004571    0.00208238    0.00357837
     atom   64 type  1   force =     0.00339511    0.00339496    0.02194011

     Total force =     0.161940     Total SCF correction =     0.001187


     Computing stress (Cartesian axis) and pressure

          total   stress  (Ry/bohr**3)                   (kbar)     P=        7.10
   0.00007794   0.00002485   0.00000546           11.46        3.65        0.80
   0.00002485   0.00006283  -0.00002970            3.65        9.24       -4.37
   0.00000546  -0.00002970   0.00000396            0.80       -4.37        0.58

 
     init_run     :      1.08s CPU      5.03s WALL (       1 calls)
     electrons    :      0.96s CPU      1.04s WALL (       1 calls)
     forces       :      0.04s CPU      0.05s WALL (       1 calls)
     stress       :      0.14s CPU      0.15s WALL (       1 calls)

     Called by init_run:
     wfcinit      :      0.53s CPU      4.30s WALL (       1 calls)
                                        4.30s GPU  (       1 calls)
     potinit      :      0.20s CPU      0.30s WALL (       1 calls)
     hinit0       :      0.32s CPU      0.35s WALL (       1 calls)

     Called by electrons:
     c_bands      :      0.61s CPU      0.65s WALL (       9 calls)
     sum_band     :      0.19s CPU      0.21s WALL (       9 calls)
     v_of_rho     :      0.10s CPU      0.20s WALL (       9 calls)
     mix_rho      :      0.06s CPU      0.07s WALL (       9 calls)

     Called by c_bands:
     init_us_2    :      0.03s CPU      0.03s WALL (      19 calls)
     init_us_2:gp :      0.03s CPU      0.03s WALL (      19 calls)
     regterg      :      0.52s CPU      0.56s WALL (       9 calls)

     Called by *egterg:
     rdiaghg      :      0.21s CPU      0.97s WALL (      44 calls)
                                        0.96s GPU  (      44 calls)
     h_psi        :      0.74s CPU      3.77s WALL (      46 calls)
                                        3.77s GPU  (      46 calls)
     g_psi        :      0.00s CPU      0.00s WALL (      36 calls)
                                        0.00s GPU  (      36 calls)

     Called by h_psi:
     h_psi:calbec :      0.46s CPU      3.41s WALL (      46 calls)
                                        3.41s GPU  (      46 calls)
     vloc_psi     :      0.25s CPU      0.33s WALL (      46 calls)
                                        0.33s GPU  (      46 calls)
     add_vuspsi   :      0.02s CPU      0.03s WALL (      46 calls)
                                        0.03s GPU  (      46 calls)

     General routines
     calbec       :      0.46s CPU      3.41s WALL (      51 calls)
     fft          :      0.37s CPU      0.50s WALL (      79 calls)
                                        0.13s GPU  (      51 calls)
     ffts         :      0.03s CPU      0.03s WALL (       9 calls)
     fftw         :      0.27s CPU      0.40s WALL (     826 calls)
                                        0.36s GPU  (     826 calls)
 
     Parallel routines
 
     PWSCF        :      2.26s CPU      6.36s WALL

 
   This run was terminated on:  15: 9:56   8May2023            

=------------------------------------------------------------------------------=
   JOB DONE.
=------------------------------------------------------------------------------=
