An instance of this daemon is already running

     Program PWSCF v.7.1 starts on  8May2023 at 15:15: 5 

     This program is part of the open-source Quantum ESPRESSO suite
     for quantum simulation of materials; please cite
         "P. Giannozzi et al., J. Phys.:Condens. Matter 21 395502 (2009);
         "P. Giannozzi et al., J. Phys.:Condens. Matter 29 465901 (2017);
         "P. Giannozzi et al., J. Chem. Phys. 152 154105 (2020);
          URL http://www.quantum-espresso.org", 
     in publications or presentations arising from this work. More details at
     http://www.quantum-espresso.org/quote

     Parallel version (MPI & OpenMP), running on       4 processor cores
     Number of MPI processes:                 4
     Threads/MPI process:                     1

     MPI processes distributed on     1 nodes
     618742 MiB available memory on the printing compute node when the environment starts
 
     Reading input from pw-si-59.in
Warning: card &CELL ignored
Warning: card / ignored

     Current dimensions of program PWSCF are:
     Max number of different atomic species (ntypx) = 10
     Max number of k-points (npk) =  40000
     Max angular momentum in pseudopotentials (lmaxx) =  4

     IMPORTANT: XC functional enforced from input :
     Exchange-correlation= PBE
                           (   1   4   3   4   0   0   0)
     Any further DFT definition will be discarded
     Please, verify this is what you really want


     gamma-point specific algorithms are used
 
     K-points division:     npool     =       2
     R & G space division:  proc/nbgrp/npool/nimage =       2
     Subspace diagonalization in iterative solution of the eigenvalue problem:
     a serial algorithm will be used

     Message from routine divide_et_impera:
     suboptimal parallelization: some nodes have no k-points
 
     Parallelization info
     --------------------
     sticks:   dense  smooth     PW     G-vecs:    dense   smooth      PW
     Min        2070    2070    548                99630    99630   13548
     Max        2071    2071    549                99635    99635   13549
     Sum        4141    4141   1097               199265   199265   27097
 
     Using Slab Decomposition
 


     bravais-lattice index     =            0
     lattice parameter (alat)  =      20.6710  a.u.
     unit-cell volume          =    8977.2520 (a.u.)^3
     number of atoms/cell      =           64
     number of atomic types    =            1
     number of electrons       =       256.00
     number of Kohn-Sham states=          128
     kinetic-energy cutoff     =      30.0000  Ry
     charge density cutoff     =     120.0000  Ry
     scf convergence threshold =      1.0E-06
     mixing beta               =       0.5000
     number of iterations used =            8  plain     mixing
     Exchange-correlation= PBE
                           (   1   4   3   4   0   0   0)

     GPU acceleration is ACTIVE.
     GPU-aware MPI enabled

     Message from routine print_cuda_info:
     High GPU oversubscription detected. Are you sure this is what you want?

     celldm(1)=  20.670997  celldm(2)=   0.000000  celldm(3)=   0.000000
     celldm(4)=   0.000000  celldm(5)=   0.000000  celldm(6)=   0.000000

     crystal axes: (cart. coord. in units of alat)
               a(1) = (   1.000000   0.000000   0.000000 )  
               a(2) = (   0.000000   1.013651   0.000000 )  
               a(3) = (   0.000000   0.000000   1.002700 )  

     reciprocal axes: (cart. coord. in units 2 pi/alat)
               b(1) = (  1.000000  0.000000  0.000000 )  
               b(2) = (  0.000000  0.986533  0.000000 )  
               b(3) = (  0.000000  0.000000  0.997308 )  


     PseudoPot. # 1 for Si read from file:
     /home/ppiaggi/pseudos/Si_ONCV_PBE_sr.upf
     MD5 check sum: 8553c464762ac42b85b1eed164b4d029
     Pseudo is Norm-conserving, Zval =  4.0
     Generated using ONCVPSP code by D. R. Hamann
     Using radial grid of 1510 points,  4 beta functions with: 
                l(1) =   0
                l(2) =   0
                l(3) =   1
                l(4) =   1

     atomic species   valence    mass     pseudopotential
        Si             4.00    28.08500     Si( 1.00)

     No symmetry found



   Cartesian axes

     site n.     atom                  positions (alat units)
         1           Si  tau(   1) = (  -0.0004991  -0.0003289  -0.0007477  )
         2           Si  tau(   2) = (  -0.0006244   0.2540203   0.2488224  )
         3           Si  tau(   3) = (   0.2512843  -0.0004373   0.2480084  )
         4           Si  tau(   4) = (   0.2501996   0.2542198  -0.0002964  )
         5           Si  tau(   5) = (   0.1262427   0.1278806   0.1241226  )
         6           Si  tau(   6) = (   0.5025384   0.0002014  -0.0006007  )
         7           Si  tau(   7) = (   0.5014954   0.2541493   0.2476589  )
         8           Si  tau(   8) = (   0.6264653   0.1269796   0.1233456  )
         9           Si  tau(   9) = (   0.7533732   0.0000889   0.2490526  )
        10           Si  tau(  10) = (   0.7519130   0.2547901   0.0004548  )
        11           Si  tau(  11) = (  -0.0004643   0.5106409  -0.0000513  )
        12           Si  tau(  12) = (   0.2502004   0.5096403   0.2488547  )
        13           Si  tau(  13) = (   0.1247937   0.6369527   0.1246755  )
        14           Si  tau(  14) = (   0.3759059   0.3821783   0.1243701  )
        15           Si  tau(  15) = (   0.5021638   0.5098741   0.0001960  )
        16           Si  tau(  16) = (   0.6280299   0.6369129   0.1242042  )
        17           Si  tau(  17) = (   0.8784256   0.3829529   0.1249512  )
        18           Si  tau(  18) = (   0.7534043   0.5105189   0.2475967  )
        19           Si  tau(  19) = (   0.0005627   0.7646683   0.2477342  )
        20           Si  tau(  20) = (   0.2509752   0.7648196  -0.0008050  )
        21           Si  tau(  21) = (   0.3762643   0.8928496   0.1251129  )
        22           Si  tau(  22) = (   0.5013259   0.7640849   0.2479131  )
        23           Si  tau(  23) = (   0.7527133   0.7646303   0.0006279  )
        24           Si  tau(  24) = (   0.8785503   0.8916361   0.1237905  )
        25           Si  tau(  25) = (   0.0004980   0.0009084   0.4976581  )
        26           Si  tau(  26) = (   0.2502279   0.2541107   0.4974949  )
        27           Si  tau(  27) = (   0.1255911   0.1280113   0.6209358  )
        28           Si  tau(  28) = (   0.3770410   0.1266653   0.3726293  )
        29           Si  tau(  29) = (   0.5021033  -0.0008183   0.4969303  )
        30           Si  tau(  30) = (   0.6273214   0.1278878   0.6206082  )
        31           Si  tau(  31) = (   0.8775471   0.1280976   0.3729106  )
        32           Si  tau(  32) = (   0.7517797   0.2542290   0.4971121  )
        33           Si  tau(  33) = (   0.1246355   0.3820768   0.3733077  )
        34           Si  tau(  34) = (   0.0002391   0.5103568   0.4970708  )
        35           Si  tau(  35) = (   0.1263174   0.6378260   0.6210965  )
        36           Si  tau(  36) = (   0.6278807   0.3828121   0.3722632  )
        37           Si  tau(  37) = (   0.3766826   0.6365054   0.3718326  )
        38           Si  tau(  38) = (   0.3761815   0.3822480   0.6211085  )
        39           Si  tau(  39) = (   0.5025789   0.5092483   0.4965882  )
        40           Si  tau(  40) = (   0.6274981   0.6380318   0.6219164  )
        41           Si  tau(  41) = (   0.8776278   0.6369253   0.3733574  )
        42           Si  tau(  42) = (   0.8772848   0.3822381   0.6215494  )
        43           Si  tau(  43) = (   0.1257060   0.8931654   0.3719270  )
        44           Si  tau(  44) = (   0.2503724   0.7645870   0.4968312  )
        45           Si  tau(  45) = (   0.6269432   0.8922663   0.3730657  )
        46           Si  tau(  46) = (   0.3759607   0.8928385   0.6212394  )
        47           Si  tau(  47) = (   0.7527311   0.7652222   0.4975888  )
        48           Si  tau(  48) = (   0.8773558   0.8917829   0.6215400  )
        49           Si  tau(  49) = (  -0.0004963   0.2556524   0.7448552  )
        50           Si  tau(  50) = (   0.2501126  -0.0005262   0.7447943  )
        51           Si  tau(  51) = (   0.3756547   0.1273876   0.8696924  )
        52           Si  tau(  52) = (   0.5019645   0.2544496   0.7460128  )
        53           Si  tau(  53) = (   0.7534640   0.0005494   0.7450533  )
        54           Si  tau(  54) = (   0.8782516   0.1276867   0.8696327  )
        55           Si  tau(  55) = (   0.1252303   0.3826278   0.8700083  )
        56           Si  tau(  56) = (   0.2502635   0.5097562   0.7449641  )
        57           Si  tau(  57) = (   0.6268134   0.3817123   0.8692381  )
        58           Si  tau(  58) = (   0.3758872   0.6374457   0.8697012  )
        59           Si  tau(  59) = (   0.7525135   0.5090072   0.7449454  )
        60           Si  tau(  60) = (   0.8774577   0.6374043   0.8699744  )
        61           Si  tau(  61) = (  -0.0003887   0.7646285   0.7446092  )
        62           Si  tau(  62) = (   0.1260107   0.8919639   0.8689670  )
        63           Si  tau(  63) = (   0.5017818   0.7649147   0.7449190  )
        64           Si  tau(  64) = (   0.6264966   0.8920333   0.8686675  )

     number of k points=     1
                       cart. coord. in units 2pi/alat
        k(    1) = (   0.0000000   0.0000000   0.0000000), wk =   2.0000000

     Dense  grid:    99633 G-vectors     FFT dimensions: (  75,  75,  75)

     Estimated max dynamical RAM per process >     147.10 MB

     Estimated total dynamical RAM >     564.08 MB

     Initial potential from superposition of free atoms

     starting charge     255.9608, renormalised to     256.0000
     Starting wfcs are  256 randomized atomic wfcs

     total cpu time spent up to now is        5.0 secs

     Self-consistent Calculation

     iteration #  1     ecut=    30.00 Ry     beta= 0.50
     Davidson diagonalization with overlap
     ethr =  1.00E-02,  avg # of iterations =  2.0

     Threshold (ethr) on eigenvalues was too large:
     Diagonalizing with lowered threshold

     Davidson diagonalization with overlap
     ethr =  6.37E-04,  avg # of iterations =  2.0

     total cpu time spent up to now is        5.2 secs

     total energy              =    -503.95318654 Ry
     estimated scf accuracy    <       1.82390748 Ry

     iteration #  2     ecut=    30.00 Ry     beta= 0.50
     Davidson diagonalization with overlap
     ethr =  7.12E-04,  avg # of iterations =  1.0

     total cpu time spent up to now is        5.3 secs

     total energy              =    -503.92569395 Ry
     estimated scf accuracy    <       0.36141445 Ry

     iteration #  3     ecut=    30.00 Ry     beta= 0.50
     Davidson diagonalization with overlap
     ethr =  1.41E-04,  avg # of iterations =  2.0

     total cpu time spent up to now is        5.4 secs

     total energy              =    -503.95154766 Ry
     estimated scf accuracy    <       0.00594227 Ry

     iteration #  4     ecut=    30.00 Ry     beta= 0.50
     Davidson diagonalization with overlap
     ethr =  2.32E-06,  avg # of iterations =  7.0

     total cpu time spent up to now is        5.6 secs

     total energy              =    -503.95488763 Ry
     estimated scf accuracy    <       0.00043629 Ry

     iteration #  5     ecut=    30.00 Ry     beta= 0.50
     Davidson diagonalization with overlap
     ethr =  1.70E-07,  avg # of iterations =  5.0

     total cpu time spent up to now is        5.7 secs

     total energy              =    -503.95506060 Ry
     estimated scf accuracy    <       0.00005983 Ry

     iteration #  6     ecut=    30.00 Ry     beta= 0.50
     Davidson diagonalization with overlap
     ethr =  2.34E-08,  avg # of iterations =  7.0

     total cpu time spent up to now is        5.8 secs

     total energy              =    -503.95508304 Ry
     estimated scf accuracy    <       0.00000738 Ry

     iteration #  7     ecut=    30.00 Ry     beta= 0.50
     Davidson diagonalization with overlap
     ethr =  2.88E-09,  avg # of iterations =  7.0

     total cpu time spent up to now is        6.0 secs

     total energy              =    -503.95508547 Ry
     estimated scf accuracy    <       0.00000225 Ry

     iteration #  8     ecut=    30.00 Ry     beta= 0.50
     Davidson diagonalization with overlap
     ethr =  8.77E-10,  avg # of iterations =  5.0

     total cpu time spent up to now is        6.1 secs

     End of self-consistent calculation

          k = 0.0000 0.0000 0.0000 ( 12469 PWs)   bands (ev):

    -5.8447  -4.8493  -4.8401  -4.8001  -4.7719  -4.7683  -4.7152  -3.9654
    -3.9524  -3.9287  -3.8958  -3.8838  -3.8794  -3.8586  -3.8341  -3.8217
    -3.8043  -3.7625  -3.7593  -3.6423  -3.5823  -3.5817  -3.4506  -1.9226
    -1.8855  -1.8620  -1.8296  -1.8186  -1.7509  -1.7371  -1.7198  -1.7088
    -1.7067  -1.6763  -1.6599  -1.6575  -1.6290  -1.6193  -1.5918  -1.5815
    -1.5725  -1.0068  -0.9155  -0.9038  -0.8609   0.3938   0.4144   0.4270
     0.4486   0.4573   0.4651   0.4710   0.4800   0.4932   0.5045   0.5145
     0.5193   2.0931   2.1084   2.1160   2.1234   2.1316   2.1385   2.1424
     2.1558   2.1615   2.1691   2.1903   2.1949   2.2237   2.2321   2.2448
     2.2516   2.2698   2.2740   2.2817   2.2927   2.2969   2.3098   2.3166
     2.3446   2.3740   2.3923   2.4154   2.4302   2.4394   2.4544   3.0753
     3.0860   3.0930   3.1177   3.1729   3.2122   3.9717   3.9761   4.0022
     4.0289   4.0397   4.0611   4.0656   4.0820   4.1093   4.1475   4.1629
     4.1743   4.4667   4.4889   4.5068   4.5338   4.5508   4.5561   4.5711
     4.5881   4.6104   4.6312   4.6499   4.6617   4.6828   4.6972   4.7231
     4.7635   4.7725   4.8074   4.8331   4.9842   5.8028   5.9099   5.9823

     highest occupied level (ev):     5.9823

!    total energy              =    -503.95508584 Ry
     estimated scf accuracy    <       0.00000031 Ry

     The total energy is the sum of the following terms:
     one-electron contribution =     142.42070929 Ry
     hartree contribution      =      37.37404077 Ry
     xc contribution           =    -153.22186000 Ry
     ewald contribution        =    -530.52797589 Ry

     convergence has been achieved in   8 iterations

     Forces acting on atoms (cartesian axes, Ry/au):

     atom    1 type  1   force =     0.01842934    0.02181053   -0.02668491
     atom    2 type  1   force =     0.01462474    0.00520228   -0.00218005
     atom    3 type  1   force =    -0.00038065    0.02557677    0.00221930
     atom    4 type  1   force =     0.00406321    0.00619816   -0.02563381
     atom    5 type  1   force =    -0.00595369   -0.00410976   -0.00264934
     atom    6 type  1   force =    -0.00572348    0.01424573   -0.02629118
     atom    7 type  1   force =     0.00157579    0.00421065    0.00305148
     atom    8 type  1   force =     0.00565391    0.00139324    0.00250892
     atom    9 type  1   force =    -0.00510582    0.01781619   -0.00511701
     atom   10 type  1   force =     0.00287814    0.00280296   -0.02662942
     atom   11 type  1   force =     0.01098921   -0.00250776   -0.02571024
     atom   12 type  1   force =     0.00075320   -0.00268074   -0.00173119
     atom   13 type  1   force =     0.00617036    0.00170439   -0.00724921
     atom   14 type  1   force =    -0.00069092    0.00006832   -0.00449643
     atom   15 type  1   force =    -0.00261841   -0.00167031   -0.02703503
     atom   16 type  1   force =    -0.00415322    0.00189636   -0.00344797
     atom   17 type  1   force =    -0.01169883   -0.00429847   -0.00767995
     atom   18 type  1   force =    -0.00284267   -0.00278936    0.00559064
     atom   19 type  1   force =     0.00708133   -0.00219032    0.00625018
     atom   20 type  1   force =    -0.00025731   -0.00169871   -0.01896675
     atom   21 type  1   force =     0.00340509   -0.02381471   -0.01288340
     atom   22 type  1   force =     0.00374371    0.00033246    0.00137188
     atom   23 type  1   force =    -0.00351260    0.00008312   -0.03073236
     atom   24 type  1   force =    -0.01366564   -0.01694661    0.00081952
     atom   25 type  1   force =     0.00687175    0.01535380   -0.00388614
     atom   26 type  1   force =     0.00618563    0.00371193   -0.00482636
     atom   27 type  1   force =    -0.00169350    0.00043859    0.00518541
     atom   28 type  1   force =    -0.00348245    0.00376634    0.00077480
     atom   29 type  1   force =    -0.00147779    0.02381758    0.00197502
     atom   30 type  1   force =    -0.00269475   -0.00321112    0.00448264
     atom   31 type  1   force =    -0.00911643   -0.00268860    0.00304128
     atom   32 type  1   force =     0.00200335    0.00716607   -0.00207182
     atom   33 type  1   force =     0.00249850   -0.00148776   -0.00171495
     atom   34 type  1   force =     0.00884437   -0.00304948    0.00377136
     atom   35 type  1   force =    -0.00481457   -0.00245373    0.00023261
     atom   36 type  1   force =    -0.00157566   -0.00397419   -0.00382758
     atom   37 type  1   force =    -0.00219427    0.00130106    0.00518656
     atom   38 type  1   force =     0.00154750   -0.00141203    0.00083690
     atom   39 type  1   force =    -0.00211100    0.00359797    0.00254701
     atom   40 type  1   force =    -0.00118079   -0.00514654   -0.00380034
     atom   41 type  1   force =    -0.00733222    0.00561708   -0.00379336
     atom   42 type  1   force =    -0.00843147    0.00118072   -0.00598756
     atom   43 type  1   force =    -0.00208359   -0.02291128    0.00362721
     atom   44 type  1   force =     0.00597767    0.00078644   -0.00397789
     atom   45 type  1   force =     0.00215342   -0.02328133   -0.00446281
     atom   46 type  1   force =     0.00073805   -0.02451449   -0.00203243
     atom   47 type  1   force =    -0.00329641   -0.00419584   -0.00266390
     atom   48 type  1   force =    -0.00499873   -0.01481205   -0.00265349
     atom   49 type  1   force =     0.01362459   -0.00180665    0.00657140
     atom   50 type  1   force =     0.00333357    0.02492431    0.00468696
     atom   51 type  1   force =     0.00086168   -0.00095805    0.02427720
     atom   52 type  1   force =    -0.00408833    0.00097151   -0.00141937
     atom   53 type  1   force =    -0.00668852    0.01847632    0.00494154
     atom   54 type  1   force =    -0.01123076    0.00254867    0.02677282
     atom   55 type  1   force =    -0.00102188   -0.00010152    0.02362809
     atom   56 type  1   force =     0.00415057    0.00001862    0.00548999
     atom   57 type  1   force =     0.00152081    0.00267955    0.02872850
     atom   58 type  1   force =     0.00295548   -0.00185145    0.02380057
     atom   59 type  1   force =    -0.00269252    0.00401797    0.00754941
     atom   60 type  1   force =    -0.00947331   -0.00176021    0.02294153
     atom   61 type  1   force =     0.01257848   -0.00309693    0.00733497
     atom   62 type  1   force =    -0.00663064   -0.01958964    0.02818294
     atom   63 type  1   force =    -0.00488399   -0.00254275    0.00458333
     atom   64 type  1   force =     0.00458334   -0.01616331    0.02927427

     Total force =     0.147463     Total SCF correction =     0.000498


     Computing stress (Cartesian axis) and pressure

          total   stress  (Ry/bohr**3)                   (kbar)     P=       -3.15
   0.00001534   0.00002041  -0.00002365            2.26        3.00       -3.48
   0.00002041  -0.00007338  -0.00001121            3.00      -10.79       -1.65
  -0.00002365  -0.00001121  -0.00000629           -3.48       -1.65       -0.93

 
     init_run     :      0.98s CPU      4.90s WALL (       1 calls)
     electrons    :      1.01s CPU      1.10s WALL (       1 calls)
     forces       :      0.04s CPU      0.05s WALL (       1 calls)
     stress       :      0.14s CPU      0.15s WALL (       1 calls)

     Called by init_run:
     wfcinit      :      0.56s CPU      4.31s WALL (       1 calls)
                                        4.31s GPU  (       1 calls)
     potinit      :      0.20s CPU      0.29s WALL (       1 calls)
     hinit0       :      0.19s CPU      0.22s WALL (       1 calls)

     Called by electrons:
     c_bands      :      0.65s CPU      0.69s WALL (       9 calls)
     sum_band     :      0.20s CPU      0.22s WALL (       9 calls)
     v_of_rho     :      0.11s CPU      0.20s WALL (       9 calls)
     mix_rho      :      0.06s CPU      0.07s WALL (       9 calls)

     Called by c_bands:
     init_us_2    :      0.03s CPU      0.03s WALL (      19 calls)
     init_us_2:gp :      0.03s CPU      0.03s WALL (      19 calls)
     regterg      :      0.57s CPU      0.61s WALL (       9 calls)

     Called by *egterg:
     rdiaghg      :      0.20s CPU      0.96s WALL (      46 calls)
                                        0.96s GPU  (      46 calls)
     h_psi        :      0.83s CPU      3.84s WALL (      48 calls)
                                        3.84s GPU  (      48 calls)
     g_psi        :      0.00s CPU      0.00s WALL (      38 calls)
                                        0.00s GPU  (      38 calls)

     Called by h_psi:
     h_psi:calbec :      0.49s CPU      3.42s WALL (      48 calls)
                                        3.41s GPU  (      48 calls)
     vloc_psi     :      0.31s CPU      0.39s WALL (      48 calls)
                                        0.39s GPU  (      48 calls)
     add_vuspsi   :      0.02s CPU      0.03s WALL (      48 calls)
                                        0.03s GPU  (      48 calls)

     General routines
     calbec       :      0.49s CPU      3.42s WALL (      53 calls)
     fft          :      0.24s CPU      0.36s WALL (      79 calls)
                                        0.12s GPU  (      51 calls)
     ffts         :      0.03s CPU      0.03s WALL (       9 calls)
     fftw         :      0.33s CPU      0.47s WALL (     834 calls)
                                        0.43s GPU  (     834 calls)
 
     Parallel routines
 
     PWSCF        :      2.22s CPU      6.29s WALL

 
   This run was terminated on:  15:15:12   8May2023            

=------------------------------------------------------------------------------=
   JOB DONE.
=------------------------------------------------------------------------------=
