An instance of this daemon is already running
An instance of this daemon is already running

     Program PWSCF v.7.1 starts on  8May2023 at 15:16:25 

     This program is part of the open-source Quantum ESPRESSO suite
     for quantum simulation of materials; please cite
         "P. Giannozzi et al., J. Phys.:Condens. Matter 21 395502 (2009);
         "P. Giannozzi et al., J. Phys.:Condens. Matter 29 465901 (2017);
         "P. Giannozzi et al., J. Chem. Phys. 152 154105 (2020);
          URL http://www.quantum-espresso.org", 
     in publications or presentations arising from this work. More details at
     http://www.quantum-espresso.org/quote

     Parallel version (MPI & OpenMP), running on       4 processor cores
     Number of MPI processes:                 4
     Threads/MPI process:                     1

     MPI processes distributed on     1 nodes
     618753 MiB available memory on the printing compute node when the environment starts
 
     Reading input from pw-si-68.in
Warning: card &CELL ignored
Warning: card / ignored

     Current dimensions of program PWSCF are:
     Max number of different atomic species (ntypx) = 10
     Max number of k-points (npk) =  40000
     Max angular momentum in pseudopotentials (lmaxx) =  4

     IMPORTANT: XC functional enforced from input :
     Exchange-correlation= PBE
                           (   1   4   3   4   0   0   0)
     Any further DFT definition will be discarded
     Please, verify this is what you really want


     gamma-point specific algorithms are used
 
     K-points division:     npool     =       2
     R & G space division:  proc/nbgrp/npool/nimage =       2
     Subspace diagonalization in iterative solution of the eigenvalue problem:
     a serial algorithm will be used

     Message from routine divide_et_impera:
     suboptimal parallelization: some nodes have no k-points
 
     Parallelization info
     --------------------
     sticks:   dense  smooth     PW     G-vecs:    dense   smooth      PW
     Min        2076    2076    546               100316   100316   13598
     Max        2077    2077    547               100321   100321   13603
     Sum        4153    4153   1093               200637   200637   27201
 
     Using Slab Decomposition
 


     bravais-lattice index     =            0
     lattice parameter (alat)  =      20.8562  a.u.
     unit-cell volume          =    9037.7024 (a.u.)^3
     number of atoms/cell      =           64
     number of atomic types    =            1
     number of electrons       =       256.00
     number of Kohn-Sham states=          128
     kinetic-energy cutoff     =      30.0000  Ry
     charge density cutoff     =     120.0000  Ry
     scf convergence threshold =      1.0E-06
     mixing beta               =       0.5000
     number of iterations used =            8  plain     mixing
     Exchange-correlation= PBE
                           (   1   4   3   4   0   0   0)

     GPU acceleration is ACTIVE.
     GPU-aware MPI enabled

     Message from routine print_cuda_info:
     High GPU oversubscription detected. Are you sure this is what you want?

     celldm(1)=  20.856230  celldm(2)=   0.000000  celldm(3)=   0.000000
     celldm(4)=   0.000000  celldm(5)=   0.000000  celldm(6)=   0.000000

     crystal axes: (cart. coord. in units of alat)
               a(1) = (   1.000000   0.000000   0.000000 )  
               a(2) = (   0.000000   0.997774   0.000000 )  
               a(3) = (   0.000000   0.000000   0.998432 )  

     reciprocal axes: (cart. coord. in units 2 pi/alat)
               b(1) = (  1.000000  0.000000  0.000000 )  
               b(2) = (  0.000000  1.002231  0.000000 )  
               b(3) = (  0.000000  0.000000  1.001571 )  


     PseudoPot. # 1 for Si read from file:
     /home/ppiaggi/pseudos/Si_ONCV_PBE_sr.upf
     MD5 check sum: 8553c464762ac42b85b1eed164b4d029
     Pseudo is Norm-conserving, Zval =  4.0
     Generated using ONCVPSP code by D. R. Hamann
     Using radial grid of 1510 points,  4 beta functions with: 
                l(1) =   0
                l(2) =   0
                l(3) =   1
                l(4) =   1

     atomic species   valence    mass     pseudopotential
        Si             4.00    28.08500     Si( 1.00)

     No symmetry found



   Cartesian axes

     site n.     atom                  positions (alat units)
         1           Si  tau(   1) = (  -0.0005890  -0.0007639  -0.0000514  )
         2           Si  tau(   2) = (  -0.0002338   0.2478269   0.2482180  )
         3           Si  tau(   3) = (   0.2531524  -0.0008687   0.2479344  )
         4           Si  tau(   4) = (   0.2521687   0.2486738  -0.0008001  )
         5           Si  tau(   5) = (   0.1258886   0.1248827   0.1235556  )
         6           Si  tau(   6) = (   0.5043721   0.0004654  -0.0005133  )
         7           Si  tau(   7) = (   0.5055846   0.2482862   0.2482777  )
         8           Si  tau(   8) = (   0.6307837   0.1234329   0.1233307  )
         9           Si  tau(   9) = (   0.7574909  -0.0006193   0.2480155  )
        10           Si  tau(  10) = (   0.7579300   0.2483653  -0.0001762  )
        11           Si  tau(  11) = (   0.0000395   0.4961157   0.0002673  )
        12           Si  tau(  12) = (   0.2522494   0.4968058   0.2480069  )
        13           Si  tau(  13) = (   0.1257637   0.6199959   0.1234001  )
        14           Si  tau(  14) = (   0.3782620   0.3718535   0.1239218  )
        15           Si  tau(  15) = (   0.5050825   0.4970757   0.0002282  )
        16           Si  tau(  16) = (   0.6315519   0.6207594   0.1231709  )
        17           Si  tau(  17) = (   0.8843703   0.3716826   0.1239869  )
        18           Si  tau(  18) = (   0.7574528   0.4963805   0.2481293  )
        19           Si  tau(  19) = (   0.0002170   0.7440305   0.2475352  )
        20           Si  tau(  20) = (   0.2526836   0.7450828  -0.0008677  )
        21           Si  tau(  21) = (   0.3787756   0.8674933   0.1248229  )
        22           Si  tau(  22) = (   0.5048148   0.7441990   0.2482570  )
        23           Si  tau(  23) = (   0.7580470   0.7449374   0.0001713  )
        24           Si  tau(  24) = (   0.8842206   0.8690662   0.1242376  )
        25           Si  tau(  25) = (   0.0000798   0.0004809   0.4952227  )
        26           Si  tau(  26) = (   0.2530446   0.2488189   0.4953578  )
        27           Si  tau(  27) = (   0.1271229   0.1247794   0.6193912  )
        28           Si  tau(  28) = (   0.3786781   0.1232387   0.3714874  )
        29           Si  tau(  29) = (   0.5042012  -0.0005405   0.4961812  )
        30           Si  tau(  30) = (   0.6315221   0.1234739   0.6204040  )
        31           Si  tau(  31) = (   0.8840553   0.1242677   0.3715191  )
        32           Si  tau(  32) = (   0.7575871   0.2488318   0.4964121  )
        33           Si  tau(  33) = (   0.1260199   0.3720032   0.3724615  )
        34           Si  tau(  34) = (  -0.0004918   0.4955587   0.4957154  )
        35           Si  tau(  35) = (   0.1260156   0.6202701   0.6201092  )
        36           Si  tau(  36) = (   0.6306537   0.3719702   0.3720605  )
        37           Si  tau(  37) = (   0.3790254   0.6195940   0.3714412  )
        38           Si  tau(  38) = (   0.3789936   0.3729240   0.6193316  )
        39           Si  tau(  39) = (   0.5041549   0.4953581   0.4955675  )
        40           Si  tau(  40) = (   0.6317948   0.6207344   0.6202374  )
        41           Si  tau(  41) = (   0.8842957   0.6206905   0.3710964  )
        42           Si  tau(  42) = (   0.8828276   0.3716455   0.6192631  )
        43           Si  tau(  43) = (   0.1269255   0.8689795   0.3717274  )
        44           Si  tau(  44) = (   0.2525840   0.7446620   0.4961481  )
        45           Si  tau(  45) = (   0.6307144   0.8691470   0.3712285  )
        46           Si  tau(  46) = (   0.3784453   0.8679040   0.6200415  )
        47           Si  tau(  47) = (   0.7568011   0.7440734   0.4958580  )
        48           Si  tau(  48) = (   0.8835152   0.8689313   0.6197320  )
        49           Si  tau(  49) = (  -0.0009049   0.2480491   0.7445648  )
        50           Si  tau(  50) = (   0.2516290   0.0004346   0.7444780  )
        51           Si  tau(  51) = (   0.3793982   0.1245078   0.8669664  )
        52           Si  tau(  52) = (   0.5043185   0.2482204   0.7433475  )
        53           Si  tau(  53) = (   0.7581863  -0.0000768   0.7442140  )
        54           Si  tau(  54) = (   0.8831006   0.1235659   0.8670992  )
        55           Si  tau(  55) = (   0.1262249   0.3730301   0.8678432  )
        56           Si  tau(  56) = (   0.2530605   0.4968652   0.7443139  )
        57           Si  tau(  57) = (   0.6304779   0.3730337   0.8676410  )
        58           Si  tau(  58) = (   0.3791364   0.6204878   0.8686286  )
        59           Si  tau(  59) = (   0.7581301   0.4959627   0.7431963  )
        60           Si  tau(  60) = (   0.8841731   0.6204777   0.8685013  )
        61           Si  tau(  61) = (  -0.0006218   0.7439083   0.7430730  )
        62           Si  tau(  62) = (   0.1258937   0.8690238   0.8682472  )
        63           Si  tau(  63) = (   0.5047075   0.7448302   0.7431568  )
        64           Si  tau(  64) = (   0.6302786   0.8685489   0.8670363  )

     number of k points=     1
                       cart. coord. in units 2pi/alat
        k(    1) = (   0.0000000   0.0000000   0.0000000), wk =   2.0000000

     Dense  grid:   100319 G-vectors     FFT dimensions: (  75,  75,  75)

     Estimated max dynamical RAM per process >     147.98 MB

     Estimated total dynamical RAM >     567.44 MB

     Initial potential from superposition of free atoms

     starting charge     255.9608, renormalised to     256.0000
     Starting wfcs are  256 randomized atomic wfcs

     total cpu time spent up to now is        5.0 secs

     Self-consistent Calculation

     iteration #  1     ecut=    30.00 Ry     beta= 0.50
     Davidson diagonalization with overlap
     ethr =  1.00E-02,  avg # of iterations =  2.0

     Threshold (ethr) on eigenvalues was too large:
     Diagonalizing with lowered threshold

     Davidson diagonalization with overlap
     ethr =  6.30E-04,  avg # of iterations =  2.0

     total cpu time spent up to now is        5.2 secs

     total energy              =    -503.94259167 Ry
     estimated scf accuracy    <       1.80500366 Ry

     iteration #  2     ecut=    30.00 Ry     beta= 0.50
     Davidson diagonalization with overlap
     ethr =  7.05E-04,  avg # of iterations =  1.0

     total cpu time spent up to now is        5.3 secs

     total energy              =    -503.91556352 Ry
     estimated scf accuracy    <       0.35896614 Ry

     iteration #  3     ecut=    30.00 Ry     beta= 0.50
     Davidson diagonalization with overlap
     ethr =  1.40E-04,  avg # of iterations =  2.0

     total cpu time spent up to now is        5.4 secs

     total energy              =    -503.94082437 Ry
     estimated scf accuracy    <       0.00588547 Ry

     iteration #  4     ecut=    30.00 Ry     beta= 0.50
     Davidson diagonalization with overlap
     ethr =  2.30E-06,  avg # of iterations =  7.0

     total cpu time spent up to now is        5.5 secs

     total energy              =    -503.94435008 Ry
     estimated scf accuracy    <       0.00040906 Ry

     iteration #  5     ecut=    30.00 Ry     beta= 0.50
     Davidson diagonalization with overlap
     ethr =  1.60E-07,  avg # of iterations =  5.0

     total cpu time spent up to now is        5.7 secs

     total energy              =    -503.94452311 Ry
     estimated scf accuracy    <       0.00003821 Ry

     iteration #  6     ecut=    30.00 Ry     beta= 0.50
     Davidson diagonalization with overlap
     ethr =  1.49E-08,  avg # of iterations =  6.0

     total cpu time spent up to now is        5.8 secs

     total energy              =    -503.94454090 Ry
     estimated scf accuracy    <       0.00001250 Ry

     iteration #  7     ecut=    30.00 Ry     beta= 0.50
     Davidson diagonalization with overlap
     ethr =  4.88E-09,  avg # of iterations =  4.0

     total cpu time spent up to now is        6.0 secs

     total energy              =    -503.94454428 Ry
     estimated scf accuracy    <       0.00000293 Ry

     iteration #  8     ecut=    30.00 Ry     beta= 0.50
     Davidson diagonalization with overlap
     ethr =  1.15E-09,  avg # of iterations =  2.0

     total cpu time spent up to now is        6.0 secs

     End of self-consistent calculation

          k = 0.0000 0.0000 0.0000 ( 12603 PWs)   bands (ev):

    -5.8750  -4.8907  -4.8715  -4.8570  -4.7997  -4.7827  -4.7473  -4.0547
    -4.0048  -3.9873  -3.9359  -3.9202  -3.8981  -3.8887  -3.8670  -3.8567
    -3.8109  -3.8048  -3.7802  -3.6817  -3.6087  -3.5984  -3.4976  -1.9992
    -1.9766  -1.9306  -1.8491  -1.8275  -1.8235  -1.7906  -1.7821  -1.7432
    -1.7348  -1.7238  -1.7065  -1.6941  -1.6807  -1.6577  -1.6478  -1.6356
    -1.6193  -1.0288  -0.9915  -0.9671  -0.8556   0.3561   0.3570   0.3655
     0.3753   0.3871   0.3920   0.4234   0.4324   0.4357   0.4423   0.4496
     0.4732   2.0098   2.0202   2.0241   2.0317   2.0957   2.1054   2.1112
     2.1175   2.1293   2.1347   2.1438   2.1520   2.1906   2.1994   2.2163
     2.2216   2.2421   2.2522   2.2578   2.2612   2.2664   2.2732   2.2778
     2.3010   2.3263   2.3273   2.3450   2.3600   2.3696   2.3759   3.0180
     3.0500   3.0591   3.0850   3.1012   3.1188   3.8894   3.9522   3.9657
     3.9696   3.9800   3.9967   4.0143   4.0240   4.0686   4.0955   4.1000
     4.1070   4.2238   4.4722   4.4749   4.4936   4.5160   4.5305   4.5406
     4.5615   4.5704   4.5798   4.5917   4.6045   4.6265   4.6407   4.6564
     4.6762   4.7053   4.7336   4.7995   4.8702   5.7720   5.7907   5.9316

     highest occupied level (ev):     5.9316

!    total energy              =    -503.94454428 Ry
     estimated scf accuracy    <       0.00000077 Ry

     The total energy is the sum of the following terms:
     one-electron contribution =     140.66685618 Ry
     hartree contribution      =      37.63715869 Ry
     xc contribution           =    -153.00356801 Ry
     ewald contribution        =    -529.24499115 Ry

     convergence has been achieved in   8 iterations

     Forces acting on atoms (cartesian axes, Ry/au):

     atom    1 type  1   force =     0.03105594   -0.00670027   -0.01957066
     atom    2 type  1   force =     0.03646703    0.00190627   -0.00168874
     atom    3 type  1   force =    -0.00371193   -0.01047968   -0.00426300
     atom    4 type  1   force =     0.00220986   -0.00209314   -0.01916790
     atom    5 type  1   force =     0.00564178   -0.00777944   -0.00115413
     atom    6 type  1   force =    -0.00172489   -0.01916802   -0.01738354
     atom    7 type  1   force =    -0.00394636   -0.00440270   -0.00401816
     atom    8 type  1   force =     0.00344959    0.00167172   -0.00001450
     atom    9 type  1   force =    -0.00358477   -0.01071766   -0.00198237
     atom   10 type  1   force =    -0.00727089   -0.00152310   -0.02066096
     atom   11 type  1   force =     0.03089571    0.00221545   -0.02245144
     atom   12 type  1   force =    -0.00102006   -0.00398978   -0.00180502
     atom   13 type  1   force =     0.00750533    0.00367262   -0.00240269
     atom   14 type  1   force =     0.00249146    0.00259698   -0.00087623
     atom   15 type  1   force =    -0.00192174   -0.00372481   -0.01865208
     atom   16 type  1   force =     0.00009146    0.00040770    0.00289956
     atom   17 type  1   force =    -0.03643808    0.00197696   -0.00061629
     atom   18 type  1   force =    -0.00337289   -0.00093951   -0.00300263
     atom   19 type  1   force =     0.03576932    0.00607498   -0.00032419
     atom   20 type  1   force =    -0.00189765   -0.00143160   -0.01480573
     atom   21 type  1   force =     0.00065343    0.01930187   -0.00749731
     atom   22 type  1   force =     0.00319781   -0.00029476   -0.00244618
     atom   23 type  1   force =    -0.00561161    0.00312977   -0.02226196
     atom   24 type  1   force =    -0.03385997    0.01229729   -0.00240518
     atom   25 type  1   force =     0.03361497   -0.01802528    0.00528892
     atom   26 type  1   force =     0.00110850   -0.00294780    0.00070598
     atom   27 type  1   force =    -0.00225676   -0.00131176    0.00223663
     atom   28 type  1   force =     0.00170691    0.00264876    0.00154493
     atom   29 type  1   force =     0.00277346   -0.01367648    0.00039870
     atom   30 type  1   force =    -0.00180721    0.00026282   -0.00219477
     atom   31 type  1   force =    -0.03829796   -0.00227461    0.00244470
     atom   32 type  1   force =    -0.00699197   -0.00725841   -0.00442807
     atom   33 type  1   force =     0.00382993    0.00121370   -0.00410282
     atom   34 type  1   force =     0.03357948    0.00364522    0.00115974
     atom   35 type  1   force =     0.00396183   -0.00129992   -0.00220952
     atom   36 type  1   force =     0.00347801    0.00157466    0.00019669
     atom   37 type  1   force =    -0.00270203    0.00428496    0.00341758
     atom   38 type  1   force =    -0.00356757   -0.00330946    0.00373018
     atom   39 type  1   force =     0.00684913    0.00710018    0.00213974
     atom   40 type  1   force =    -0.00553901   -0.00461302   -0.00293716
     atom   41 type  1   force =    -0.03627836   -0.00202064    0.00527418
     atom   42 type  1   force =    -0.02710054    0.00145230    0.00473676
     atom   43 type  1   force =    -0.00023104    0.01205682   -0.00019532
     atom   44 type  1   force =     0.00016665   -0.00219569   -0.00245395
     atom   45 type  1   force =     0.00007479    0.01134595    0.00450435
     atom   46 type  1   force =    -0.00261971    0.01987000    0.00169760
     atom   47 type  1   force =     0.00019640    0.00587428   -0.00337243
     atom   48 type  1   force =    -0.03100951    0.01529702   -0.00415877
     atom   49 type  1   force =     0.03801693    0.00169423   -0.00374026
     atom   50 type  1   force =     0.00463252   -0.01671831   -0.00104950
     atom   51 type  1   force =    -0.00583883   -0.00206004    0.02272794
     atom   52 type  1   force =     0.00502746    0.00161712    0.00135862
     atom   53 type  1   force =    -0.00858801   -0.01783658   -0.00041455
     atom   54 type  1   force =    -0.02840602   -0.00312400    0.02810717
     atom   55 type  1   force =     0.00154604   -0.00245042    0.01786512
     atom   56 type  1   force =    -0.00073607   -0.00041091    0.00032601
     atom   57 type  1   force =     0.00221848   -0.00260999    0.01890504
     atom   58 type  1   force =     0.00054116    0.00288424    0.01554779
     atom   59 type  1   force =    -0.00558543    0.00289566    0.00697641
     atom   60 type  1   force =    -0.03351732   -0.00347342    0.01823781
     atom   61 type  1   force =     0.03578806    0.00584822    0.00655642
     atom   62 type  1   force =     0.00154009    0.01101039    0.01443615
     atom   63 type  1   force =     0.00036860   -0.00270742    0.00486472
     atom   64 type  1   force =     0.00498606    0.01574050    0.02242255

     Total force =     0.173244     Total SCF correction =     0.001179


     Computing stress (Cartesian axis) and pressure

          total   stress  (Ry/bohr**3)                   (kbar)     P=       -8.62
  -0.00007134   0.00001984   0.00001292          -10.49        2.92        1.90
   0.00001984  -0.00004948  -0.00003477            2.92       -7.28       -5.12
   0.00001292  -0.00003477  -0.00005498            1.90       -5.12       -8.09

 
     init_run     :      0.97s CPU      4.90s WALL (       1 calls)
     electrons    :      0.99s CPU      1.08s WALL (       1 calls)
     forces       :      0.04s CPU      0.05s WALL (       1 calls)
     stress       :      0.14s CPU      0.15s WALL (       1 calls)

     Called by init_run:
     wfcinit      :      0.56s CPU      4.30s WALL (       1 calls)
                                        4.30s GPU  (       1 calls)
     potinit      :      0.20s CPU      0.30s WALL (       1 calls)
     hinit0       :      0.19s CPU      0.22s WALL (       1 calls)

     Called by electrons:
     c_bands      :      0.62s CPU      0.65s WALL (       9 calls)
     sum_band     :      0.21s CPU      0.23s WALL (       9 calls)
     v_of_rho     :      0.10s CPU      0.20s WALL (       9 calls)
     mix_rho      :      0.06s CPU      0.07s WALL (       9 calls)

     Called by c_bands:
     init_us_2    :      0.03s CPU      0.03s WALL (      19 calls)
     init_us_2:gp :      0.03s CPU      0.03s WALL (      19 calls)
     regterg      :      0.53s CPU      0.56s WALL (       9 calls)

     Called by *egterg:
     rdiaghg      :      0.18s CPU      0.94s WALL (      39 calls)
                                        0.93s GPU  (      39 calls)
     h_psi        :      0.81s CPU      3.81s WALL (      41 calls)
                                        3.81s GPU  (      41 calls)
     g_psi        :      0.00s CPU      0.00s WALL (      31 calls)
                                        0.00s GPU  (      31 calls)

     Called by h_psi:
     h_psi:calbec :      0.47s CPU      3.40s WALL (      41 calls)
                                        3.40s GPU  (      41 calls)
     vloc_psi     :      0.31s CPU      0.38s WALL (      41 calls)
                                        0.38s GPU  (      41 calls)
     add_vuspsi   :      0.02s CPU      0.03s WALL (      41 calls)
                                        0.02s GPU  (      41 calls)

     General routines
     calbec       :      0.48s CPU      3.41s WALL (      46 calls)
     fft          :      0.24s CPU      0.36s WALL (      79 calls)
                                        0.12s GPU  (      51 calls)
     ffts         :      0.03s CPU      0.04s WALL (       9 calls)
     fftw         :      0.33s CPU      0.46s WALL (     816 calls)
                                        0.42s GPU  (     816 calls)
 
     Parallel routines
 
     PWSCF        :      2.19s CPU      6.26s WALL

 
   This run was terminated on:  15:16:31   8May2023            

=------------------------------------------------------------------------------=
   JOB DONE.
=------------------------------------------------------------------------------=
