An instance of this daemon is already running

     Program PWSCF v.7.1 starts on 10May2023 at 11:16:49 

     This program is part of the open-source Quantum ESPRESSO suite
     for quantum simulation of materials; please cite
         "P. Giannozzi et al., J. Phys.:Condens. Matter 21 395502 (2009);
         "P. Giannozzi et al., J. Phys.:Condens. Matter 29 465901 (2017);
         "P. Giannozzi et al., J. Chem. Phys. 152 154105 (2020);
          URL http://www.quantum-espresso.org", 
     in publications or presentations arising from this work. More details at
     http://www.quantum-espresso.org/quote

     Parallel version (MPI & OpenMP), running on       4 processor cores
     Number of MPI processes:                 4
     Threads/MPI process:                     1

     MPI processes distributed on     1 nodes
     753552 MiB available memory on the printing compute node when the environment starts
 
     Reading input from pw-si-40.in
Warning: card &CELL ignored
Warning: card / ignored

     Current dimensions of program PWSCF are:
     Max number of different atomic species (ntypx) = 10
     Max number of k-points (npk) =  40000
     Max angular momentum in pseudopotentials (lmaxx) =  4

     IMPORTANT: XC functional enforced from input :
     Exchange-correlation= PBE
                           (   1   4   3   4   0   0   0)
     Any further DFT definition will be discarded
     Please, verify this is what you really want


     gamma-point specific algorithms are used
 
     K-points division:     npool     =       2
     R & G space division:  proc/nbgrp/npool/nimage =       2
     Subspace diagonalization in iterative solution of the eigenvalue problem:
     a serial algorithm will be used

     Message from routine divide_et_impera:
     suboptimal parallelization: some nodes have no k-points
 
     Parallelization info
     --------------------
     sticks:   dense  smooth     PW     G-vecs:    dense   smooth      PW
     Min        2153    2153    565               103038   103038   14001
     Max        2154    2154    566               103039   103039   14002
     Sum        4307    4307   1131               206077   206077   28003
 
     Using Slab Decomposition
 


     bravais-lattice index     =            0
     lattice parameter (alat)  =      21.2997  a.u.
     unit-cell volume          =    9280.3124 (a.u.)^3
     number of atoms/cell      =           64
     number of atomic types    =            1
     number of electrons       =       256.00
     number of Kohn-Sham states=          154
     kinetic-energy cutoff     =      30.0000  Ry
     charge density cutoff     =     120.0000  Ry
     scf convergence threshold =      1.0E-06
     mixing beta               =       0.5000
     number of iterations used =            8  plain     mixing
     Exchange-correlation= PBE
                           (   1   4   3   4   0   0   0)

     GPU acceleration is ACTIVE.
     GPU-aware MPI enabled

     Message from routine print_cuda_info:
     High GPU oversubscription detected. Are you sure this is what you want?

     celldm(1)=  21.299735  celldm(2)=   0.000000  celldm(3)=   0.000000
     celldm(4)=   0.000000  celldm(5)=   0.000000  celldm(6)=   0.000000

     crystal axes: (cart. coord. in units of alat)
               a(1) = (   1.000000   0.000000   0.000000 )  
               a(2) = (   0.000000   0.993817   0.000000 )  
               a(3) = (   0.000000   0.000000   0.966348 )  

     reciprocal axes: (cart. coord. in units 2 pi/alat)
               b(1) = (  1.000000  0.000000  0.000000 )  
               b(2) = (  0.000000  1.006221  0.000000 )  
               b(3) = (  0.000000  0.000000  1.034824 )  


     PseudoPot. # 1 for Si read from file:
     /home/ppiaggi/pseudos/Si_ONCV_PBE_sr.upf
     MD5 check sum: 8553c464762ac42b85b1eed164b4d029
     Pseudo is Norm-conserving, Zval =  4.0
     Generated using ONCVPSP code by D. R. Hamann
     Using radial grid of 1510 points,  4 beta functions with: 
                l(1) =   0
                l(2) =   0
                l(3) =   1
                l(4) =   1

     atomic species   valence    mass     pseudopotential
        Si             4.00    28.08500     Si( 1.00)

     No symmetry found



   Cartesian axes

     site n.     atom                  positions (alat units)
         1           Si  tau(   1) = (  -0.0069111   0.0044793  -0.0003569  )
         2           Si  tau(   2) = (  -0.0029875   0.2428733   0.2300051  )
         3           Si  tau(   3) = (   0.2517324  -0.0087621   0.2274732  )
         4           Si  tau(   4) = (   0.2352217   0.2375264   0.0025101  )
         5           Si  tau(   5) = (   0.1134166   0.1187087   0.1221989  )
         6           Si  tau(   6) = (   0.4860573   0.0081430  -0.0035957  )
         7           Si  tau(   7) = (   0.4889015   0.2382724   0.2367715  )
         8           Si  tau(   8) = (   0.6125835   0.1136650   0.1209877  )
         9           Si  tau(   9) = (   0.7259216  -0.0053008   0.2266970  )
        10           Si  tau(  10) = (   0.7273930   0.2396825   0.0044284  )
        11           Si  tau(  11) = (  -0.0083358   0.4916033   0.0084560  )
        12           Si  tau(  12) = (   0.2368454   0.4962825   0.2294112  )
        13           Si  tau(  13) = (   0.1251782   0.6135509   0.1215864  )
        14           Si  tau(  14) = (   0.3671015   0.3601139   0.1191290  )
        15           Si  tau(  15) = (   0.4897740   0.4858415  -0.0049015  )
        16           Si  tau(  16) = (   0.6039031   0.6193292   0.1197948  )
        17           Si  tau(  17) = (   0.8528265   0.3602661   0.1127525  )
        18           Si  tau(  18) = (   0.7309960   0.4885217   0.2356109  )
        19           Si  tau(  19) = (   0.0033517   0.7270054   0.2300386  )
        20           Si  tau(  20) = (   0.2380216   0.7306165   0.0001261  )
        21           Si  tau(  21) = (   0.3700902   0.8623322   0.1114530  )
        22           Si  tau(  22) = (   0.4919554   0.7307897   0.2373894  )
        23           Si  tau(  23) = (   0.7229268   0.7385755   0.0050642  )
        24           Si  tau(  24) = (   0.8551235   0.8496061   0.1156579  )
        25           Si  tau(  25) = (  -0.0045165   0.0037831   0.4638804  )
        26           Si  tau(  26) = (   0.2509665   0.2433749   0.4656998  )
        27           Si  tau(  27) = (   0.1209373   0.1220620   0.5958598  )
        28           Si  tau(  28) = (   0.3662611   0.1182400   0.3524675  )
        29           Si  tau(  29) = (   0.4934965  -0.0087632   0.4662768  )
        30           Si  tau(  30) = (   0.6042785   0.1153959   0.5879708  )
        31           Si  tau(  31) = (   0.8509836   0.1306806   0.3563251  )
        32           Si  tau(  32) = (   0.7207755   0.2452293   0.4699904  )
        33           Si  tau(  33) = (   0.1241838   0.3750401   0.3547206  )
        34           Si  tau(  34) = (   0.0057753   0.4951507   0.4775900  )
        35           Si  tau(  35) = (   0.1177002   0.6140739   0.5889043  )
        36           Si  tau(  36) = (   0.5993774   0.3679056   0.3585161  )
        37           Si  tau(  37) = (   0.3557299   0.6174293   0.3453042  )
        38           Si  tau(  38) = (   0.3681689   0.3710295   0.5918685  )
        39           Si  tau(  39) = (   0.4855770   0.4923311   0.4682790  )
        40           Si  tau(  40) = (   0.6050229   0.6062208   0.5821632  )
        41           Si  tau(  41) = (   0.8589841   0.6031778   0.3527122  )
        42           Si  tau(  42) = (   0.8531530   0.3649653   0.5955130  )
        43           Si  tau(  43) = (   0.1260322   0.8517985   0.3484968  )
        44           Si  tau(  44) = (   0.2348552   0.7264280   0.4633389  )
        45           Si  tau(  45) = (   0.6007005   0.8477222   0.3563687  )
        46           Si  tau(  46) = (   0.3663619   0.8634096   0.5959281  )
        47           Si  tau(  47) = (   0.7230515   0.7378290   0.4684952  )
        48           Si  tau(  48) = (   0.8505192   0.8532362   0.5848118  )
        49           Si  tau(  49) = (  -0.0034169   0.2406412   0.7005217  )
        50           Si  tau(  50) = (   0.2510535  -0.0051389   0.7085743  )
        51           Si  tau(  51) = (   0.3664672   0.1273599   0.8236042  )
        52           Si  tau(  52) = (   0.4812572   0.2521803   0.7006760  )
        53           Si  tau(  53) = (   0.7224926  -0.0010115   0.7107399  )
        54           Si  tau(  54) = (   0.8506253   0.1212129   0.8292850  )
        55           Si  tau(  55) = (   0.1301994   0.3633808   0.8249540  )
        56           Si  tau(  56) = (   0.2358384   0.4856505   0.7128068  )
        57           Si  tau(  57) = (   0.6116676   0.3606990   0.8253851  )
        58           Si  tau(  58) = (   0.3670673   0.6164545   0.8220679  )
        59           Si  tau(  59) = (   0.7321537   0.4812658   0.7008434  )
        60           Si  tau(  60) = (   0.8456479   0.6157041   0.8145070  )
        61           Si  tau(  61) = (   0.0086175   0.7382239   0.7078013  )
        62           Si  tau(  62) = (   0.1236061   0.8603200   0.8146275  )
        63           Si  tau(  63) = (   0.4846561   0.7273518   0.7020032  )
        64           Si  tau(  64) = (   0.6081174   0.8568649   0.8309292  )

     number of k points=     1  Fermi-Dirac smearing, width (Ry)=  0.0100
                       cart. coord. in units 2pi/alat
        k(    1) = (   0.0000000   0.0000000   0.0000000), wk =   2.0000000

     Dense  grid:   103039 G-vectors     FFT dimensions: (  75,  75,  72)

     Estimated max dynamical RAM per process >     164.27 MB

     Estimated total dynamical RAM >     631.92 MB

     Initial potential from superposition of free atoms

     starting charge     255.9608, renormalised to     256.0000
     Starting wfcs are  256 randomized atomic wfcs

     total cpu time spent up to now is        5.0 secs

     Self-consistent Calculation

     iteration #  1     ecut=    30.00 Ry     beta= 0.50
     Davidson diagonalization with overlap
     ethr =  1.00E-02,  avg # of iterations =  3.0

     Threshold (ethr) on eigenvalues was too large:
     Diagonalizing with lowered threshold

     Davidson diagonalization with overlap
     ethr =  6.09E-04,  avg # of iterations =  4.0

     total cpu time spent up to now is        5.3 secs

     total energy              =    -503.32102513 Ry
     estimated scf accuracy    <       1.73868335 Ry

     iteration #  2     ecut=    30.00 Ry     beta= 0.50
     Davidson diagonalization with overlap
     ethr =  6.79E-04,  avg # of iterations =  2.0

     total cpu time spent up to now is        5.4 secs

     total energy              =    -503.28528254 Ry
     estimated scf accuracy    <       0.40659320 Ry

     iteration #  3     ecut=    30.00 Ry     beta= 0.50
     Davidson diagonalization with overlap
     ethr =  1.59E-04,  avg # of iterations =  7.0

     total cpu time spent up to now is        5.6 secs

     total energy              =    -503.16965776 Ry
     estimated scf accuracy    <       1.22345282 Ry

     iteration #  4     ecut=    30.00 Ry     beta= 0.50
     Davidson diagonalization with overlap
     ethr =  1.59E-04,  avg # of iterations =  5.0

     total cpu time spent up to now is        5.7 secs

     total energy              =    -503.35314329 Ry
     estimated scf accuracy    <       0.06102223 Ry

     iteration #  5     ecut=    30.00 Ry     beta= 0.50
     Davidson diagonalization with overlap
     ethr =  2.38E-05,  avg # of iterations =  9.0

     total cpu time spent up to now is        5.9 secs

     total energy              =    -503.35606001 Ry
     estimated scf accuracy    <       0.02394219 Ry

     iteration #  6     ecut=    30.00 Ry     beta= 0.50
     Davidson diagonalization with overlap
     ethr =  9.35E-06,  avg # of iterations =  6.0

     total cpu time spent up to now is        6.0 secs

     total energy              =    -503.35824351 Ry
     estimated scf accuracy    <       0.00415016 Ry

     iteration #  7     ecut=    30.00 Ry     beta= 0.50
     Davidson diagonalization with overlap
     c_bands:  2 eigenvalues not converged
     ethr =  1.62E-06,  avg # of iterations = 20.0

     total cpu time spent up to now is        6.3 secs

     total energy              =    -503.35913648 Ry
     estimated scf accuracy    <       0.00070395 Ry

     iteration #  8     ecut=    30.00 Ry     beta= 0.50
     Davidson diagonalization with overlap
     ethr =  2.75E-07,  avg # of iterations =  9.0

     total cpu time spent up to now is        6.4 secs

     total energy              =    -503.35916486 Ry
     estimated scf accuracy    <       0.00023528 Ry

     iteration #  9     ecut=    30.00 Ry     beta= 0.50
     Davidson diagonalization with overlap
     ethr =  9.19E-08,  avg # of iterations =  3.0

     total cpu time spent up to now is        6.5 secs

     total energy              =    -503.35918277 Ry
     estimated scf accuracy    <       0.00004528 Ry

     iteration # 10     ecut=    30.00 Ry     beta= 0.50
     Davidson diagonalization with overlap
     ethr =  1.77E-08,  avg # of iterations =  5.0

     total cpu time spent up to now is        6.7 secs

     total energy              =    -503.35919113 Ry
     estimated scf accuracy    <       0.00000469 Ry

     iteration # 11     ecut=    30.00 Ry     beta= 0.50
     Davidson diagonalization with overlap
     ethr =  1.83E-09,  avg # of iterations =  4.0

     total cpu time spent up to now is        6.8 secs

     total energy              =    -503.35919251 Ry
     estimated scf accuracy    <       0.00000134 Ry

     iteration # 12     ecut=    30.00 Ry     beta= 0.50
     Davidson diagonalization with overlap
     ethr =  5.24E-10,  avg # of iterations =  3.0

     total cpu time spent up to now is        6.9 secs

     End of self-consistent calculation

          k = 0.0000 0.0000 0.0000 ( 12878 PWs)   bands (ev):

    -6.1646  -5.3732  -5.2679  -5.2184  -5.0271  -4.9232  -4.8115  -4.5657
    -4.5117  -4.4400  -4.2770  -4.2455  -4.1827  -4.1607  -4.1250  -4.0726
    -4.0419  -3.9438  -3.8356  -3.7778  -3.7353  -3.5991  -3.2540  -2.4860
    -2.4030  -2.3549  -2.2716  -2.2125  -2.1767  -2.1262  -2.1131  -2.0992
    -2.0055  -1.9333  -1.8784  -1.8512  -1.8096  -1.7586  -1.7494  -1.5939
    -1.5236  -1.3668  -1.1653  -1.1310  -0.9289  -0.1102  -0.0709  -0.0214
     0.0292   0.0957   0.1028   0.1503   0.1670   0.1989   0.2862   0.3118
     0.3606   1.5304   1.5556   1.5808   1.6017   1.6491   1.6705   1.7007
     1.7526   1.7920   1.8097   1.8325   1.8478   1.8888   1.8976   1.9352
     1.9417   1.9518   1.9893   2.0214   2.0899   2.1176   2.1556   2.1889
     2.2530   2.3359   2.3557   2.3591   2.4167   2.4685   2.5485   2.6540
     2.6991   2.8594   2.8616   3.0061   3.0424   3.3736   3.4691   3.5553
     3.6049   3.6567   3.6959   3.7856   3.8092   3.8609   3.9031   3.9218
     3.9614   3.9842   4.0312   4.0976   4.1178   4.1498   4.1691   4.1873
     4.2285   4.2732   4.2961   4.3864   4.3929   4.4359   4.4710   4.5287
     4.5570   4.6640   4.8307   5.0945   5.3222   5.4270   5.6775   5.7770
     5.9007   5.9959   6.1564   6.2639   6.3894   6.4429   6.4871   6.5772
     6.5913   6.6277   6.6704   6.6847   6.7094   6.7899   6.8374   6.9555
     7.3909   7.5213   7.5398   7.5861   7.7065   7.7265   7.7375   7.8024
     7.8756   7.8897

     the Fermi energy is     5.8238 ev

!    total energy              =    -503.35919216 Ry
     estimated scf accuracy    <       0.00000074 Ry
     smearing contrib. (-TS)   =      -0.07056959 Ry
     internal energy E=F+TS    =    -503.28862257 Ry

     The total energy is F=E-TS. E is the sum of the following terms:
     one-electron contribution =     127.35053808 Ry
     hartree contribution      =      41.41639696 Ry
     xc contribution           =    -151.97205510 Ry
     ewald contribution        =    -520.08350251 Ry

     convergence has been achieved in  12 iterations

     Forces acting on atoms (cartesian axes, Ry/au):

     atom    1 type  1   force =    -0.04531310   -0.05775746   -0.06268655
     atom    2 type  1   force =    -0.05270511    0.03847318    0.04911581
     atom    3 type  1   force =    -0.03504148   -0.00300392    0.02765667
     atom    4 type  1   force =     0.03047043    0.01841740   -0.05470526
     atom    5 type  1   force =     0.02873360   -0.02820464   -0.01443921
     atom    6 type  1   force =    -0.00111311   -0.04538899   -0.05396336
     atom    7 type  1   force =     0.00450884    0.00792259    0.00009239
     atom    8 type  1   force =    -0.04055119    0.04088992   -0.03277381
     atom    9 type  1   force =     0.06539073   -0.06626188    0.07332703
     atom   10 type  1   force =     0.01490368   -0.00266360   -0.07666557
     atom   11 type  1   force =    -0.01704344   -0.01352145   -0.07831067
     atom   12 type  1   force =     0.05793070   -0.06443296    0.02438418
     atom   13 type  1   force =    -0.05028041   -0.00748684   -0.06370265
     atom   14 type  1   force =    -0.02246018    0.01576390   -0.02006926
     atom   15 type  1   force =    -0.00475161    0.01188102   -0.03871508
     atom   16 type  1   force =     0.03141600   -0.07299320   -0.02660498
     atom   17 type  1   force =     0.03968905    0.02524886    0.02038031
     atom   18 type  1   force =    -0.00497056   -0.01696848   -0.00628056
     atom   19 type  1   force =    -0.08087710    0.03732757    0.03672600
     atom   20 type  1   force =     0.03866971    0.04595996   -0.07704930
     atom   21 type  1   force =     0.00249783   -0.01413428   -0.01403377
     atom   22 type  1   force =    -0.07044347    0.03556860   -0.01240196
     atom   23 type  1   force =     0.02524537   -0.00502450   -0.08547846
     atom   24 type  1   force =     0.05022093    0.04909762    0.01103648
     atom   25 type  1   force =    -0.02409172   -0.03641113    0.01481948
     atom   26 type  1   force =    -0.03306831    0.01522837    0.03831651
     atom   27 type  1   force =     0.02071660   -0.02875367   -0.05559733
     atom   28 type  1   force =     0.00618801   -0.02899305   -0.01348387
     atom   29 type  1   force =    -0.04182836   -0.01097802    0.02335800
     atom   30 type  1   force =    -0.00127510    0.02451729    0.00314539
     atom   31 type  1   force =     0.03204035   -0.03631754   -0.04157624
     atom   32 type  1   force =     0.03399767    0.00531432    0.03351489
     atom   33 type  1   force =    -0.01916457   -0.03690434   -0.01360775
     atom   34 type  1   force =    -0.09861003   -0.04287381   -0.02485175
     atom   35 type  1   force =     0.02901304   -0.00300560    0.03146697
     atom   36 type  1   force =     0.03246285   -0.00484936   -0.04361425
     atom   37 type  1   force =     0.03511727   -0.02990079    0.00656069
     atom   38 type  1   force =    -0.05111640    0.02170549   -0.03914434
     atom   39 type  1   force =    -0.05070336    0.00904724   -0.00966211
     atom   40 type  1   force =     0.03208643    0.01590295    0.02276640
     atom   41 type  1   force =     0.03451288    0.03491945    0.01062426
     atom   42 type  1   force =     0.06843108   -0.03073778   -0.05762455
     atom   43 type  1   force =    -0.03835921    0.05853850   -0.01809041
     atom   44 type  1   force =     0.03225747    0.05114467    0.05757878
     atom   45 type  1   force =     0.03419815    0.07732267   -0.03450677
     atom   46 type  1   force =     0.00068488   -0.02458128   -0.06212380
     atom   47 type  1   force =     0.05756297   -0.05146368    0.01085602
     atom   48 type  1   force =     0.04827112    0.05243786    0.02234848
     atom   49 type  1   force =    -0.04937924    0.02732783    0.06212040
     atom   50 type  1   force =    -0.02514619    0.01411213    0.01036074
     atom   51 type  1   force =    -0.01782879   -0.00819531    0.05751632
     atom   52 type  1   force =     0.04845726   -0.04908777    0.03810313
     atom   53 type  1   force =     0.04088282   -0.04523366    0.00558267
     atom   54 type  1   force =     0.03960369    0.00438344    0.03081624
     atom   55 type  1   force =    -0.08448196   -0.03447862    0.07871813
     atom   56 type  1   force =     0.05117950    0.05010359   -0.03235699
     atom   57 type  1   force =    -0.00407663    0.00759419    0.04897890
     atom   58 type  1   force =    -0.03936086   -0.04397340    0.07681784
     atom   59 type  1   force =    -0.02717757    0.03758850    0.03385744
     atom   60 type  1   force =     0.04870417    0.02087982    0.07136774
     atom   61 type  1   force =    -0.11030983   -0.01269996   -0.01872015
     atom   62 type  1   force =     0.00893324    0.03585311    0.10950637
     atom   63 type  1   force =     0.03326123    0.04718785    0.01778387
     atom   64 type  1   force =    -0.01671065    0.01962109    0.02323619

     Total force =     0.568699     Total SCF correction =     0.001662


     Computing stress (Cartesian axis) and pressure

          total   stress  (Ry/bohr**3)                   (kbar)     P=      -18.89
  -0.00018350  -0.00000271   0.00000877          -26.99       -0.40        1.29
  -0.00000271  -0.00013974   0.00004655           -0.40      -20.56        6.85
   0.00000877   0.00004655  -0.00006198            1.29        6.85       -9.12

 
     init_run     :      1.06s CPU      4.96s WALL (       1 calls)
     electrons    :      1.76s CPU      1.89s WALL (       1 calls)
     forces       :      0.04s CPU      0.05s WALL (       1 calls)
     stress       :      0.17s CPU      0.17s WALL (       1 calls)

     Called by init_run:
     wfcinit      :      0.55s CPU      4.26s WALL (       1 calls)
                                        4.26s GPU  (       1 calls)
     potinit      :      0.21s CPU      0.31s WALL (       1 calls)
     hinit0       :      0.28s CPU      0.31s WALL (       1 calls)

     Called by electrons:
     c_bands      :      1.14s CPU      1.21s WALL (      13 calls)
     sum_band     :      0.33s CPU      0.36s WALL (      13 calls)
     v_of_rho     :      0.15s CPU      0.26s WALL (      13 calls)
     mix_rho      :      0.12s CPU      0.14s WALL (      13 calls)

     Called by c_bands:
     init_us_2    :      0.05s CPU      0.05s WALL (      27 calls)
     init_us_2:gp :      0.05s CPU      0.05s WALL (      27 calls)
     regterg      :      1.02s CPU      1.09s WALL (      13 calls)

     Called by *egterg:
     rdiaghg      :      0.42s CPU      1.19s WALL (      92 calls)
                                        1.17s GPU  (      92 calls)
     h_psi        :      0.98s CPU      3.97s WALL (      94 calls)
                                        3.96s GPU  (      94 calls)
     g_psi        :      0.00s CPU      0.00s WALL (      80 calls)
                                        0.00s GPU  (      80 calls)

     Called by h_psi:
     h_psi:calbec :      0.49s CPU      3.40s WALL (      94 calls)
                                        3.40s GPU  (      94 calls)
     vloc_psi     :      0.44s CPU      0.51s WALL (      94 calls)
                                        0.51s GPU  (      94 calls)
     add_vuspsi   :      0.04s CPU      0.05s WALL (      94 calls)
                                        0.05s GPU  (      94 calls)

     General routines
     calbec       :      0.49s CPU      3.40s WALL (      99 calls)
     fft          :      0.37s CPU      0.51s WALL (     111 calls)
                                        0.13s GPU  (      71 calls)
     ffts         :      0.04s CPU      0.05s WALL (      13 calls)
     fftw         :      0.48s CPU      0.64s WALL (    1447 calls)
                                        0.58s GPU  (    1447 calls)
 
     Parallel routines
 
     PWSCF        :      3.08s CPU      7.16s WALL

 
   This run was terminated on:  11:16:57  10May2023            

=------------------------------------------------------------------------------=
   JOB DONE.
=------------------------------------------------------------------------------=
