ITEM: TIMESTEP
0
ITEM: NUMBER OF ATOMS
64
ITEM: BOX BOUNDS pp pp pp
1.0325114681729985e-01 1.0758148853182631e+01
1.0325114681729985e-01 1.0758148853182631e+01
1.0325114681729985e-01 1.0758148853182631e+01
ITEM: ATOMS id type xs ys zs
20 1 0.084409 0.255912 0.100879
2 1 0.135187 0.107293 0.273491
28 1 0.302211 0.295455 0.131399
8 1 0.434746 0.111052 0.0684177
26 1 0.0436746 0.449987 0.254009
56 1 0.374708 0.443548 0.0100936
29 1 0.294511 0.110651 0.437964
10 1 0.138073 0.345241 0.441088
6 1 0.361262 0.369146 0.337257
14 1 0.531116 0.103324 0.315157
44 1 0.857928 0.100405 0.0538523
62 1 0.689925 0.278984 0.268119
38 1 0.72842 0.297908 0.0646549
64 1 0.844146 0.483959 0.0598094
45 1 0.918375 0.054778 0.360504
35 1 0.864296 0.292929 0.415801
43 1 0.574161 0.440287 0.343107
61 1 0.25877 0.961349 0.136883
37 1 0.0797129 0.67085 0.140731
53 1 0.0257063 0.902105 0.109845
48 1 0.407865 0.72079 0.219585
4 1 0.374293 0.795413 0.0156807
47 1 0.256589 0.601703 0.349032
40 1 0.0197017 0.823011 0.346296
59 1 0.365269 0.888736 0.368592
17 1 0.539924 0.575395 0.147951
12 1 0.827323 0.509938 0.274688
23 1 0.596994 0.911919 0.014914
27 1 0.724593 0.725823 0.217308
46 1 0.726401 0.96729 0.241728
24 1 0.741364 0.673598 0.00995046
42 1 0.613238 0.635041 0.449871
21 1 0.570214 0.901766 0.46668
34 1 0.875301 0.686109 0.455344
15 1 0.222736 0.0122523 0.642154
1 1 0.0716565 0.213097 0.626711
30 1 0.16625 0.488475 0.626507
22 1 0.0029311 0.0247058 0.857174
54 1 0.32538 0.154833 0.854507
60 1 0.0417356 0.251401 0.874555
18 1 0.237508 0.361726 0.831555
49 1 0.407532 0.423303 0.668712
39 1 0.502507 0.266065 0.525925
52 1 0.73385 0.258141 0.63224
3 1 0.888643 0.0910982 0.630277
25 1 0.916626 0.484699 0.578541
51 1 0.521477 0.11813 0.71357
31 1 0.559541 0.307116 0.92719
5 1 0.723066 0.0395737 0.846585
13 1 0.627369 0.494653 0.830119
50 1 0.869192 0.370075 0.819696
11 1 0.420557 0.66658 0.604557
36 1 0.213697 0.744963 0.514115
16 1 0.454304 0.894935 0.657434
55 1 0.215627 0.606099 0.977931
32 1 0.0272167 0.54068 0.875838
7 1 0.213171 0.958416 0.879059
33 1 0.218019 0.738285 0.754795
19 1 0.685649 0.506922 0.608958
41 1 0.793746 0.885745 0.551402
9 1 0.533999 0.732816 0.815133
57 1 0.917487 0.77572 0.924599
58 1 0.987368 0.720967 0.701648
63 1 0.752978 0.835753 0.765725
ITEM: TIMESTEP
10
ITEM: NUMBER OF ATOMS
64
ITEM: BOX BOUNDS pp pp pp
1.0397273838439958e-01 1.0757427261615533e+01
1.0397273838439958e-01 1.0757427261615533e+01
1.0397273838439958e-01 1.0757427261615533e+01
ITEM: ATOMS id type xs ys zs
20 1 0.0792546 0.252923 0.108485
2 1 0.140303 0.115323 0.279621
28 1 0.305279 0.285458 0.136665
8 1 0.434978 0.114691 0.0642589
26 1 0.0372414 0.453025 0.265255
56 1 0.374801 0.448283 0.0069214
29 1 0.294012 0.0945893 0.43708
10 1 0.145393 0.334481 0.433103
6 1 0.361154 0.373021 0.335451
14 1 0.532376 0.112366 0.30597
44 1 0.87155 0.105601 0.0511429
62 1 0.688355 0.291558 0.270144
38 1 0.735843 0.282939 0.0519945
64 1 0.842312 0.471565 0.0553032
45 1 0.922842 0.0536518 0.356343
35 1 0.864487 0.278407 0.421081
43 1 0.573189 0.443104 0.3509
61 1 0.255586 0.963113 0.140229
37 1 0.0865645 0.672642 0.15435
53 1 0.0165482 0.90745 0.110199
48 1 0.405035 0.714346 0.22345
4 1 0.378955 0.794406 0.0270754
47 1 0.264207 0.609111 0.337744
40 1 0.0218819 0.824195 0.357779
59 1 0.356732 0.899806 0.368746
17 1 0.533263 0.567866 0.139641
12 1 0.816698 0.507793 0.276942
23 1 0.605445 0.912274 0.0150498
27 1 0.728985 0.727905 0.216408
46 1 0.71651 0.964137 0.244132
24 1 0.739912 0.679018 0.0177832
42 1 0.613312 0.645954 0.447526
21 1 0.579797 0.901535 0.461924
34 1 0.86682 0.669349 0.440861
15 1 0.210066 0.00776659 0.647439
1 1 0.0749808 0.216113 0.624857
30 1 0.168874 0.490594 0.619755
22 1 0.00505926 0.0225416 0.847915
54 1 0.327902 0.156312 0.860991
60 1 0.0513427 0.260734 0.867232
18 1 0.23686 0.354986 0.826104
49 1 0.412579 0.427202 0.663339
39 1 0.494918 0.2759 0.530782
52 1 0.732515 0.25644 0.632151
3 1 0.88896 0.0868962 0.630471
25 1 0.911236 0.477179 0.5774
51 1 0.513306 0.117242 0.717735
31 1 0.552096 0.309812 0.924739
5 1 0.720991 0.0307861 0.851294
13 1 0.635948 0.497234 0.831142
50 1 0.86657 0.373095 0.805721
11 1 0.422468 0.665863 0.608555
36 1 0.207938 0.752196 0.51407
16 1 0.456007 0.898607 0.661628
55 1 0.228354 0.607056 0.966452
32 1 0.0175593 0.532952 0.868088
7 1 0.217482 0.967693 0.886656
33 1 0.216435 0.73595 0.762402
19 1 0.692314 0.513604 0.617211
41 1 0.789411 0.895573 0.549396
9 1 0.526914 0.732905 0.81721
57 1 0.924348 0.777003 0.9237
58 1 0.989887 0.720769 0.707196
63 1 0.749288 0.826029 0.766705
ITEM: TIMESTEP
20
ITEM: NUMBER OF ATOMS
64
ITEM: BOX BOUNDS pp pp pp
1.0608646813766764e-01 1.0755313531862264e+01
1.0608646813766764e-01 1.0755313531862264e+01
1.0608646813766764e-01 1.0755313531862264e+01
ITEM: ATOMS id type xs ys zs
20 1 0.0738132 0.250813 0.116111
2 1 0.143425 0.123339 0.285538
28 1 0.307276 0.275059 0.143323
8 1 0.435964 0.117553 0.0613202
26 1 0.0317911 0.456101 0.274281
56 1 0.377173 0.45305 0.00291568
29 1 0.29333 0.0811731 0.438863
10 1 0.153075 0.323659 0.426005
6 1 0.35841 0.378842 0.335163
14 1 0.534473 0.120403 0.296479
44 1 0.887053 0.108645 0.0473981
62 1 0.689123 0.299812 0.271789
38 1 0.741809 0.266568 0.0395163
64 1 0.84223 0.461207 0.0486382
45 1 0.927449 0.0512812 0.351892
35 1 0.864636 0.263986 0.426857
43 1 0.569229 0.449952 0.359026
61 1 0.251825 0.965156 0.14264
37 1 0.094396 0.673771 0.169818
53 1 0.00745634 0.911271 0.110245
48 1 0.403354 0.712256 0.229661
4 1 0.384171 0.794725 0.0342661
47 1 0.267706 0.612059 0.327727
40 1 0.0244879 0.825014 0.368072
59 1 0.34977 0.906531 0.366899
17 1 0.52923 0.558448 0.129878
12 1 0.806494 0.506162 0.280084
23 1 0.612996 0.912613 0.0162815
27 1 0.73262 0.731694 0.222235
46 1 0.706106 0.960644 0.245691
24 1 0.736961 0.682228 0.0198995
42 1 0.612259 0.657748 0.446881
21 1 0.588563 0.901153 0.456385
34 1 0.858084 0.654079 0.426615
15 1 0.198406 0.00390379 0.652419
1 1 0.0801984 0.218976 0.6233
30 1 0.171849 0.491894 0.61366
22 1 0.00445235 0.0217919 0.837944
54 1 0.333858 0.156681 0.866347
60 1 0.058647 0.267305 0.861348
18 1 0.240938 0.351036 0.817323
49 1 0.414125 0.435098 0.660097
39 1 0.488097 0.283309 0.534499
52 1 0.730184 0.255129 0.631973
3 1 0.8896 0.0815542 0.631952
25 1 0.907513 0.469532 0.576131
51 1 0.506566 0.116782 0.722736
31 1 0.543862 0.311939 0.922991
5 1 0.718052 0.0236112 0.856389
13 1 0.644414 0.501854 0.83231
50 1 0.862399 0.377487 0.790483
11 1 0.424518 0.664328 0.613439
36 1 0.202191 0.759895 0.513612
16 1 0.457367 0.902792 0.665696
55 1 0.239155 0.610999 0.954318
32 1 0.00770988 0.526255 0.861102
7 1 0.221904 0.974737 0.893939
33 1 0.214856 0.733751 0.770367
19 1 0.698498 0.519584 0.624715
41 1 0.785744 0.904411 0.548201
9 1 0.521125 0.733742 0.818917
57 1 0.931369 0.779121 0.922684
58 1 0.991894 0.71962 0.713078
63 1 0.745999 0.814802 0.767534
ITEM: TIMESTEP
30
ITEM: NUMBER OF ATOMS
64
ITEM: BOX BOUNDS pp pp pp
1.0923857704725748e-01 1.0752161422952671e+01
1.0923857704725748e-01 1.0752161422952671e+01
1.0923857704725748e-01 1.0752161422952671e+01
ITEM: ATOMS id type xs ys zs
20 1 0.0681741 0.250111 0.12236
2 1 0.144876 0.131271 0.291708
28 1 0.307476 0.266962 0.150307
8 1 0.43926 0.118721 0.0606761
26 1 0.0268415 0.45915 0.281306
56 1 0.379996 0.454688 0.998793
29 1 0.290727 0.0755813 0.446792
10 1 0.160591 0.313001 0.42006
6 1 0.353776 0.387198 0.336024
14 1 0.537306 0.127558 0.28615
44 1 0.906312 0.109285 0.042338
62 1 0.692741 0.304858 0.271725
38 1 0.744242 0.25069 0.0281448
64 1 0.843322 0.453319 0.0408807
45 1 0.931953 0.0464969 0.347026
35 1 0.863988 0.2494 0.433203
43 1 0.5629 0.459961 0.367759
61 1 0.247417 0.966785 0.144085
37 1 0.10317 0.674387 0.187285
53 1 0.998669 0.913501 0.110231
48 1 0.409391 0.716103 0.234258
4 1 0.389998 0.796345 0.0368971
47 1 0.262653 0.607538 0.322688
40 1 0.0261425 0.82497 0.377195
59 1 0.346267 0.903034 0.3603
17 1 0.527285 0.549754 0.120364
12 1 0.795772 0.50182 0.279556
23 1 0.618927 0.911638 0.0202006
27 1 0.736266 0.736543 0.233745
46 1 0.694709 0.956726 0.246894
24 1 0.73289 0.683367 0.0169631
42 1 0.610069 0.66994 0.448655
21 1 0.594674 0.901014 0.449851
34 1 0.85056 0.642596 0.413992
15 1 0.187184 9.75689e-05 0.657029
1 1 0.0865593 0.221548 0.622059
30 1 0.17504 0.492416 0.608109
22 1 0.00256143 0.0220123 0.827562
54 1 0.34251 0.157177 0.870024
60 1 0.0605465 0.271374 0.857091
18 1 0.251535 0.351102 0.804789
49 1 0.41108 0.447574 0.659876
39 1 0.483149 0.287318 0.536216
52 1 0.726808 0.25311 0.631508
3 1 0.891488 0.0769949 0.635113
25 1 0.906417 0.461213 0.573555
51 1 0.502159 0.117408 0.727554
31 1 0.536518 0.314108 0.92194
5 1 0.71507 0.0179578 0.860406
13 1 0.652317 0.507701 0.836078
50 1 0.856746 0.381182 0.774547
11 1 0.426495 0.66315 0.618866
36 1 0.197285 0.767662 0.513052
16 1 0.458488 0.906208 0.668957
55 1 0.248079 0.617676 0.943588
32 1 0.998784 0.521062 0.855625
7 1 0.224731 0.979034 0.901264
33 1 0.213488 0.732947 0.776894
19 1 0.703351 0.526823 0.629276
41 1 0.783679 0.911522 0.549193
9 1 0.516345 0.73547 0.820321
57 1 0.937554 0.782231 0.922622
58 1 0.993429 0.717416 0.718827
63 1 0.743492 0.803109 0.76754
ITEM: TIMESTEP
40
ITEM: NUMBER OF ATOMS
64
ITEM: BOX BOUNDS pp pp pp
1.1299533871897260e-01 1.0748404661280961e+01
1.1299533871897260e-01 1.0748404661280961e+01
1.1299533871897260e-01 1.0748404661280961e+01
ITEM: ATOMS id type xs ys zs
20 1 0.0636247 0.252159 0.126416
2 1 0.145209 0.136157 0.296669
28 1 0.305367 0.262254 0.157324
8 1 0.445357 0.117743 0.0636086
26 1 0.0225995 0.461789 0.286283
56 1 0.37994 0.452971 0.993914
29 1 0.286201 0.0765858 0.460656
10 1 0.166715 0.304986 0.417376
6 1 0.348798 0.397269 0.337113
14 1 0.541249 0.133954 0.274687
44 1 0.926995 0.108432 0.0356706
62 1 0.697101 0.306997 0.270996
38 1 0.743142 0.237101 0.0179884
64 1 0.844943 0.447561 0.0325599
45 1 0.936184 0.0389362 0.341821
35 1 0.86206 0.235612 0.439561
43 1 0.556148 0.470159 0.376208
61 1 0.242711 0.967308 0.144854
37 1 0.109228 0.675781 0.204435
53 1 0.99154 0.913404 0.110996
48 1 0.421553 0.722522 0.237936
4 1 0.395795 0.798865 0.0346052
47 1 0.25379 0.597172 0.322737
40 1 0.0251466 0.823912 0.383672
59 1 0.345406 0.891585 0.349888
17 1 0.52846 0.544526 0.113602
12 1 0.784719 0.492787 0.272096
23 1 0.622186 0.908511 0.0276612
27 1 0.739838 0.740789 0.245768
46 1 0.683007 0.953215 0.247244
24 1 0.728144 0.683183 0.0121472
42 1 0.606474 0.680683 0.452908
21 1 0.596738 0.901934 0.443261
34 1 0.846977 0.637913 0.406786
15 1 0.176773 0.996458 0.660885
1 1 0.0932525 0.223834 0.621466
30 1 0.177795 0.492248 0.603278
22 1 0.00106515 0.0223974 0.81904
54 1 0.351139 0.158538 0.871917
60 1 0.0583996 0.274582 0.853898
18 1 0.26521 0.353736 0.790641
49 1 0.404249 0.460716 0.661496
39 1 0.480583 0.288911 0.536733
52 1 0.722063 0.249324 0.630403
3 1 0.894515 0.0755129 0.639271
25 1 0.90855 0.45303 0.567429
51 1 0.502119 0.119201 0.730066
31 1 0.532192 0.316108 0.921147
5 1 0.712928 0.0146045 0.861739
13 1 0.658761 0.514143 0.843594
50 1 0.849888 0.382198 0.761074
11 1 0.428511 0.66484 0.623713
36 1 0.194878 0.774904 0.513451
16 1 0.459361 0.907628 0.670888
55 1 0.256794 0.623592 0.939591
32 1 0.992274 0.517915 0.852864
7 1 0.224964 0.980529 0.907915
33 1 0.211749 0.736344 0.777454
19 1 0.706455 0.536172 0.629822
41 1 0.783347 0.915405 0.552929
9 1 0.512749 0.738172 0.821548
57 1 0.941794 0.786477 0.924182
58 1 0.994305 0.714091 0.723531
63 1 0.742217 0.792546 0.76648
ITEM: TIMESTEP
50
ITEM: NUMBER OF ATOMS
64
ITEM: BOX BOUNDS pp pp pp
1.1703602870755248e-01 1.0744363971292376e+01
1.1703602870755248e-01 1.0744363971292376e+01
1.1703602870755248e-01 1.0744363971292376e+01
ITEM: ATOMS id type xs ys zs
20 1 0.0614168 0.258521 0.129223
2 1 0.144463 0.134862 0.298307
28 1 0.301411 0.260335 0.164319
8 1 0.453068 0.115093 0.069662
26 1 0.0189532 0.463918 0.289675
56 1 0.375753 0.449162 0.988521
29 1 0.281153 0.0784648 0.477557
10 1 0.171527 0.301873 0.420167
6 1 0.345078 0.406964 0.337626
14 1 0.54695 0.140162 0.262132
44 1 0.946546 0.107619 0.0261196
62 1 0.699283 0.303266 0.271067
38 1 0.740452 0.224435 0.00762933
64 1 0.846692 0.442759 0.0235176
45 1 0.940575 0.0290101 0.335905
35 1 0.858723 0.222194 0.445522
43 1 0.550134 0.478999 0.384203
61 1 0.237771 0.966534 0.145448
37 1 0.107999 0.680338 0.21869
53 1 0.986638 0.910554 0.113973
48 1 0.436145 0.725478 0.241269
4 1 0.401585 0.801811 0.0285039
47 1 0.248818 0.584415 0.327365
40 1 0.0207192 0.821776 0.387303
59 1 0.343717 0.880927 0.340139
17 1 0.532866 0.54307 0.109793
12 1 0.775455 0.484552 0.259149
23 1 0.623042 0.903576 0.0374227
27 1 0.742676 0.744143 0.254852
46 1 0.671251 0.950845 0.245967
24 1 0.723228 0.682398 0.00736058
42 1 0.601389 0.688583 0.459382
21 1 0.595174 0.905108 0.438423
34 1 0.847897 0.637061 0.404917
15 1 0.167078 0.992782 0.66414
1 1 0.100238 0.226079 0.6219
30 1 0.179222 0.491445 0.598695
22 1 0.00132673 0.021834 0.814773
54 1 0.357679 0.160405 0.873473
60 1 0.054755 0.278883 0.850568
18 1 0.277126 0.355703 0.777764
49 1 0.396091 0.470927 0.661888
39 1 0.480134 0.290362 0.537541
52 1 0.715044 0.242845 0.628501
3 1 0.897452 0.0780563 0.64229
25 1 0.913628 0.445791 0.556013
51 1 0.508003 0.121594 0.72856
31 1 0.532009 0.317453 0.920326
5 1 0.711279 0.0135305 0.861099
13 1 0.664057 0.521154 0.854051
50 1 0.84211 0.38049 0.751953
11 1 0.431007 0.67227 0.627082
36 1 0.195694 0.782042 0.515733
16 1 0.46018 0.907017 0.671394
55 1 0.266511 0.628344 0.943134
32 1 0.987763 0.516121 0.852914
7 1 0.223258 0.980364 0.913541
33 1 0.209386 0.744573 0.771224
19 1 0.7086 0.548059 0.627532
41 1 0.783492 0.915424 0.559245
9 1 0.510337 0.742038 0.82303
57 1 0.943693 0.791838 0.927114
58 1 0.99409 0.709514 0.727076
63 1 0.742438 0.783175 0.764234
ITEM: TIMESTEP
60
ITEM: NUMBER OF ATOMS
64
ITEM: BOX BOUNDS pp pp pp
1.2117421190101574e-01 1.0740225788098916e+01
1.2117421190101574e-01 1.0740225788098916e+01
1.2117421190101574e-01 1.0740225788098916e+01
ITEM: ATOMS id type xs ys zs
20 1 0.06188 0.269363 0.131667
2 1 0.143128 0.127412 0.296528
28 1 0.296807 0.260386 0.170439
8 1 0.459372 0.1116 0.0753267
26 1 0.016121 0.465512 0.291897
56 1 0.369089 0.444497 0.984272
29 1 0.276134 0.0793401 0.494726
10 1 0.175141 0.303594 0.427807
6 1 0.345637 0.410261 0.336913
14 1 0.55449 0.145678 0.251103
44 1 0.962978 0.107909 0.0139928
62 1 0.698806 0.29176 0.273696
38 1 0.737898 0.212028 0.996397
64 1 0.84789 0.438187 0.0145557
45 1 0.945285 0.0185398 0.329375
35 1 0.85391 0.209293 0.449905
43 1 0.546039 0.485461 0.391075
61 1 0.232915 0.964569 0.146338
37 1 0.0996394 0.68813 0.228819
53 1 0.984198 0.905872 0.1199
48 1 0.451894 0.721415 0.242134
4 1 0.407317 0.804932 0.0213666
47 1 0.246424 0.575897 0.334974
40 1 0.0134491 0.818241 0.389417
59 1 0.338643 0.87602 0.334291
17 1 0.539262 0.54436 0.107902
12 1 0.769829 0.484073 0.243257
23 1 0.622022 0.897926 0.0453609
27 1 0.743813 0.746806 0.259331
46 1 0.660652 0.950311 0.243447
24 1 0.718995 0.682235 0.00402272
42 1 0.595492 0.692878 0.466951
21 1 0.591126 0.910866 0.437821
34 1 0.85263 0.63584 0.407112
15 1 0.159004 0.988775 0.666372
1 1 0.107258 0.228286 0.624028
30 1 0.178117 0.490196 0.593841
22 1 0.00369072 0.0193243 0.816787
54 1 0.361765 0.16171 0.875608
60 1 0.0506654 0.284839 0.846828
18 1 0.28257 0.352894 0.770305
49 1 0.390716 0.479246 0.657501
39 1 0.481823 0.292964 0.539689
52 1 0.705413 0.233966 0.62615
3 1 0.898919 0.0843709 0.64193
25 1 0.920437 0.439935 0.540578
51 1 0.519318 0.123875 0.722985
31 1 0.536258 0.318015 0.919876
5 1 0.709265 0.0141711 0.860399
13 1 0.66831 0.527455 0.864591
50 1 0.834145 0.377574 0.746661
11 1 0.433749 0.685061 0.628568
36 1 0.199138 0.789486 0.519809
16 1 0.460993 0.905323 0.670505
55 1 0.275754 0.634249 0.950045
32 1 0.984867 0.514714 0.854957
7 1 0.220851 0.979569 0.917574
33 1 0.207549 0.755165 0.762015
19 1 0.711018 0.561622 0.624651
41 1 0.782676 0.911588 0.567257
9 1 0.509612 0.747101 0.825327
57 1 0.942984 0.797662 0.930069
58 1 0.992376 0.703796 0.729842
63 1 0.744081 0.774796 0.761024
ITEM: TIMESTEP
70
ITEM: NUMBER OF ATOMS
64
ITEM: BOX BOUNDS pp pp pp
1.2521099102567668e-01 1.0736189008974257e+01
1.2521099102567668e-01 1.0736189008974257e+01
1.2521099102567668e-01 1.0736189008974257e+01
ITEM: ATOMS id type xs ys zs
20 1 0.0639174 0.283313 0.133969
2 1 0.142269 0.117278 0.293369
28 1 0.292622 0.261536 0.174851
8 1 0.461215 0.107421 0.0761843
26 1 0.0141744 0.46686 0.29322
56 1 0.361965 0.439012 0.98182
29 1 0.271043 0.0797756 0.510827
10 1 0.177794 0.307287 0.437021
6 1 0.352292 0.403417 0.334491
14 1 0.561854 0.148635 0.244497
44 1 0.97685 0.11054 0.00236708
62 1 0.701807 0.279753 0.280334
38 1 0.736408 0.199946 0.984068
64 1 0.847542 0.432837 0.00694523
45 1 0.949984 0.00962706 0.322505
35 1 0.847205 0.196877 0.451497
43 1 0.544024 0.489651 0.396725
61 1 0.228177 0.961541 0.14768
37 1 0.0881398 0.696311 0.235474
53 1 0.983986 0.901039 0.128061
48 1 0.468067 0.712224 0.241035
4 1 0.413037 0.808681 0.0156158
47 1 0.240494 0.576718 0.343679
40 1 0.00431116 0.813028 0.393374
59 1 0.330754 0.874929 0.331422
17 1 0.546771 0.546833 0.107014
12 1 0.765578 0.489 0.225073
23 1 0.619528 0.891897 0.0476146
27 1 0.743197 0.748497 0.260125
46 1 0.652122 0.951641 0.241945
24 1 0.71626 0.685049 0.00388578
42 1 0.589708 0.694923 0.473848
21 1 0.585976 0.918178 0.442611
34 1 0.859552 0.632946 0.41206
15 1 0.15269 0.983715 0.66749
1 1 0.114161 0.230284 0.628696
30 1 0.173776 0.488839 0.588059
22 1 0.00687415 0.0140591 0.822504
54 1 0.365182 0.161539 0.877851
60 1 0.0463652 0.292352 0.84285
18 1 0.281362 0.344628 0.768904
49 1 0.389357 0.487949 0.648371
39 1 0.48554 0.297289 0.543349
52 1 0.694244 0.223734 0.623383
3 1 0.899215 0.0925586 0.639051
25 1 0.928191 0.434888 0.523094
51 1 0.533204 0.125192 0.715427
31 1 0.544005 0.318447 0.920326
5 1 0.705956 0.0153535 0.860575
13 1 0.671206 0.530739 0.872308
50 1 0.82633 0.374949 0.742601
11 1 0.435338 0.699589 0.628895
36 1 0.203574 0.797809 0.524266
16 1 0.462131 0.90519 0.668331
55 1 0.283171 0.642642 0.956529
32 1 0.983548 0.513222 0.857513
7 1 0.218767 0.978745 0.920064
33 1 0.206996 0.76623 0.753223
19 1 0.714865 0.57627 0.622585
41 1 0.780364 0.904941 0.576298
9 1 0.511293 0.753064 0.82843
57 1 0.93977 0.803671 0.931814
58 1 0.98929 0.697261 0.732788
63 1 0.746842 0.766565 0.757108
ITEM: TIMESTEP
80
ITEM: NUMBER OF ATOMS
64
ITEM: BOX BOUNDS pp pp pp
1.2870525074327777e-01 1.0732694749256662e+01
1.2870525074327777e-01 1.0732694749256662e+01
1.2870525074327777e-01 1.0732694749256662e+01
ITEM: ATOMS id type xs ys zs
20 1 0.0662615 0.298359 0.135851
2 1 0.142932 0.107855 0.290365
28 1 0.289406 0.262433 0.176081
8 1 0.457374 0.102689 0.0713295
26 1 0.0130794 0.468096 0.293476
56 1 0.355628 0.433175 0.981089
29 1 0.266502 0.0806636 0.523965
10 1 0.179854 0.310943 0.444651
6 1 0.361823 0.391889 0.331238
14 1 0.564879 0.147451 0.241964
44 1 0.988303 0.118239 0.995869
62 1 0.714124 0.275053 0.291054
38 1 0.737054 0.190222 0.971812
64 1 0.844864 0.425777 0.00174879
45 1 0.953513 0.0044615 0.317139
35 1 0.838568 0.185337 0.449209
43 1 0.543847 0.492083 0.401305
61 1 0.223654 0.957334 0.148663
37 1 0.076587 0.702182 0.237696
53 1 0.98592 0.896304 0.135466
48 1 0.483088 0.70217 0.240316
4 1 0.417756 0.813751 0.013001
47 1 0.231635 0.582394 0.35322
40 1 0.993976 0.807629 0.402913
59 1 0.322323 0.874365 0.330243
17 1 0.55512 0.548559 0.106127
12 1 0.760815 0.495204 0.205695
23 1 0.616764 0.886492 0.0434791
27 1 0.74144 0.748359 0.258781
46 1 0.646094 0.953305 0.243132
24 1 0.7159 0.69215 0.00817256
42 1 0.585105 0.696414 0.47776
21 1 0.58097 0.925666 0.45244
34 1 0.866246 0.628743 0.418474
15 1 0.1474 0.977266 0.66795
1 1 0.120433 0.231528 0.636396
30 1 0.166832 0.488439 0.581396
22 1 0.00925582 0.00503935 0.82641
54 1 0.369333 0.159398 0.879403
60 1 0.0423363 0.300298 0.839137
18 1 0.276438 0.334585 0.771064
49 1 0.389549 0.495192 0.637779
39 1 0.490547 0.303701 0.547998
52 1 0.686983 0.215574 0.618131
3 1 0.899428 0.0995645 0.636611
25 1 0.936733 0.430242 0.505214
51 1 0.54334 0.122689 0.710034
31 1 0.553583 0.31951 0.921945
5 1 0.700715 0.015062 0.860929
13 1 0.672176 0.529011 0.875379
50 1 0.818755 0.373334 0.73809
11 1 0.433545 0.711048 0.629243
36 1 0.207658 0.80684 0.526621
16 1 0.464331 0.910812 0.665412
55 1 0.288125 0.651782 0.960609
32 1 0.98398 0.511875 0.859556
7 1 0.218002 0.978224 0.921568
33 1 0.207591 0.775985 0.7472
19 1 0.720567 0.590411 0.621518
41 1 0.776816 0.897407 0.585235
9 1 0.515855 0.759213 0.831018
57 1 0.934368 0.809786 0.932106
58 1 0.985769 0.69083 0.736474
63 1 0.750377 0.75852 0.753748
ITEM: TIMESTEP
90
ITEM: NUMBER OF ATOMS
64
ITEM: BOX BOUNDS pp pp pp
1.3105123317318235e-01 1.0730348766826761e+01
1.3105123317318235e-01 1.0730348766826761e+01
1.3105123317318235e-01 1.0730348766826761e+01
ITEM: ATOMS id type xs ys zs
20 1 0.0680813 0.312644 0.136953
2 1 0.145932 0.101378 0.288605
28 1 0.28681 0.261927 0.172904
8 1 0.449781 0.0978219 0.0647977
26 1 0.0130946 0.469699 0.291519
56 1 0.350821 0.427727 0.981635
29 1 0.263527 0.0826342 0.532527
10 1 0.181975 0.312924 0.448669
6 1 0.371116 0.381317 0.329508
14 1 0.563921 0.146162 0.241316
44 1 0.997464 0.13213 0.995026
62 1 0.731547 0.277679 0.301669
38 1 0.741108 0.186167 0.962145
64 1 0.840416 0.416513 0.998612
45 1 0.954345 0.00404737 0.316379
35 1 0.830074 0.173839 0.444199
43 1 0.54477 0.49314 0.405146
61 1 0.219709 0.951755 0.147876
37 1 0.0666381 0.704692 0.235803
53 1 0.989562 0.890567 0.138464
48 1 0.495422 0.694729 0.242324
4 1 0.419145 0.820386 0.0142175
47 1 0.222784 0.588275 0.362977
40 1 0.983575 0.804531 0.418431
59 1 0.315006 0.872748 0.330301
17 1 0.562944 0.547359 0.103408
12 1 0.755935 0.500185 0.187794
23 1 0.615715 0.884907 0.0362184
27 1 0.739222 0.74597 0.256683
46 1 0.642463 0.952409 0.246553
24 1 0.718965 0.700449 0.0147199
42 1 0.582294 0.698329 0.477534
21 1 0.577245 0.932174 0.465241
34 1 0.869911 0.623397 0.425484
15 1 0.141969 0.970991 0.667731
1 1 0.125212 0.231156 0.645727
30 1 0.15912 0.490707 0.575078
22 1 0.00937787 0.993157 0.827213
54 1 0.373968 0.155714 0.878873
60 1 0.0391561 0.306725 0.836229
18 1 0.270655 0.326091 0.775577
49 1 0.388947 0.49941 0.628218
39 1 0.495427 0.312221 0.552725
52 1 0.689752 0.21323 0.607661
3 1 0.900103 0.103608 0.636347
25 1 0.945497 0.425485 0.489439
51 1 0.54401 0.114063 0.711028
31 1 0.563029 0.321615 0.92476
5 1 0.693194 0.0109137 0.859818
13 1 0.671336 0.524101 0.874776
50 1 0.811471 0.373003 0.732456
11 1 0.427152 0.716847 0.630641
36 1 0.210887 0.81552 0.524352
16 1 0.467845 0.923307 0.662432
55 1 0.290442 0.658946 0.961491
32 1 0.985701 0.510973 0.861548
7 1 0.219222 0.978323 0.922863
33 1 0.20913 0.781722 0.745923
19 1 0.727669 0.600504 0.619144
41 1 0.772856 0.891328 0.592275
9 1 0.523121 0.764803 0.831136
57 1 0.927111 0.81539 0.931689
58 1 0.983133 0.686019 0.740699
63 1 0.754421 0.752433 0.754408
ITEM: TIMESTEP
100
ITEM: NUMBER OF ATOMS
64
ITEM: BOX BOUNDS pp pp pp
1.3182024471538067e-01 1.0729579755284568e+01
1.3182024471538067e-01 1.0729579755284568e+01
1.3182024471538067e-01 1.0729579755284568e+01
ITEM: ATOMS id type xs ys zs
20 1 0.0692858 0.325201 0.136432
2 1 0.151761 0.0984604 0.288987
28 1 0.284369 0.260193 0.165464
8 1 0.440947 0.0926031 0.0617737
26 1 0.0148196 0.473404 0.284883
56 1 0.347694 0.422817 0.983151
29 1 0.262421 0.0859883 0.536425
10 1 0.184703 0.312006 0.44879
6 1 0.379508 0.372186 0.330341
14 1 0.561765 0.148829 0.241166
44 1 0.00529021 0.150433 0.996023
62 1 0.746493 0.287406 0.305379
38 1 0.749165 0.187938 0.95537
64 1 0.835618 0.404477 0.995912
45 1 0.952107 0.00716202 0.320652
35 1 0.826284 0.158095 0.440133
43 1 0.545964 0.493081 0.40869
61 1 0.216312 0.944633 0.144792
37 1 0.0580749 0.703555 0.233067
53 1 0.99398 0.884009 0.13654
48 1 0.504983 0.6906 0.247955
4 1 0.415657 0.828252 0.0185134
47 1 0.214537 0.594022 0.372386
40 1 0.974072 0.805274 0.437366
59 1 0.309453 0.869774 0.33081
17 1 0.566757 0.542897 0.0968224
12 1 0.753679 0.502722 0.17411
23 1 0.617147 0.889597 0.0289866
27 1 0.737191 0.741496 0.25478
46 1 0.640486 0.947563 0.251614
24 1 0.726476 0.706374 0.0211499
42 1 0.580688 0.701119 0.474007
21 1 0.576023 0.937293 0.477952
34 1 0.869027 0.617018 0.432516
15 1 0.135729 0.966987 0.665665
1 1 0.127685 0.228139 0.653764
30 1 0.152053 0.496858 0.570201
22 1 0.00661248 0.982244 0.828699
54 1 0.378177 0.151335 0.873898
60 1 0.0371279 0.310312 0.834209
18 1 0.265841 0.320233 0.783727
49 1 0.386451 0.50098 0.619847
39 1 0.500195 0.32213 0.557226
52 1 0.697689 0.214792 0.595513
3 1 0.901138 0.104665 0.638027
25 1 0.953566 0.418915 0.478582
51 1 0.539995 0.105931 0.717268
31 1 0.571212 0.324405 0.928864
5 1 0.684037 0.00321102 0.856794
13 1 0.669347 0.519093 0.871837
50 1 0.804339 0.374408 0.725388
11 1 0.416906 0.719692 0.63348
36 1 0.213013 0.822464 0.517398
16 1 0.470319 0.936055 0.659885
55 1 0.290116 0.662987 0.959239
32 1 0.987502 0.510517 0.865048
7 1 0.222302 0.979474 0.923947
33 1 0.212119 0.781474 0.750019
19 1 0.735433 0.604142 0.612558
41 1 0.769623 0.888138 0.596384
9 1 0.532457 0.769945 0.828276
57 1 0.917551 0.819285 0.93186
58 1 0.982344 0.6839 0.744821
63 1 0.758615 0.749728 0.762534
ITEM: TIMESTEP
110
ITEM: NUMBER OF ATOMS
64
ITEM: BOX BOUNDS pp pp pp
1.3088645449990821e-01 1.0730513545500038e+01
1.3088645449990821e-01 1.0730513545500038e+01
1.3088645449990821e-01 1.0730513545500038e+01
ITEM: ATOMS id type xs ys zs
20 1 0.0705315 0.334595 0.133147
2 1 0.159719 0.0981228 0.291679
28 1 0.28222 0.258495 0.155648
8 1 0.432404 0.0873249 0.0645846
26 1 0.0176342 0.481155 0.273773
56 1 0.346098 0.418945 0.985346
29 1 0.263101 0.0901239 0.536138
10 1 0.188012 0.308332 0.446282
6 1 0.386404 0.362676 0.332732
14 1 0.56035 0.155186 0.240898
44 1 0.0115326 0.169492 0.996826
62 1 0.756669 0.302614 0.301658
38 1 0.759892 0.191658 0.950104
64 1 0.832305 0.390939 0.992422
45 1 0.949043 0.0105566 0.326664
35 1 0.828789 0.138074 0.435925
43 1 0.547188 0.492431 0.412018
61 1 0.213276 0.936536 0.140603
37 1 0.0506476 0.69816 0.233001
53 1 0.997607 0.878782 0.131956
48 1 0.511802 0.688531 0.255614
4 1 0.408456 0.836423 0.0242974
47 1 0.207048 0.601059 0.380151
40 1 0.965603 0.809731 0.456309
59 1 0.306831 0.86607 0.329354
17 1 0.562916 0.537081 0.0861657
12 1 0.756913 0.50248 0.167005
23 1 0.619338 0.898527 0.0247585
27 1 0.736438 0.735505 0.25419
46 1 0.638778 0.940912 0.257459
24 1 0.73744 0.709145 0.0266183
42 1 0.579384 0.704964 0.469722
21 1 0.579124 0.940447 0.485669
34 1 0.864921 0.610698 0.437377
15 1 0.128998 0.965512 0.661313
1 1 0.127518 0.222332 0.657585
30 1 0.146623 0.505671 0.567706
22 1 0.00257823 0.976284 0.832517
54 1 0.381301 0.146681 0.864742
60 1 0.036372 0.311061 0.832464
18 1 0.262996 0.317543 0.796149
49 1 0.381274 0.501342 0.612892
39 1 0.505856 0.331248 0.561294
52 1 0.703212 0.218328 0.587168
3 1 0.902649 0.102771 0.641549
25 1 0.960107 0.409467 0.473237
51 1 0.538795 0.109091 0.727063
31 1 0.577125 0.326669 0.934181
5 1 0.676137 0.995585 0.851962
13 1 0.667152 0.516103 0.866805
50 1 0.797557 0.378142 0.717416
11 1 0.405284 0.722291 0.637277
36 1 0.212834 0.826396 0.509312
16 1 0.466426 0.939061 0.65784
55 1 0.287494 0.663927 0.954412
32 1 0.988116 0.510676 0.871268
7 1 0.226296 0.981896 0.923655
33 1 0.216225 0.775965 0.75845
19 1 0.742203 0.602404 0.603878
41 1 0.768408 0.887669 0.597893
9 1 0.542408 0.775105 0.823926
57 1 0.905578 0.819988 0.93421
58 1 0.984182 0.684622 0.748008
63 1 0.762114 0.749315 0.775628
ITEM: TIMESTEP
120
ITEM: NUMBER OF ATOMS
64
ITEM: BOX BOUNDS pp pp pp
1.2825702006619366e-01 1.0733142979933753e+01
1.2825702006619366e-01 1.0733142979933753e+01
1.2825702006619366e-01 1.0733142979933753e+01
ITEM: ATOMS id type xs ys zs
20 1 0.0728757 0.340548 0.127132
2 1 0.168435 0.0987408 0.295973
28 1 0.280454 0.257662 0.145542
8 1 0.424488 0.0830562 0.0711539
26 1 0.0197909 0.491955 0.262164
56 1 0.345926 0.417082 0.988106
29 1 0.265371 0.0939353 0.532546
10 1 0.19129 0.303132 0.442634
6 1 0.391981 0.350915 0.334966
14 1 0.56062 0.163764 0.240684
44 1 0.015434 0.185001 0.997941
62 1 0.763949 0.318158 0.295651
38 1 0.77058 0.191643 0.944919
64 1 0.831841 0.380453 0.988656
45 1 0.950809 0.00891371 0.329077
35 1 0.831084 0.121524 0.431881
43 1 0.54844 0.492297 0.414472
61 1 0.210616 0.928424 0.136827
37 1 0.0442717 0.690792 0.236101
53 1 0.999506 0.875355 0.126909
48 1 0.515297 0.686511 0.262302
4 1 0.399745 0.84406 0.0303215
47 1 0.200627 0.61101 0.384777
40 1 0.957087 0.816748 0.474085
59 1 0.308271 0.862104 0.323492
17 1 0.553149 0.531273 0.0735489
12 1 0.763857 0.501041 0.164898
23 1 0.619791 0.907355 0.0270666
27 1 0.738076 0.728311 0.255648
46 1 0.636243 0.935538 0.263064
24 1 0.748483 0.708959 0.0327332
42 1 0.578399 0.709685 0.467728
21 1 0.586824 0.941683 0.486853
34 1 0.86204 0.605909 0.435922
15 1 0.122152 0.965084 0.655869
1 1 0.125852 0.215146 0.657283
30 1 0.142849 0.514754 0.568539
22 1 0.999699 0.976127 0.837753
54 1 0.381944 0.141378 0.855985
60 1 0.0371145 0.311031 0.829104
18 1 0.261086 0.317398 0.810937
49 1 0.372968 0.501972 0.60765
39 1 0.513007 0.33754 0.565411
52 1 0.705453 0.222826 0.582729
3 1 0.904627 0.0983299 0.64674
25 1 0.965256 0.397887 0.470417
51 1 0.542237 0.122748 0.736525
31 1 0.58059 0.327187 0.940567
5 1 0.672014 0.991374 0.844257
13 1 0.665334 0.515696 0.859456
50 1 0.791016 0.384721 0.708778
11 1 0.394257 0.72431 0.640927
36 1 0.209237 0.826795 0.503675
16 1 0.455636 0.93427 0.657236
55 1 0.283505 0.662146 0.948825
32 1 0.987314 0.511596 0.880236
7 1 0.230327 0.985494 0.920836
33 1 0.219495 0.768103 0.769502
19 1 0.744724 0.597915 0.599782
41 1 0.770188 0.888543 0.598093
9 1 0.550954 0.780661 0.819208
57 1 0.894138 0.818656 0.939391
58 1 0.989051 0.687238 0.749763
63 1 0.764555 0.74845 0.786649
ITEM: TIMESTEP
130
ITEM: NUMBER OF ATOMS
64
ITEM: BOX BOUNDS pp pp pp
1.2399694942929873e-01 1.0737403050570650e+01
1.2399694942929873e-01 1.0737403050570650e+01
1.2399694942929873e-01 1.0737403050570650e+01
ITEM: ATOMS id type xs ys zs
20 1 0.0769556 0.34555 0.121066
2 1 0.17685 0.0994478 0.300821
28 1 0.279109 0.257674 0.136961
8 1 0.418172 0.0807096 0.0787838
26 1 0.0198259 0.498214 0.253168