10.711291778585037 0.0 0.0 0.0 10.711291778585037 0.0 0.0 0.0 10.711291778585037
10.710339259610002 0.0 0.0 0.0 10.710339259610002 0.0 0.0 0.0 10.710339259610002
10.707734120213276 0.0 0.0 0.0 10.707734120213276 0.0 0.0 0.0 10.707734120213276
10.704363790573273 0.0 0.0 0.0 10.704363790573273 0.0 0.0 0.0 10.704363790573273
10.701603602254501 0.0 0.0 0.0 10.701603602254501 0.0 0.0 0.0 10.701603602254501
10.700393373978997 0.0 0.0 0.0 10.700393373978997 0.0 0.0 0.0 10.700393373978997
10.700807719733138 0.0 0.0 0.0 10.700807719733138 0.0 0.0 0.0 10.700807719733138
10.703070481476058 0.0 0.0 0.0 10.703070481476058 0.0 0.0 0.0 10.703070481476058
10.70760764686048 0.0 0.0 0.0 10.70760764686048 0.0 0.0 0.0 10.70760764686048
10.714207015825858 0.0 0.0 0.0 10.714207015825858 0.0 0.0 0.0 10.714207015825858
10.722320360784334 0.0 0.0 0.0 10.722320360784334 0.0 0.0 0.0 10.722320360784334
10.731529102564103 0.0 0.0 0.0 10.731529102564103 0.0 0.0 0.0 10.731529102564103
10.74166390445849 0.0 0.0 0.0 10.74166390445849 0.0 0.0 0.0 10.74166390445849
10.752860765010043 0.0 0.0 0.0 10.752860765010043 0.0 0.0 0.0 10.752860765010043
10.76525197852085 0.0 0.0 0.0 10.76525197852085 0.0 0.0 0.0 10.76525197852085
10.77867350005632 0.0 0.0 0.0 10.77867350005632 0.0 0.0 0.0 10.77867350005632
10.792884024809446 0.0 0.0 0.0 10.792884024809446 0.0 0.0 0.0 10.792884024809446
10.80766076917551 0.0 0.0 0.0 10.80766076917551 0.0 0.0 0.0 10.80766076917551
10.822681464234625 0.0 0.0 0.0 10.822681464234625 0.0 0.0 0.0 10.822681464234625
10.837696338344447 0.0 0.0 0.0 10.837696338344447 0.0 0.0 0.0 10.837696338344447
10.852484195431888 0.0 0.0 0.0 10.852484195431888 0.0 0.0 0.0 10.852484195431888
10.86699529283936 0.0 0.0 0.0 10.86699529283936 0.0 0.0 0.0 10.86699529283936
10.881159779175357 0.0 0.0 0.0 10.881159779175357 0.0 0.0 0.0 10.881159779175357
10.895064968679263 0.0 0.0 0.0 10.895064968679263 0.0 0.0 0.0 10.895064968679263
10.909125207105216 0.0 0.0 0.0 10.909125207105216 0.0 0.0 0.0 10.909125207105216
10.923515652109185 0.0 0.0 0.0 10.923515652109185 0.0 0.0 0.0 10.923515652109185
10.937928851733108 0.0 0.0 0.0 10.937928851733108 0.0 0.0 0.0 10.937928851733108
10.951798057186847 0.0 0.0 0.0 10.951798057186847 0.0 0.0 0.0 10.951798057186847
10.964625841894547 0.0 0.0 0.0 10.964625841894547 0.0 0.0 0.0 10.964625841894547
10.976147617252028 0.0 0.0 0.0 10.976147617252028 0.0 0.0 0.0 10.976147617252028
10.986377671043916 0.0 0.0 0.0 10.986377671043916 0.0 0.0 0.0 10.986377671043916
10.995730878201567 0.0 0.0 0.0 10.995730878201567 0.0 0.0 0.0 10.995730878201567
11.0044877026454 0.0 0.0 0.0 11.0044877026454 0.0 0.0 0.0 11.0044877026454
11.012475632605497 0.0 0.0 0.0 11.012475632605497 0.0 0.0 0.0 11.012475632605497
11.01924380910034 0.0 0.0 0.0 11.01924380910034 0.0 0.0 0.0 11.01924380910034
11.024531876943415 0.0 0.0 0.0 11.024531876943415 0.0 0.0 0.0 11.024531876943415
11.028513406259068 0.0 0.0 0.0 11.028513406259068 0.0 0.0 0.0 11.028513406259068
11.031599567738187 0.0 0.0 0.0 11.031599567738187 0.0 0.0 0.0 11.031599567738187
11.034044895617988 0.0 0.0 0.0 11.034044895617988 0.0 0.0 0.0 11.034044895617988
11.036011318124231 0.0 0.0 0.0 11.036011318124231 0.0 0.0 0.0 11.036011318124231
11.037603612344165 0.0 0.0 0.0 11.037603612344165 0.0 0.0 0.0 11.037603612344165
11.03886834587213 0.0 0.0 0.0 11.03886834587213 0.0 0.0 0.0 11.03886834587213
11.039885424466586 0.0 0.0 0.0 11.039885424466586 0.0 0.0 0.0 11.039885424466586
11.040654318950324 0.0 0.0 0.0 11.040654318950324 0.0 0.0 0.0 11.040654318950324
11.04093531204796 0.0 0.0 0.0 11.04093531204796 0.0 0.0 0.0 11.04093531204796
11.040302416106769 0.0 0.0 0.0 11.040302416106769 0.0 0.0 0.0 11.040302416106769
11.038226983095607 0.0 0.0 0.0 11.038226983095607 0.0 0.0 0.0 11.038226983095607
11.034488875295796 0.0 0.0 0.0 11.034488875295796 0.0 0.0 0.0 11.034488875295796
11.029340510235725 0.0 0.0 0.0 11.029340510235725 0.0 0.0 0.0 11.029340510235725
11.02336768708504 0.0 0.0 0.0 11.02336768708504 0.0 0.0 0.0 11.02336768708504
11.017130275330175 0.0 0.0 0.0 11.017130275330175 0.0 0.0 0.0 11.017130275330175
11.011281808823451 0.0 0.0 0.0 11.011281808823451 0.0 0.0 0.0 11.011281808823451
11.006591182048606 0.0 0.0 0.0 11.006591182048606 0.0 0.0 0.0 11.006591182048606
11.00344681107657 0.0 0.0 0.0 11.00344681107657 0.0 0.0 0.0 11.00344681107657
11.002128101473351 0.0 0.0 0.0 11.002128101473351 0.0 0.0 0.0 11.002128101473351
11.003026644373136 0.0 0.0 0.0 11.003026644373136 0.0 0.0 0.0 11.003026644373136
11.006247216863176 0.0 0.0 0.0 11.006247216863176 0.0 0.0 0.0 11.006247216863176
11.01109606762332 0.0 0.0 0.0 11.01109606762332 0.0 0.0 0.0 11.01109606762332
11.01657940185628 0.0 0.0 0.0 11.01657940185628 0.0 0.0 0.0 11.01657940185628
11.021957959001986 0.0 0.0 0.0 11.021957959001986 0.0 0.0 0.0 11.021957959001986
11.026724787294834 0.0 0.0 0.0 11.026724787294834 0.0 0.0 0.0 11.026724787294834
11.030676682686817 0.0 0.0 0.0 11.030676682686817 0.0 0.0 0.0 11.030676682686817
11.033964989859525 0.0 0.0 0.0 11.033964989859525 0.0 0.0 0.0 11.033964989859525
11.036715652988548 0.0 0.0 0.0 11.036715652988548 0.0 0.0 0.0 11.036715652988548
11.039150397324184 0.0 0.0 0.0 11.039150397324184 0.0 0.0 0.0 11.039150397324184
11.041067077172839 0.0 0.0 0.0 11.041067077172839 0.0 0.0 0.0 11.041067077172839
11.042190520386175 0.0 0.0 0.0 11.042190520386175 0.0 0.0 0.0 11.042190520386175
11.042492680572146 0.0 0.0 0.0 11.042492680572146 0.0 0.0 0.0 11.042492680572146
11.041970911844707 0.0 0.0 0.0 11.041970911844707 0.0 0.0 0.0 11.041970911844707
11.040807251163537 0.0 0.0 0.0 11.040807251163537 0.0 0.0 0.0 11.040807251163537
11.03901969055372 0.0 0.0 0.0 11.03901969055372 0.0 0.0 0.0 11.03901969055372
11.036448418498331 0.0 0.0 0.0 11.036448418498331 0.0 0.0 0.0 11.036448418498331
11.033150586135871 0.0 0.0 0.0 11.033150586135871 0.0 0.0 0.0 11.033150586135871
11.029019299670255 0.0 0.0 0.0 11.029019299670255 0.0 0.0 0.0 11.029019299670255
11.023849767521849 0.0 0.0 0.0 11.023849767521849 0.0 0.0 0.0 11.023849767521849
11.017364700833475 0.0 0.0 0.0 11.017364700833475 0.0 0.0 0.0 11.017364700833475
11.009495835745259 0.0 0.0 0.0 11.009495835745259 0.0 0.0 0.0 11.009495835745259
11.00070831902334 0.0 0.0 0.0 11.00070831902334 0.0 0.0 0.0 11.00070831902334
10.991331828068523 0.0 0.0 0.0 10.991331828068523 0.0 0.0 0.0 10.991331828068523
10.981495482119648 0.0 0.0 0.0 10.981495482119648 0.0 0.0 0.0 10.981495482119648
10.971480803451557 0.0 0.0 0.0 10.971480803451557 0.0 0.0 0.0 10.971480803451557
10.961281971114959 0.0 0.0 0.0 10.961281971114959 0.0 0.0 0.0 10.961281971114959
10.950869351186189 0.0 0.0 0.0 10.950869351186189 0.0 0.0 0.0 10.950869351186189
10.940771062519175 0.0 0.0 0.0 10.940771062519175 0.0 0.0 0.0 10.940771062519175
10.931492998525114 0.0 0.0 0.0 10.931492998525114 0.0 0.0 0.0 10.931492998525114
10.923096543760167 0.0 0.0 0.0 10.923096543760167 0.0 0.0 0.0 10.923096543760167
10.915403365505124 0.0 0.0 0.0 10.915403365505124 0.0 0.0 0.0 10.915403365505124
10.908605025909406 0.0 0.0 0.0 10.908605025909406 0.0 0.0 0.0 10.908605025909406
10.902991514083192 0.0 0.0 0.0 10.902991514083192 0.0 0.0 0.0 10.902991514083192
10.898066990982255 0.0 0.0 0.0 10.898066990982255 0.0 0.0 0.0 10.898066990982255
10.893182156171942 0.0 0.0 0.0 10.893182156171942 0.0 0.0 0.0 10.893182156171942
10.888239111868712 0.0 0.0 0.0 10.888239111868712 0.0 0.0 0.0 10.888239111868712
10.883298184274315 0.0 0.0 0.0 10.883298184274315 0.0 0.0 0.0 10.883298184274315
10.878457800349505 0.0 0.0 0.0 10.878457800349505 0.0 0.0 0.0 10.878457800349505
10.873934922749708 0.0 0.0 0.0 10.873934922749708 0.0 0.0 0.0 10.873934922749708
10.870115850837019 0.0 0.0 0.0 10.870115850837019 0.0 0.0 0.0 10.870115850837019
10.867256706380285 0.0 0.0 0.0 10.867256706380285 0.0 0.0 0.0 10.867256706380285
10.865339497354421 0.0 0.0 0.0 10.865339497354421 0.0 0.0 0.0 10.865339497354421
10.864198591293212 0.0 0.0 0.0 10.864198591293212 0.0 0.0 0.0 10.864198591293212
10.863675764211356 0.0 0.0 0.0 10.863675764211356 0.0 0.0 0.0 10.863675764211356
10.863523890352559 0.0 0.0 0.0 10.863523890352559 0.0 0.0 0.0 10.863523890352559
