-6824.509769509773
-6823.735387403499
-6822.48078124379
-6819.672274994942
-6818.072575697734
-6818.998039080766
-6818.425701635751
-6817.267538334851
-6817.554966876404
-6818.199919940118
-6818.112059279665
-6817.286084525639
-6815.77170039998
-6815.548328544502
-6816.635681429907
-6816.897137385845
-6816.720598226797
-6817.077065722752
-6816.6392616316825
-6816.003111994876
-6815.463450251721
-6815.468523133958
-6815.727909936266
-6815.060021621604
-6814.215163663802
-6814.023125444731
-6813.781664413658
-6814.43300779876
-6814.744922776197
-6814.857897639161
-6813.926105704583
-6812.538845409099
-6812.804477496118
-6813.388091474663
-6813.307758571444
-6813.354945424034
-6813.871992874515
-6814.007577948446
-6814.193780550189
-6814.324883637084
-6813.8325713345375
-6813.941338093044
-6813.3556809477395
-6812.770822320496
-6812.325602583095
-6812.11315079202
-6812.380621552246
-6813.008994175544
-6812.708705261863
-6812.390282001689
-6812.7663223739455
-6812.334369274635
-6812.938297639692
-6812.878069051099
-6811.145926370283
-6810.767710992114
-6811.0260237611
-6811.118246814558
-6811.737781316433
-6812.361723654322
-6812.666265979416
-6812.314649048691
-6812.3309928861245
-6811.520940465197
-6811.837432805572
-6812.1615039245235
-6812.172243441393
-6813.540082155871
-6813.30675705646
-6812.644004074161
-6814.162804199252
-6814.741901088076
-6814.564092381915
-6813.523242935194
-6812.83427355328
-6813.4174476598055
-6812.86522106015
-6812.946072068119
-6813.907116376409
-6813.386805464662
-6813.557115529773
-6814.417409417187
-6813.851936587979
-6813.727296340809
-6814.737910130461
-6815.40935429271
-6814.026346184126
-6812.352165519683
-6814.012123474064
-6815.643593286448
-6815.654818390463
-6814.94997266269
-6814.62211834504
-6814.053757571663
-6813.248181287324
-6812.879425266471
-6812.99734947199
-6813.479166615893
-6813.697259190786
-6814.655949442258
-6814.619446051088
