An instance of this daemon is already running
An instance of this daemon is already running

     Program PWSCF v.7.1 starts on 11May2023 at 10: 7:47 

     This program is part of the open-source Quantum ESPRESSO suite
     for quantum simulation of materials; please cite
         "P. Giannozzi et al., J. Phys.:Condens. Matter 21 395502 (2009);
         "P. Giannozzi et al., J. Phys.:Condens. Matter 29 465901 (2017);
         "P. Giannozzi et al., J. Chem. Phys. 152 154105 (2020);
          URL http://www.quantum-espresso.org", 
     in publications or presentations arising from this work. More details at
     http://www.quantum-espresso.org/quote

     Parallel version (MPI & OpenMP), running on       4 processor cores
     Number of MPI processes:                 4
     Threads/MPI process:                     1

     MPI processes distributed on     1 nodes
     259154 MiB available memory on the printing compute node when the environment starts
 
     Reading input from pw-si-57.in
Warning: card &CELL ignored
Warning: card / ignored

     Current dimensions of program PWSCF are:
     Max number of different atomic species (ntypx) = 10
     Max number of k-points (npk) =  40000
     Max angular momentum in pseudopotentials (lmaxx) =  4

     IMPORTANT: XC functional enforced from input :
     Exchange-correlation= PBE
                           (   1   4   3   4   0   0   0)
     Any further DFT definition will be discarded
     Please, verify this is what you really want


     gamma-point specific algorithms are used
 
     K-points division:     npool     =       2
     R & G space division:  proc/nbgrp/npool/nimage =       2
     Subspace diagonalization in iterative solution of the eigenvalue problem:
     a serial algorithm will be used

     Message from routine divide_et_impera:
     suboptimal parallelization: some nodes have no k-points
 
     Parallelization info
     --------------------
     sticks:   dense  smooth     PW     G-vecs:    dense   smooth      PW
     Min        2073    2073    546               100117   100117   13598
     Max        2076    2076    547               100120   100120   13603
     Sum        4149    4149   1093               200237   200237   27201
 
     Using Slab Decomposition
 


     bravais-lattice index     =            0
     lattice parameter (alat)  =      20.8080  a.u.
     unit-cell volume          =    9009.2416 (a.u.)^3
     number of atoms/cell      =           64
     number of atomic types    =            1
     number of electrons       =       256.00
     number of Kohn-Sham states=          154
     kinetic-energy cutoff     =      30.0000  Ry
     charge density cutoff     =     120.0000  Ry
     scf convergence threshold =      1.0E-06
     mixing beta               =       0.5000
     number of iterations used =            8  plain     mixing
     Exchange-correlation= PBE
                           (   1   4   3   4   0   0   0)

     GPU acceleration is ACTIVE.
     GPU-aware MPI enabled

     Message from routine print_cuda_info:
     High GPU oversubscription detected. Are you sure this is what you want?

     celldm(1)=  20.807956  celldm(2)=   0.000000  celldm(3)=   0.000000
     celldm(4)=   0.000000  celldm(5)=   0.000000  celldm(6)=   0.000000

     crystal axes: (cart. coord. in units of alat)
               a(1) = (   1.000000   0.000000   0.000000 )  
               a(2) = (   0.000000   1.000000   0.000000 )  
               a(3) = (   0.000000   0.000000   1.000000 )  

     reciprocal axes: (cart. coord. in units 2 pi/alat)
               b(1) = (  1.000000  0.000000  0.000000 )  
               b(2) = (  0.000000  1.000000  0.000000 )  
               b(3) = (  0.000000  0.000000  1.000000 )  


     PseudoPot. # 1 for Si read from file:
     /home/ppiaggi/pseudos/Si_ONCV_PBE_sr.upf
     MD5 check sum: 8553c464762ac42b85b1eed164b4d029
     Pseudo is Norm-conserving, Zval =  4.0
     Generated using ONCVPSP code by D. R. Hamann
     Using radial grid of 1510 points,  4 beta functions with: 
                l(1) =   0
                l(2) =   0
                l(3) =   1
                l(4) =   1

     atomic species   valence    mass     pseudopotential
        Si             4.00    28.08500     Si( 1.00)

     No symmetry found



   Cartesian axes

     site n.     atom                  positions (alat units)
         1           Si  tau(   1) = (   0.6272330   0.7345310   0.7769620  )
         2           Si  tau(   2) = (   0.6748100   0.1244930   0.4541880  )
         3           Si  tau(   3) = (   0.9180670   0.9415160   0.4022330  )
         4           Si  tau(   4) = (   0.7461850   0.5255820   0.3659200  )
         5           Si  tau(   5) = (   0.2639200   0.1565790   0.3266790  )
         6           Si  tau(   6) = (   0.3542070   0.5973000   0.0830208  )
         7           Si  tau(   7) = (   0.7276920   0.8451350   0.4992320  )
         8           Si  tau(   8) = (   0.3192080   0.2172200   0.8833680  )
         9           Si  tau(   9) = (   0.5854300   0.9605630   0.8376560  )
        10           Si  tau(  10) = (   0.1630390   0.9517860   0.6655950  )
        11           Si  tau(  11) = (   0.8723480   0.7212460   0.7364830  )
        12           Si  tau(  12) = (   0.9323530   0.8009320   0.1582700  )
        13           Si  tau(  13) = (   0.6816150   0.3620410   0.2302320  )
        14           Si  tau(  14) = (   0.8509310   0.1642860   0.5729180  )
        15           Si  tau(  15) = (   0.7723820   0.2592140   0.7961520  )
        16           Si  tau(  16) = (   0.3749490   0.9731240   0.6019940  )
        17           Si  tau(  17) = (   0.6133490   0.0019119   0.2713850  )
        18           Si  tau(  18) = (   0.8048960   0.5181660   0.1130650  )
        19           Si  tau(  19) = (   0.6222820   0.5487800   0.7419720  )
        20           Si  tau(  20) = (   0.4611170   0.2675810   0.0247876  )
        21           Si  tau(  21) = (   0.5071940   0.1845090   0.5632330  )
        22           Si  tau(  22) = (   0.0116869   0.9099040   0.8040440  )
        23           Si  tau(  23) = (   0.3479210   0.8232030   0.3276340  )
        24           Si  tau(  24) = (   0.3335210   0.2953140   0.6345050  )
        25           Si  tau(  25) = (   0.3305620   0.5711330   0.4075840  )
        26           Si  tau(  26) = (   0.0461764   0.4910960   0.3294200  )
        27           Si  tau(  27) = (   0.9681030   0.0235166   0.0387987  )
        28           Si  tau(  28) = (   0.8189550   0.9967990   0.2050970  )
        29           Si  tau(  29) = (   0.5737970   0.9745040   0.0691658  )
        30           Si  tau(  30) = (   0.6703820   0.0690544   0.6630500  )
        31           Si  tau(  31) = (   0.1772890   0.4732670   0.7771060  )
        32           Si  tau(  32) = (   0.1950340   0.3268220   0.4370470  )
        33           Si  tau(  33) = (   0.3773850   0.7632740   0.7005100  )
        34           Si  tau(  34) = (   0.6795470   0.2786060   0.0162649  )
        35           Si  tau(  35) = (   0.9644180   0.6083300   0.9092050  )
        36           Si  tau(  36) = (   0.5730630   0.3904490   0.8609950  )
        37           Si  tau(  37) = (   0.3795130   0.0337837   0.0144323  )
        38           Si  tau(  38) = (   0.7973790   0.8928050   0.8346670  )
        39           Si  tau(  39) = (   0.4761100   0.4694580   0.5419560  )
        40           Si  tau(  40) = (   0.9582420   0.1470550   0.3757180  )
        41           Si  tau(  41) = (   0.1856930   0.0357359   0.4540700  )
        42           Si  tau(  42) = (   0.9238260   0.3791610   0.9485210  )
        43           Si  tau(  43) = (   0.1446370   0.1080890   0.1424700  )
        44           Si  tau(  44) = (   0.0059419   0.5306910   0.1198260  )
        45           Si  tau(  45) = (   0.2105490   0.6137920   0.2525570  )
        46           Si  tau(  46) = (   0.2662330   0.7480990   0.5103620  )
        47           Si  tau(  47) = (   0.5857470   0.5548170   0.0360379  )
        48           Si  tau(  48) = (   0.1267840   0.3484960   0.6302280  )
        49           Si  tau(  49) = (   0.8435140   0.2370010   0.1199240  )
        50           Si  tau(  50) = (   0.5540170   0.8001820   0.3609740  )
        51           Si  tau(  51) = (   0.1528000   0.7097880   0.7309830  )
        52           Si  tau(  52) = (   0.9752340   0.3113760   0.2431280  )
        53           Si  tau(  53) = (   0.4736370   0.1959440   0.2667590  )
        54           Si  tau(  54) = (   0.2524580   0.9255050   0.1702610  )
        55           Si  tau(  55) = (   0.6738550   0.4087200   0.4915290  )
        56           Si  tau(  56) = (   0.1382650   0.1470100   0.7128420  )
        57           Si  tau(  57) = (   0.5810710   0.5956980   0.2662370  )
        58           Si  tau(  58) = (   0.7699600   0.5893820   0.5870410  )
        59           Si  tau(  59) = (   0.3717800   0.5480300   0.7402290  )
        60           Si  tau(  60) = (   0.9400870   0.7446650   0.4665260  )
        61           Si  tau(  61) = (   0.4405350   0.7703550   0.9310380  )
        62           Si  tau(  62) = (   0.1115910   0.6062700   0.5314220  )
        63           Si  tau(  63) = (   0.7548710   0.7480200   0.0234159  )
        64           Si  tau(  64) = (   0.3968500   0.4072180   0.2289730  )

     number of k points=     1  Fermi-Dirac smearing, width (Ry)=  0.0100
                       cart. coord. in units 2pi/alat
        k(    1) = (   0.0000000   0.0000000   0.0000000), wk =   2.0000000

     Dense  grid:   100119 G-vectors     FFT dimensions: (  75,  75,  75)

     Estimated max dynamical RAM per process >     160.76 MB

     Estimated total dynamical RAM >     618.59 MB

     Initial potential from superposition of free atoms

     starting charge     255.9608, renormalised to     256.0000
     Starting wfcs are  256 randomized atomic wfcs

     total cpu time spent up to now is        3.9 secs

     Self-consistent Calculation

     iteration #  1     ecut=    30.00 Ry     beta= 0.50
     Davidson diagonalization with overlap
     ethr =  1.00E-02,  avg # of iterations =  3.0

     Threshold (ethr) on eigenvalues was too large:
     Diagonalizing with lowered threshold

     Davidson diagonalization with overlap
     ethr =  6.04E-04,  avg # of iterations =  4.0

     total cpu time spent up to now is        4.1 secs

     total energy              =    -500.03705318 Ry
     estimated scf accuracy    <       2.00231984 Ry

     iteration #  2     ecut=    30.00 Ry     beta= 0.50
     Davidson diagonalization with overlap
     ethr =  7.82E-04,  avg # of iterations =  4.0

     total cpu time spent up to now is        4.3 secs

     total energy              =    -499.40429643 Ry
     estimated scf accuracy    <       8.31739217 Ry

     iteration #  3     ecut=    30.00 Ry     beta= 0.50
     Davidson diagonalization with overlap
     ethr =  7.82E-04,  avg # of iterations =  4.0

     total cpu time spent up to now is        4.4 secs

     total energy              =    -500.20293336 Ry
     estimated scf accuracy    <       3.87364161 Ry

     iteration #  4     ecut=    30.00 Ry     beta= 0.50
     Davidson diagonalization with overlap
     ethr =  7.82E-04,  avg # of iterations =  2.0

     total cpu time spent up to now is        4.5 secs

     total energy              =    -500.48801938 Ry
     estimated scf accuracy    <       0.86493372 Ry

     iteration #  5     ecut=    30.00 Ry     beta= 0.50
     Davidson diagonalization with overlap
     ethr =  3.38E-04,  avg # of iterations =  2.0

     total cpu time spent up to now is        4.6 secs

     total energy              =    -500.53315988 Ry
     estimated scf accuracy    <       0.56342299 Ry

     iteration #  6     ecut=    30.00 Ry     beta= 0.50
     Davidson diagonalization with overlap
     ethr =  2.20E-04,  avg # of iterations =  2.0

     total cpu time spent up to now is        4.7 secs

     total energy              =    -500.58363391 Ry
     estimated scf accuracy    <       0.21537134 Ry

     iteration #  7     ecut=    30.00 Ry     beta= 0.50
     Davidson diagonalization with overlap
     ethr =  8.41E-05,  avg # of iterations =  2.0

     total cpu time spent up to now is        4.8 secs

     total energy              =    -500.60110790 Ry
     estimated scf accuracy    <       0.02513124 Ry

     iteration #  8     ecut=    30.00 Ry     beta= 0.50
     Davidson diagonalization with overlap
     ethr =  9.82E-06,  avg # of iterations = 19.0

     total cpu time spent up to now is        5.0 secs

     total energy              =    -500.60317718 Ry
     estimated scf accuracy    <       0.05265865 Ry

     iteration #  9     ecut=    30.00 Ry     beta= 0.50
     Davidson diagonalization with overlap
     ethr =  9.82E-06,  avg # of iterations =  3.0

     total cpu time spent up to now is        5.1 secs

     total energy              =    -500.60727265 Ry
     estimated scf accuracy    <       0.00343305 Ry

     iteration # 10     ecut=    30.00 Ry     beta= 0.50
     Davidson diagonalization with overlap
     ethr =  1.34E-06,  avg # of iterations =  5.0

     total cpu time spent up to now is        5.2 secs

     total energy              =    -500.60746399 Ry
     estimated scf accuracy    <       0.00469069 Ry

     iteration # 11     ecut=    30.00 Ry     beta= 0.50
     Davidson diagonalization with overlap
     ethr =  1.34E-06,  avg # of iterations =  2.0

     total cpu time spent up to now is        5.3 secs

     total energy              =    -500.60778537 Ry
     estimated scf accuracy    <       0.00155690 Ry

     iteration # 12     ecut=    30.00 Ry     beta= 0.50
     Davidson diagonalization with overlap
     ethr =  6.08E-07,  avg # of iterations =  2.0

     total cpu time spent up to now is        5.4 secs

     total energy              =    -500.60793028 Ry
     estimated scf accuracy    <       0.00048684 Ry

     iteration # 13     ecut=    30.00 Ry     beta= 0.50
     Davidson diagonalization with overlap
     ethr =  1.90E-07,  avg # of iterations =  2.0

     total cpu time spent up to now is        5.5 secs

     total energy              =    -500.60796608 Ry
     estimated scf accuracy    <       0.00029019 Ry

     iteration # 14     ecut=    30.00 Ry     beta= 0.50
     Davidson diagonalization with overlap
     ethr =  1.13E-07,  avg # of iterations =  2.0

     total cpu time spent up to now is        5.6 secs

     total energy              =    -500.60798846 Ry
     estimated scf accuracy    <       0.00009264 Ry

     iteration # 15     ecut=    30.00 Ry     beta= 0.50
     Davidson diagonalization with overlap
     ethr =  3.62E-08,  avg # of iterations =  2.0

     total cpu time spent up to now is        5.7 secs

     total energy              =    -500.60799189 Ry
     estimated scf accuracy    <       0.00004510 Ry

     iteration # 16     ecut=    30.00 Ry     beta= 0.50
     Davidson diagonalization with overlap
     ethr =  1.76E-08,  avg # of iterations =  3.0

     total cpu time spent up to now is        5.8 secs

     total energy              =    -500.60799535 Ry
     estimated scf accuracy    <       0.00009443 Ry

     iteration # 17     ecut=    30.00 Ry     beta= 0.50
     Davidson diagonalization with overlap
     ethr =  1.76E-08,  avg # of iterations =  2.0

     total cpu time spent up to now is        5.9 secs

     total energy              =    -500.60799969 Ry
     estimated scf accuracy    <       0.00001004 Ry

     iteration # 18     ecut=    30.00 Ry     beta= 0.50
     Davidson diagonalization with overlap
     ethr =  3.92E-09,  avg # of iterations =  3.0

     total cpu time spent up to now is        6.0 secs

     total energy              =    -500.60800128 Ry
     estimated scf accuracy    <       0.00000631 Ry

     iteration # 19     ecut=    30.00 Ry     beta= 0.50
     Davidson diagonalization with overlap
     ethr =  2.46E-09,  avg # of iterations =  2.0

     total cpu time spent up to now is        6.1 secs

     total energy              =    -500.60800166 Ry
     estimated scf accuracy    <       0.00000102 Ry

     iteration # 20     ecut=    30.00 Ry     beta= 0.50
     Davidson diagonalization with overlap
     ethr =  4.00E-10,  avg # of iterations =  5.0

     total cpu time spent up to now is        6.2 secs

     total energy              =    -500.60800176 Ry
     estimated scf accuracy    <       0.00000110 Ry

     iteration # 21     ecut=    30.00 Ry     beta= 0.50
     Davidson diagonalization with overlap
     ethr =  4.00E-10,  avg # of iterations =  2.0

     total cpu time spent up to now is        6.3 secs

     End of self-consistent calculation

          k = 0.0000 0.0000 0.0000 ( 12587 PWs)   bands (ev):

    -6.5345  -6.0286  -5.6913  -5.6017  -5.4014  -5.3326  -5.1789  -4.9472
    -4.8742  -4.6784  -4.5367  -4.3524  -4.1746  -4.1014  -3.9656  -3.9257
    -3.7867  -3.7142  -3.4499  -3.2358  -3.1087  -3.0771  -2.9810  -2.8024
    -2.6088  -2.5235  -2.3110  -2.0900  -1.9546  -1.9405  -1.7772  -1.6905
    -1.6218  -1.4504  -1.3733  -1.3160  -1.1679  -1.0522  -0.9467  -0.8104
    -0.7945  -0.6634  -0.6008  -0.5596  -0.4880  -0.3395  -0.2450  -0.1160
    -0.0187   0.0822   0.1291   0.2692   0.3139   0.5057   0.5478   0.6754
     0.7454   0.8224   0.9241   1.1304   1.2260   1.3602   1.4844   1.6026
     1.6305   1.6364   1.7848   1.8467   1.9695   2.0827   2.1247   2.2465
     2.3265   2.3760   2.4481   2.6059   2.6293   2.6934   2.7105   2.7840
     2.9446   3.0377   3.0881   3.0965   3.1661   3.2622   3.3215   3.3939
     3.4573   3.5286   3.6589   3.7107   3.7370   3.8974   3.9583   4.0746
     4.1792   4.1822   4.2190   4.3387   4.4121   4.4681   4.5200   4.5415
     4.5689   4.6626   4.7390   4.7491   4.8390   4.9500   4.9934   5.0468
     5.1574   5.1789   5.2318   5.2938   5.3169   5.3413   5.4456   5.4749
     5.5235   5.5473   5.6477   5.7139   5.7755   5.8001   5.8673   5.9538
     5.9812   6.0755   6.1074   6.1597   6.2355   6.2828   6.3463   6.4576
     6.5047   6.5564   6.5741   6.6821   6.7196   6.7837   6.8351   6.9727
     7.0109   7.0483   7.0606   7.1678   7.2193   7.3101   7.3627   7.4153
     7.4802   7.5124

     the Fermi energy is     5.9679 ev

!    total energy              =    -500.60800145 Ry
     estimated scf accuracy    <       0.00000055 Ry
     smearing contrib. (-TS)   =      -0.15150578 Ry
     internal energy E=F+TS    =    -500.45649567 Ry

     The total energy is F=E-TS. E is the sum of the following terms:
     one-electron contribution =     104.02902652 Ry
     hartree contribution      =      55.21771689 Ry
     xc contribution           =    -150.17606552 Ry
     ewald contribution        =    -509.52717356 Ry

     convergence has been achieved in  21 iterations

     Forces acting on atoms (cartesian axes, Ry/au):

     atom    1 type  1   force =    -0.00967995    0.15306538    0.03957130
     atom    2 type  1   force =     0.00387581    0.00735508   -0.05341296
     atom    3 type  1   force =    -0.01222080   -0.00124667   -0.00519729
     atom    4 type  1   force =     0.12276698    0.09241061   -0.10231484
     atom    5 type  1   force =     0.04275367    0.06669302   -0.07803446
     atom    6 type  1   force =     0.01851318    0.01369600    0.00637236
     atom    7 type  1   force =    -0.00116494    0.00166647    0.01500904
     atom    8 type  1   force =    -0.05091122   -0.03668477   -0.04149336
     atom    9 type  1   force =     0.00281064   -0.01064626    0.01104475
     atom   10 type  1   force =     0.03579263   -0.04639094   -0.07511435
     atom   11 type  1   force =     0.02489427   -0.01930870   -0.02956827
     atom   12 type  1   force =    -0.00288677    0.02774368   -0.00378631
     atom   13 type  1   force =    -0.00964273   -0.00692396   -0.01204276
     atom   14 type  1   force =     0.02447994    0.00735128    0.00982613
     atom   15 type  1   force =    -0.01383878    0.01181866    0.00775631
     atom   16 type  1   force =    -0.00952373   -0.00147162   -0.00890982
     atom   17 type  1   force =    -0.00459412    0.00625534    0.03249550
     atom   18 type  1   force =    -0.07755712   -0.00369588   -0.02201879
     atom   19 type  1   force =    -0.02257089   -0.11290765   -0.06472653
     atom   20 type  1   force =     0.01227993    0.01112246    0.05543194
     atom   21 type  1   force =    -0.01301600   -0.00781277    0.01002704
     atom   22 type  1   force =    -0.00641656   -0.01484023    0.03253406
     atom   23 type  1   force =    -0.03136732   -0.00139460    0.00885848
     atom   24 type  1   force =     0.02623681    0.01256923    0.01795833
     atom   25 type  1   force =     0.06781302   -0.05445672    0.05323894
     atom   26 type  1   force =     0.00459598   -0.01650829    0.03869973
     atom   27 type  1   force =    -0.00600129   -0.01600650   -0.01427306
     atom   28 type  1   force =     0.02553421    0.01848195    0.01579715
     atom   29 type  1   force =     0.00859609   -0.03162249   -0.05669475
     atom   30 type  1   force =    -0.00542508   -0.00888811    0.02942610
     atom   31 type  1   force =     0.00419833    0.05852977    0.05611334
     atom   32 type  1   force =     0.00631432    0.04281346   -0.05214260
     atom   33 type  1   force =    -0.01002120    0.00710929    0.03789703
     atom   34 type  1   force =    -0.03734746    0.01230979   -0.03817490
     atom   35 type  1   force =    -0.00189085   -0.02308843    0.00339245
     atom   36 type  1   force =    -0.00710502   -0.00204256    0.02471714
     atom   37 type  1   force =    -0.04450325    0.00253086   -0.01250987
     atom   38 type  1   force =    -0.03230724    0.00324060    0.04559169
     atom   39 type  1   force =    -0.04929817   -0.00923080    0.03419263
     atom   40 type  1   force =     0.01307657   -0.00584716    0.01893901
     atom   41 type  1   force =    -0.06484721   -0.08439215    0.09297657
     atom   42 type  1   force =    -0.00819953    0.02445469    0.00860333
     atom   43 type  1   force =     0.00204791    0.01881198    0.00759143
     atom   44 type  1   force =     0.04975209    0.00379137   -0.02816528
     atom   45 type  1   force =    -0.01565914    0.05073280   -0.06925406
     atom   46 type  1   force =     0.00087032    0.05027596    0.01485114
     atom   47 type  1   force =     0.03313272    0.01327781    0.00173004
     atom   48 type  1   force =    -0.04276025   -0.03650219   -0.03076945
     atom   49 type  1   force =     0.01494164   -0.08951995   -0.02194646
     atom   50 type  1   force =     0.03196285    0.01163970   -0.01301723
     atom   51 type  1   force =    -0.00342030    0.00673839    0.00124780
     atom   52 type  1   force =     0.06509619    0.01397483    0.03715205
     atom   53 type  1   force =     0.01099033   -0.00311783   -0.01300635
     atom   54 type  1   force =     0.00250612   -0.00962551   -0.01878355
     atom   55 type  1   force =    -0.06362639   -0.13847415    0.11090414
     atom   56 type  1   force =     0.02778024    0.06118487    0.02846810
     atom   57 type  1   force =    -0.07097034    0.01702750   -0.04271712
     atom   58 type  1   force =     0.01405887    0.02798235    0.00323685
     atom   59 type  1   force =     0.04260495   -0.02042164   -0.00828597
     atom   60 type  1   force =    -0.00348792   -0.04471307    0.02159713
     atom   61 type  1   force =    -0.00404280   -0.00402415    0.00440612
     atom   62 type  1   force =    -0.03506945   -0.00917238   -0.00115732
     atom   63 type  1   force =     0.00820364   -0.00784664   -0.01331692
     atom   64 type  1   force =     0.02289355    0.02216958   -0.00682055

     Total force =     0.534805     Total SCF correction =     0.001411


     Computing stress (Cartesian axis) and pressure

          total   stress  (Ry/bohr**3)                   (kbar)     P=       -8.84
  -0.00003546   0.00003997   0.00005229           -5.22        5.88        7.69
   0.00003997  -0.00003718  -0.00005867            5.88       -5.47       -8.63
   0.00005229  -0.00005867  -0.00010766            7.69       -8.63      -15.84

 
     init_run     :      0.66s CPU      3.85s WALL (       1 calls)
     electrons    :      2.28s CPU      2.42s WALL (       1 calls)
     forces       :      0.03s CPU      0.03s WALL (       1 calls)
     stress       :      0.15s CPU      0.15s WALL (       1 calls)

     Called by init_run:
     wfcinit      :      0.47s CPU      3.51s WALL (       1 calls)
                                        3.51s GPU  (       1 calls)
     potinit      :      0.03s CPU      0.11s WALL (       1 calls)
     hinit0       :      0.13s CPU      0.16s WALL (       1 calls)

     Called by electrons:
     c_bands      :      1.49s CPU      1.55s WALL (      22 calls)
     sum_band     :      0.42s CPU      0.47s WALL (      22 calls)
     v_of_rho     :      0.15s CPU      0.24s WALL (      22 calls)
     mix_rho      :      0.18s CPU      0.20s WALL (      22 calls)

     Called by c_bands:
     init_us_2    :      0.06s CPU      0.06s WALL (      45 calls)
     init_us_2:gp :      0.06s CPU      0.06s WALL (      45 calls)
     regterg      :      1.33s CPU      1.39s WALL (      22 calls)

     Called by *egterg:
     rdiaghg      :      0.43s CPU      1.06s WALL (      98 calls)
                                        1.04s GPU  (      98 calls)
     h_psi        :      1.17s CPU      3.63s WALL (     100 calls)
                                        3.63s GPU  (     100 calls)
     g_psi        :      0.00s CPU      0.00s WALL (      77 calls)
                                        0.00s GPU  (      77 calls)

     Called by h_psi:
     h_psi:calbec :      0.45s CPU      2.83s WALL (     100 calls)
                                        2.83s GPU  (     100 calls)
     vloc_psi     :      0.66s CPU      0.74s WALL (     100 calls)
                                        0.73s GPU  (     100 calls)
     add_vuspsi   :      0.03s CPU      0.05s WALL (     100 calls)
                                        0.05s GPU  (     100 calls)

     General routines
     calbec       :      0.46s CPU      2.83s WALL (     105 calls)
     fft          :      0.28s CPU      0.40s WALL (     183 calls)
                                        0.11s GPU  (     116 calls)
     ffts         :      0.05s CPU      0.05s WALL (      22 calls)
     fftw         :      0.74s CPU      0.94s WALL (    2308 calls)
                                        0.85s GPU  (    2308 calls)
 
     Parallel routines
 
     PWSCF        :      3.16s CPU      6.54s WALL

 
   This run was terminated on:  10: 7:53  11May2023            

=------------------------------------------------------------------------------=
   JOB DONE.
=------------------------------------------------------------------------------=
