
     Program PWSCF v.7.1 starts on 11May2023 at 10:12:14 

     This program is part of the open-source Quantum ESPRESSO suite
     for quantum simulation of materials; please cite
         "P. Giannozzi et al., J. Phys.:Condens. Matter 21 395502 (2009);
         "P. Giannozzi et al., J. Phys.:Condens. Matter 29 465901 (2017);
         "P. Giannozzi et al., J. Chem. Phys. 152 154105 (2020);
          URL http://www.quantum-espresso.org", 
     in publications or presentations arising from this work. More details at
     http://www.quantum-espresso.org/quote

     Parallel version (MPI & OpenMP), running on       4 processor cores
     Number of MPI processes:                 4
     Threads/MPI process:                     1

     MPI processes distributed on     1 nodes
     257744 MiB available memory on the printing compute node when the environment starts
 
     Reading input from pw-si-87.in
Warning: card &CELL ignored
Warning: card / ignored

     Current dimensions of program PWSCF are:
     Max number of different atomic species (ntypx) = 10
     Max number of k-points (npk) =  40000
     Max angular momentum in pseudopotentials (lmaxx) =  4

     IMPORTANT: XC functional enforced from input :
     Exchange-correlation= PBE
                           (   1   4   3   4   0   0   0)
     Any further DFT definition will be discarded
     Please, verify this is what you really want


     gamma-point specific algorithms are used
 
     K-points division:     npool     =       2
     R & G space division:  proc/nbgrp/npool/nimage =       2
     Subspace diagonalization in iterative solution of the eigenvalue problem:
     a serial algorithm will be used

     Message from routine divide_et_impera:
     suboptimal parallelization: some nodes have no k-points
 
     Parallelization info
     --------------------
     sticks:   dense  smooth     PW     G-vecs:    dense   smooth      PW
     Min        2023    2023    542                97221    97221   13262
     Max        2026    2026    543                97226    97226   13267
     Sum        4049    4049   1085               194447   194447   26529
 
     Using Slab Decomposition
 


     bravais-lattice index     =            0
     lattice parameter (alat)  =      20.6143  a.u.
     unit-cell volume          =    8760.0025 (a.u.)^3
     number of atoms/cell      =           64
     number of atomic types    =            1
     number of electrons       =       256.00
     number of Kohn-Sham states=          154
     kinetic-energy cutoff     =      30.0000  Ry
     charge density cutoff     =     120.0000  Ry
     scf convergence threshold =      1.0E-06
     mixing beta               =       0.5000
     number of iterations used =            8  plain     mixing
     Exchange-correlation= PBE
                           (   1   4   3   4   0   0   0)

     GPU acceleration is ACTIVE.
     GPU-aware MPI enabled

     Message from routine print_cuda_info:
     High GPU oversubscription detected. Are you sure this is what you want?

     celldm(1)=  20.614276  celldm(2)=   0.000000  celldm(3)=   0.000000
     celldm(4)=   0.000000  celldm(5)=   0.000000  celldm(6)=   0.000000

     crystal axes: (cart. coord. in units of alat)
               a(1) = (   1.000000   0.000000   0.000000 )  
               a(2) = (   0.000000   1.000000   0.000000 )  
               a(3) = (   0.000000   0.000000   1.000000 )  

     reciprocal axes: (cart. coord. in units 2 pi/alat)
               b(1) = (  1.000000  0.000000  0.000000 )  
               b(2) = (  0.000000  1.000000  0.000000 )  
               b(3) = (  0.000000  0.000000  1.000000 )  


     PseudoPot. # 1 for Si read from file:
     /home/ppiaggi/pseudos/Si_ONCV_PBE_sr.upf
     MD5 check sum: 8553c464762ac42b85b1eed164b4d029
     Pseudo is Norm-conserving, Zval =  4.0
     Generated using ONCVPSP code by D. R. Hamann
     Using radial grid of 1510 points,  4 beta functions with: 
                l(1) =   0
                l(2) =   0
                l(3) =   1
                l(4) =   1

     atomic species   valence    mass     pseudopotential
        Si             4.00    28.08500     Si( 1.00)

     No symmetry found



   Cartesian axes

     site n.     atom                  positions (alat units)
         1           Si  tau(   1) = (   0.6542010   0.7501470   0.4942570  )
         2           Si  tau(   2) = (   0.6165420   0.3165070   0.3221710  )
         3           Si  tau(   3) = (   0.0319123   0.9164750   0.3804920  )
         4           Si  tau(   4) = (   0.7753870   0.5267410   0.2894590  )
         5           Si  tau(   5) = (   0.3372890   0.2146930   0.4269100  )
         6           Si  tau(   6) = (   0.1871490   0.8005920   0.9725270  )
         7           Si  tau(   7) = (   0.7019570   0.9675390   0.4795870  )
         8           Si  tau(   8) = (   0.2373930   0.0532064   0.9388570  )
         9           Si  tau(   9) = (   0.6205340   0.9309030   0.7712920  )
        10           Si  tau(  10) = (   0.0902180   0.8688650   0.8023270  )
        11           Si  tau(  11) = (   0.9065100   0.0008421   0.5890680  )
        12           Si  tau(  12) = (   0.9645660   0.8324800   0.1280810  )
        13           Si  tau(  13) = (   0.7179080   0.3694910   0.1144960  )
        14           Si  tau(  14) = (   0.8099670   0.1825380   0.6057780  )
        15           Si  tau(  15) = (   0.9201860   0.3411910   0.7542730  )
        16           Si  tau(  16) = (   0.3160920   0.8903790   0.5305420  )
        17           Si  tau(  17) = (   0.5906200   0.0929610   0.2621870  )
        18           Si  tau(  18) = (   0.6944590   0.4673980   0.8498340  )
        19           Si  tau(  19) = (   0.8287380   0.6918010   0.6909120  )
        20           Si  tau(  20) = (   0.4802120   0.1428370   0.8515140  )
        21           Si  tau(  21) = (   0.3828360   0.0996172   0.5913750  )
        22           Si  tau(  22) = (   0.8937170   0.9576610   0.8431900  )
        23           Si  tau(  23) = (   0.3585860   0.8667410   0.3203460  )
        24           Si  tau(  24) = (   0.3511230   0.4295370   0.8712690  )
        25           Si  tau(  25) = (   0.3603110   0.5205990   0.2846690  )
        26           Si  tau(  26) = (   0.0661370   0.3005750   0.2069670  )
        27           Si  tau(  27) = (   0.9567070   0.1064840   0.9843990  )
        28           Si  tau(  28) = (   0.8194250   0.0227183   0.2761680  )
        29           Si  tau(  29) = (   0.5308790   0.7486620   0.0959149  )
        30           Si  tau(  30) = (   0.6028070   0.0976648   0.6504740  )
        31           Si  tau(  31) = (   0.2203450   0.5193550   0.0031699  )
        32           Si  tau(  32) = (   0.1071500   0.4010670   0.3973720  )
        33           Si  tau(  33) = (   0.4232480   0.7389750   0.6582200  )
        34           Si  tau(  34) = (   0.6634690   0.1242450   0.0063599  )
        35           Si  tau(  35) = (   0.9278900   0.7095730   0.9510970  )
        36           Si  tau(  36) = (   0.5564450   0.3348790   0.8167960  )
        37           Si  tau(  37) = (   0.4511390   0.8913310   0.9520200  )
        38           Si  tau(  38) = (   0.7989670   0.9407520   0.0539068  )
        39           Si  tau(  39) = (   0.4026470   0.4414770   0.4913310  )
        40           Si  tau(  40) = (   0.0478526   0.1753780   0.5245100  )
        41           Si  tau(  41) = (   0.1230760   0.8752780   0.6051240  )
        42           Si  tau(  42) = (   0.0346119   0.4354320   0.8930840  )
        43           Si  tau(  43) = (   0.0862321   0.0467267   0.1206060  )
        44           Si  tau(  44) = (   0.9958470   0.7133520   0.3112840  )
        45           Si  tau(  45) = (   0.1811890   0.6995400   0.2209080  )
        46           Si  tau(  46) = (   0.2728330   0.5474410   0.6575340  )
        47           Si  tau(  47) = (   0.3887180   0.6277260   0.9982790  )
        48           Si  tau(  48) = (   0.1560440   0.3606540   0.6987520  )
        49           Si  tau(  49) = (   0.8684160   0.2398370   0.0924285  )
        50           Si  tau(  50) = (   0.5585700   0.8785860   0.2880140  )
        51           Si  tau(  51) = (   0.1245790   0.6236890   0.8109940  )
        52           Si  tau(  52) = (   0.1276550   0.1277960   0.3547530  )
        53           Si  tau(  53) = (   0.4384640   0.2693160   0.2102160  )
        54           Si  tau(  54) = (   0.2292890   0.9031870   0.1622330  )
        55           Si  tau(  55) = (   0.5463800   0.2672530   0.5416210  )
        56           Si  tau(  56) = (   0.1148350   0.2100230   0.8636230  )
        57           Si  tau(  57) = (   0.5742860   0.6544080   0.3383860  )
        58           Si  tau(  58) = (   0.8512620   0.4639890   0.6001650  )
        59           Si  tau(  59) = (   0.5455830   0.6235450   0.8369930  )
        60           Si  tau(  60) = (   0.8472340   0.6719070   0.4552000  )
        61           Si  tau(  61) = (   0.6770820   0.8025620   0.9118240  )
        62           Si  tau(  62) = (   0.0465343   0.5657560   0.6210980  )
        63           Si  tau(  63) = (   0.7560150   0.6236110   0.0818993  )
        64           Si  tau(  64) = (   0.4839740   0.4424270   0.1087610  )

     number of k points=     1  Fermi-Dirac smearing, width (Ry)=  0.0100
                       cart. coord. in units 2pi/alat
        k(    1) = (   0.0000000   0.0000000   0.0000000), wk =   2.0000000

     Dense  grid:    97224 G-vectors     FFT dimensions: (  72,  72,  72)

     Estimated max dynamical RAM per process >     154.93 MB

     Estimated total dynamical RAM >     595.98 MB

     Initial potential from superposition of free atoms

     starting charge     255.9608, renormalised to     256.0000
     Starting wfcs are  256 randomized atomic wfcs

     total cpu time spent up to now is        4.2 secs

     Self-consistent Calculation

     iteration #  1     ecut=    30.00 Ry     beta= 0.50
     Davidson diagonalization with overlap
     ethr =  1.00E-02,  avg # of iterations =  3.0

     Threshold (ethr) on eigenvalues was too large:
     Diagonalizing with lowered threshold

     Davidson diagonalization with overlap
     ethr =  6.51E-04,  avg # of iterations =  4.0

     total cpu time spent up to now is        4.4 secs

     total energy              =    -500.03317141 Ry
     estimated scf accuracy    <       2.15741244 Ry

     iteration #  2     ecut=    30.00 Ry     beta= 0.50
     Davidson diagonalization with overlap
     ethr =  8.43E-04,  avg # of iterations =  5.0

     total cpu time spent up to now is        4.5 secs

     total energy              =    -499.07142048 Ry
     estimated scf accuracy    <      13.45135024 Ry

     iteration #  3     ecut=    30.00 Ry     beta= 0.50
     Davidson diagonalization with overlap
     ethr =  8.43E-04,  avg # of iterations =  4.0

     total cpu time spent up to now is        4.6 secs

     total energy              =    -500.29128524 Ry
     estimated scf accuracy    <       4.17158862 Ry

     iteration #  4     ecut=    30.00 Ry     beta= 0.50
     Davidson diagonalization with overlap
     ethr =  8.43E-04,  avg # of iterations =  2.0

     total cpu time spent up to now is        4.7 secs

     total energy              =    -500.58737115 Ry
     estimated scf accuracy    <       0.66979634 Ry

     iteration #  5     ecut=    30.00 Ry     beta= 0.50
     Davidson diagonalization with overlap
     ethr =  2.62E-04,  avg # of iterations =  2.0

     total cpu time spent up to now is        4.8 secs

     total energy              =    -500.61324987 Ry
     estimated scf accuracy    <       0.76185678 Ry

     iteration #  6     ecut=    30.00 Ry     beta= 0.50
     Davidson diagonalization with overlap
     ethr =  2.62E-04,  avg # of iterations =  2.0

     total cpu time spent up to now is        4.9 secs

     total energy              =    -500.67274249 Ry
     estimated scf accuracy    <       0.19446112 Ry

     iteration #  7     ecut=    30.00 Ry     beta= 0.50
     Davidson diagonalization with overlap
     ethr =  7.60E-05,  avg # of iterations =  2.0

     total cpu time spent up to now is        5.0 secs

     total energy              =    -500.68930524 Ry
     estimated scf accuracy    <       0.04851641 Ry

     iteration #  8     ecut=    30.00 Ry     beta= 0.50
     Davidson diagonalization with overlap
     ethr =  1.90E-05,  avg # of iterations =  9.0

     total cpu time spent up to now is        5.1 secs

     total energy              =    -500.69356923 Ry
     estimated scf accuracy    <       0.05701061 Ry

     iteration #  9     ecut=    30.00 Ry     beta= 0.50
     Davidson diagonalization with overlap
     ethr =  1.90E-05,  avg # of iterations =  2.0

     total cpu time spent up to now is        5.2 secs

     total energy              =    -500.69763539 Ry
     estimated scf accuracy    <       0.00421630 Ry

     iteration # 10     ecut=    30.00 Ry     beta= 0.50
     Davidson diagonalization with overlap
     ethr =  1.65E-06,  avg # of iterations = 18.0

     total cpu time spent up to now is        5.4 secs

     total energy              =    -500.69807817 Ry
     estimated scf accuracy    <       0.00494402 Ry

     iteration # 11     ecut=    30.00 Ry     beta= 0.50
     Davidson diagonalization with overlap
     ethr =  1.65E-06,  avg # of iterations =  2.0

     total cpu time spent up to now is        5.5 secs

     total energy              =    -500.69843103 Ry
     estimated scf accuracy    <       0.00213944 Ry

     iteration # 12     ecut=    30.00 Ry     beta= 0.50
     Davidson diagonalization with overlap
     ethr =  8.36E-07,  avg # of iterations =  2.0

     total cpu time spent up to now is        5.5 secs

     total energy              =    -500.69859246 Ry
     estimated scf accuracy    <       0.00055210 Ry

     iteration # 13     ecut=    30.00 Ry     beta= 0.50
     Davidson diagonalization with overlap
     ethr =  2.16E-07,  avg # of iterations =  3.0

     total cpu time spent up to now is        5.6 secs

     total energy              =    -500.69864831 Ry
     estimated scf accuracy    <       0.00049044 Ry

     iteration # 14     ecut=    30.00 Ry     beta= 0.50
     Davidson diagonalization with overlap
     ethr =  1.92E-07,  avg # of iterations =  1.0

     total cpu time spent up to now is        5.7 secs

     total energy              =    -500.69867708 Ry
     estimated scf accuracy    <       0.00007872 Ry

     iteration # 15     ecut=    30.00 Ry     beta= 0.50
     Davidson diagonalization with overlap
     ethr =  3.07E-08,  avg # of iterations =  3.0

     total cpu time spent up to now is        5.8 secs

     total energy              =    -500.69868421 Ry
     estimated scf accuracy    <       0.00005951 Ry

     iteration # 16     ecut=    30.00 Ry     beta= 0.50
     Davidson diagonalization with overlap
     ethr =  2.32E-08,  avg # of iterations =  3.0

     total cpu time spent up to now is        5.9 secs

     total energy              =    -500.69868585 Ry
     estimated scf accuracy    <       0.00008060 Ry

     iteration # 17     ecut=    30.00 Ry     beta= 0.50
     Davidson diagonalization with overlap
     ethr =  2.32E-08,  avg # of iterations =  2.0

     total cpu time spent up to now is        6.0 secs

     total energy              =    -500.69869065 Ry
     estimated scf accuracy    <       0.00002780 Ry

     iteration # 18     ecut=    30.00 Ry     beta= 0.50
     Davidson diagonalization with overlap
     ethr =  1.09E-08,  avg # of iterations =  2.0

     total cpu time spent up to now is        6.0 secs

     total energy              =    -500.69869266 Ry
     estimated scf accuracy    <       0.00000444 Ry

     iteration # 19     ecut=    30.00 Ry     beta= 0.50
     Davidson diagonalization with overlap
     ethr =  1.73E-09,  avg # of iterations =  5.0

     total cpu time spent up to now is        6.2 secs

     total energy              =    -500.69869295 Ry
     estimated scf accuracy    <       0.00000634 Ry

     iteration # 20     ecut=    30.00 Ry     beta= 0.50
     Davidson diagonalization with overlap
     ethr =  1.73E-09,  avg # of iterations =  2.0

     total cpu time spent up to now is        6.2 secs

     total energy              =    -500.69869335 Ry
     estimated scf accuracy    <       0.00000153 Ry

     iteration # 21     ecut=    30.00 Ry     beta= 0.50
     Davidson diagonalization with overlap
     ethr =  5.98E-10,  avg # of iterations =  3.0

     total cpu time spent up to now is        6.3 secs

     End of self-consistent calculation

          k = 0.0000 0.0000 0.0000 ( 12104 PWs)   bands (ev):

    -6.4115  -5.8076  -5.6028  -5.3972  -5.2516  -5.0377  -4.9982  -4.5693
    -4.5192  -4.4190  -4.2777  -4.1241  -4.0524  -3.9134  -3.6738  -3.6041
    -3.5337  -3.3798  -3.2654  -3.2294  -2.9960  -2.8224  -2.6420  -2.5142
    -2.4192  -2.1351  -2.0847  -1.9752  -1.7300  -1.6662  -1.5349  -1.4064
    -1.2670  -1.1857  -1.0597  -1.0224  -0.8893  -0.7704  -0.6570  -0.6004
    -0.5889  -0.4015  -0.3712  -0.2799  -0.0705   0.0175   0.0355   0.0808
     0.1929   0.3068   0.3686   0.5195   0.5658   0.6245   0.7124   0.9431
     1.0445   1.1150   1.3405   1.3969   1.4230   1.5927   1.6666   1.8205
     1.8973   1.9818   2.0010   2.0343   2.2116   2.2576   2.2708   2.4076
     2.4755   2.5411   2.6726   2.7212   2.8243   2.8995   3.0161   3.1196
     3.2270   3.2601   3.3377   3.3570   3.4688   3.5233   3.5760   3.6812
     3.7378   3.9140   3.9420   3.9895   4.0502   4.0971   4.1319   4.2043
     4.3518   4.3776   4.4326   4.5792   4.6034   4.6739   4.7216   4.8436
     4.9051   4.9761   5.0148   5.0621   5.1428   5.2196   5.2506   5.2872
     5.3546   5.3907   5.4506   5.5697   5.5958   5.6327   5.6840   5.7791
     5.7878   5.9628   5.9726   6.0563   6.0983   6.1565   6.1928   6.2614
     6.3430   6.3791   6.4321   6.4892   6.5296   6.5468   6.6414   6.7062
     6.7813   6.8594   6.9648   6.9929   7.0334   7.1269   7.1605   7.2673
     7.3411   7.3679   7.4277   7.4803   7.5221   7.6300   7.7038   7.7401
     7.7892   7.8270

     the Fermi energy is     6.2901 ev

!    total energy              =    -500.69869281 Ry
     estimated scf accuracy    <       0.00000097 Ry
     smearing contrib. (-TS)   =      -0.15666175 Ry
     internal energy E=F+TS    =    -500.54203106 Ry

     The total energy is F=E-TS. E is the sum of the following terms:
     one-electron contribution =     120.90581095 Ry
     hartree contribution      =      49.49259932 Ry
     xc contribution           =    -150.71038363 Ry
     ewald contribution        =    -520.23005770 Ry

     convergence has been achieved in  21 iterations

     Forces acting on atoms (cartesian axes, Ry/au):

     atom    1 type  1   force =    -0.00061440    0.06875506    0.08996046
     atom    2 type  1   force =     0.02515208   -0.00008717    0.02514286
     atom    3 type  1   force =    -0.01563971    0.03277241    0.02038392
     atom    4 type  1   force =    -0.02624901   -0.00959877   -0.00359904
     atom    5 type  1   force =    -0.02878388    0.05372807   -0.06934218
     atom    6 type  1   force =     0.03058255   -0.03330772    0.02623629
     atom    7 type  1   force =     0.01010124    0.00380855   -0.00622711
     atom    8 type  1   force =     0.04769450   -0.04029434    0.00424735
     atom    9 type  1   force =    -0.04152633    0.00719201   -0.01786295
     atom   10 type  1   force =    -0.02717132    0.00831256    0.03532632
     atom   11 type  1   force =     0.04341038   -0.06321736    0.00419122
     atom   12 type  1   force =     0.04205875    0.00090745    0.00949774
     atom   13 type  1   force =    -0.07128778    0.06449110   -0.00091630
     atom   14 type  1   force =    -0.00738514    0.06925229    0.02781514
     atom   15 type  1   force =    -0.04933329   -0.06903410   -0.02436892
     atom   16 type  1   force =     0.03003195    0.01185613    0.01410651
     atom   17 type  1   force =     0.02759960    0.01469144   -0.04358509
     atom   18 type  1   force =     0.10259799    0.06582434    0.01771178
     atom   19 type  1   force =    -0.00544392   -0.00233337    0.00178795
     atom   20 type  1   force =     0.00674284   -0.05039808   -0.00028915
     atom   21 type  1   force =    -0.00006780   -0.03336314    0.03711414
     atom   22 type  1   force =    -0.01495127   -0.02226941   -0.03686426
     atom   23 type  1   force =    -0.03874102   -0.02140692    0.03144610
     atom   24 type  1   force =     0.03810334   -0.00683156   -0.06208952
     atom   25 type  1   force =     0.01515521    0.02585059    0.01394890
     atom   26 type  1   force =    -0.00698701   -0.02989354   -0.01328054
     atom   27 type  1   force =     0.00167754   -0.03062898   -0.13519256
     atom   28 type  1   force =    -0.00122944    0.00490784   -0.01096219
     atom   29 type  1   force =     0.05663992    0.01371963    0.03326012
     atom   30 type  1   force =     0.01143551   -0.02066997    0.00017924
     atom   31 type  1   force =    -0.09765799   -0.01008077    0.05076859
     atom   32 type  1   force =     0.00680604   -0.01874319    0.02578849
     atom   33 type  1   force =     0.01961334   -0.01205938    0.01077243
     atom   34 type  1   force =    -0.02627459    0.00043301    0.02582646
     atom   35 type  1   force =     0.00133269   -0.00000488   -0.02875069
     atom   36 type  1   force =    -0.09938914   -0.06309413   -0.02493599
     atom   37 type  1   force =    -0.03326487    0.02611226   -0.02782955
     atom   38 type  1   force =    -0.05347412    0.00285208   -0.01079106
     atom   39 type  1   force =    -0.02370154   -0.02419005   -0.00778275
     atom   40 type  1   force =    -0.04788792    0.05913406    0.12120407
     atom   41 type  1   force =    -0.04299758    0.00424171   -0.07143414
     atom   42 type  1   force =     0.02289614    0.01344573    0.05531723
     atom   43 type  1   force =     0.04442279   -0.00312872    0.07774402
     atom   44 type  1   force =    -0.02158220    0.02443576    0.00188657
     atom   45 type  1   force =     0.06278166   -0.04871492   -0.01566949
     atom   46 type  1   force =     0.04661239    0.01041174   -0.00393945
     atom   47 type  1   force =     0.04958530    0.03467429   -0.03161025
     atom   48 type  1   force =    -0.00767051   -0.02974983   -0.00422517
     atom   49 type  1   force =     0.01512201    0.03442124    0.08851373
     atom   50 type  1   force =     0.04736069   -0.01324794   -0.01967730
     atom   51 type  1   force =     0.00076383    0.02960227    0.05126416
     atom   52 type  1   force =     0.06210511   -0.02681100   -0.11290116
     atom   53 type  1   force =    -0.03360406   -0.06274284    0.04837644
     atom   54 type  1   force =     0.00721985   -0.00481547   -0.02270596
     atom   55 type  1   force =    -0.00645180    0.07751786   -0.04301842
     atom   56 type  1   force =    -0.01310065    0.04953082   -0.01594895
     atom   57 type  1   force =    -0.02716436   -0.06666058   -0.08494608
     atom   58 type  1   force =    -0.01614119    0.03788318   -0.02377528
     atom   59 type  1   force =    -0.01982601    0.02948976   -0.00327267
     atom   60 type  1   force =     0.01729487   -0.04052740    0.02522213
     atom   61 type  1   force =     0.03612780   -0.06095060    0.06713939
     atom   62 type  1   force =    -0.01043383    0.00592384   -0.03978553
     atom   63 type  1   force =    -0.02632155   -0.00931790   -0.00535481
     atom   64 type  1   force =     0.01332732    0.04199488   -0.01924524

     Total force =     0.551914     Total SCF correction =     0.001920


     Computing stress (Cartesian axis) and pressure

          total   stress  (Ry/bohr**3)                   (kbar)     P=       -1.59
   0.00001481  -0.00004542   0.00003550            2.18       -6.68        5.22
  -0.00004542  -0.00002243  -0.00001442           -6.68       -3.30       -2.12
   0.00003550  -0.00001442  -0.00002480            5.22       -2.12       -3.65

 
     init_run     :      0.95s CPU      4.18s WALL (       1 calls)
     electrons    :      1.90s CPU      2.08s WALL (       1 calls)
     forces       :      0.03s CPU      0.03s WALL (       1 calls)
     stress       :      0.15s CPU      0.15s WALL (       1 calls)

     Called by init_run:
     wfcinit      :      0.45s CPU      3.52s WALL (       1 calls)
                                        3.52s GPU  (       1 calls)
     potinit      :      0.03s CPU      0.11s WALL (       1 calls)
     hinit0       :      0.45s CPU      0.48s WALL (       1 calls)

     Called by electrons:
     c_bands      :      1.24s CPU      1.32s WALL (      22 calls)
     sum_band     :      0.34s CPU      0.40s WALL (      22 calls)
     v_of_rho     :      0.13s CPU      0.22s WALL (      22 calls)
     mix_rho      :      0.17s CPU      0.19s WALL (      22 calls)

     Called by c_bands:
     init_us_2    :      0.06s CPU      0.06s WALL (      45 calls)
     init_us_2:gp :      0.05s CPU      0.06s WALL (      45 calls)
     regterg      :      1.09s CPU      1.15s WALL (      22 calls)

     Called by *egterg:
     rdiaghg      :      0.46s CPU      1.09s WALL (     102 calls)
                                        1.08s GPU  (     102 calls)
     h_psi        :      0.89s CPU      3.37s WALL (     104 calls)
                                        3.37s GPU  (     104 calls)
     g_psi        :      0.00s CPU      0.00s WALL (      81 calls)
                                        0.00s GPU  (      81 calls)

     Called by h_psi:
     h_psi:calbec :      0.44s CPU      2.85s WALL (     104 calls)
                                        2.85s GPU  (     104 calls)
     vloc_psi     :      0.39s CPU      0.46s WALL (     104 calls)
                                        0.46s GPU  (     104 calls)
     add_vuspsi   :      0.04s CPU      0.06s WALL (     104 calls)
                                        0.06s GPU  (     104 calls)

     General routines
     calbec       :      0.44s CPU      2.85s WALL (     109 calls)
     fft          :      0.56s CPU      0.68s WALL (     183 calls)
                                        0.11s GPU  (     116 calls)
     ffts         :      0.03s CPU      0.04s WALL (      22 calls)
     fftw         :      0.48s CPU      0.63s WALL (    2316 calls)
                                        0.55s GPU  (    2316 calls)
 
     Parallel routines
 
     PWSCF        :      3.07s CPU      6.51s WALL

 
   This run was terminated on:  10:12:21  11May2023            

=------------------------------------------------------------------------------=
   JOB DONE.
=------------------------------------------------------------------------------=
