An instance of this daemon is already running

     Program PWSCF v.7.1 starts on 11May2023 at 10: 6: 9 

     This program is part of the open-source Quantum ESPRESSO suite
     for quantum simulation of materials; please cite
         "P. Giannozzi et al., J. Phys.:Condens. Matter 21 395502 (2009);
         "P. Giannozzi et al., J. Phys.:Condens. Matter 29 465901 (2017);
         "P. Giannozzi et al., J. Chem. Phys. 152 154105 (2020);
          URL http://www.quantum-espresso.org", 
     in publications or presentations arising from this work. More details at
     http://www.quantum-espresso.org/quote

     Parallel version (MPI & OpenMP), running on       4 processor cores
     Number of MPI processes:                 4
     Threads/MPI process:                     1

     MPI processes distributed on     1 nodes
     259087 MiB available memory on the printing compute node when the environment starts
 
     Reading input from pw-si-46.in
Warning: card &CELL ignored
Warning: card / ignored

     Current dimensions of program PWSCF are:
     Max number of different atomic species (ntypx) = 10
     Max number of k-points (npk) =  40000
     Max angular momentum in pseudopotentials (lmaxx) =  4

     IMPORTANT: XC functional enforced from input :
     Exchange-correlation= PBE
                           (   1   4   3   4   0   0   0)
     Any further DFT definition will be discarded
     Please, verify this is what you really want


     gamma-point specific algorithms are used
 
     K-points division:     npool     =       2
     R & G space division:  proc/nbgrp/npool/nimage =       2
     Subspace diagonalization in iterative solution of the eigenvalue problem:
     a serial algorithm will be used

     Message from routine divide_et_impera:
     suboptimal parallelization: some nodes have no k-points
 
     Parallelization info
     --------------------
     sticks:   dense  smooth     PW     G-vecs:    dense   smooth      PW
     Min        2082    2082    549               100742   100742   13684
     Max        2083    2083    552               100743   100743   13685
     Sum        4165    4165   1101               201485   201485   27369
 
     Using Slab Decomposition
 


     bravais-lattice index     =            0
     lattice parameter (alat)  =      20.8592  a.u.
     unit-cell volume          =    9076.0020 (a.u.)^3
     number of atoms/cell      =           64
     number of atomic types    =            1
     number of electrons       =       256.00
     number of Kohn-Sham states=          154
     kinetic-energy cutoff     =      30.0000  Ry
     charge density cutoff     =     120.0000  Ry
     scf convergence threshold =      1.0E-06
     mixing beta               =       0.5000
     number of iterations used =            8  plain     mixing
     Exchange-correlation= PBE
                           (   1   4   3   4   0   0   0)

     GPU acceleration is ACTIVE.
     GPU-aware MPI enabled

     Message from routine print_cuda_info:
     High GPU oversubscription detected. Are you sure this is what you want?

     celldm(1)=  20.859226  celldm(2)=   0.000000  celldm(3)=   0.000000
     celldm(4)=   0.000000  celldm(5)=   0.000000  celldm(6)=   0.000000

     crystal axes: (cart. coord. in units of alat)
               a(1) = (   1.000000   0.000000   0.000000 )  
               a(2) = (   0.000000   1.000000   0.000000 )  
               a(3) = (   0.000000   0.000000   1.000000 )  

     reciprocal axes: (cart. coord. in units 2 pi/alat)
               b(1) = (  1.000000  0.000000  0.000000 )  
               b(2) = (  0.000000  1.000000  0.000000 )  
               b(3) = (  0.000000  0.000000  1.000000 )  


     PseudoPot. # 1 for Si read from file:
     /home/ppiaggi/pseudos/Si_ONCV_PBE_sr.upf
     MD5 check sum: 8553c464762ac42b85b1eed164b4d029
     Pseudo is Norm-conserving, Zval =  4.0
     Generated using ONCVPSP code by D. R. Hamann
     Using radial grid of 1510 points,  4 beta functions with: 
                l(1) =   0
                l(2) =   0
                l(3) =   1
                l(4) =   1

     atomic species   valence    mass     pseudopotential
        Si             4.00    28.08500     Si( 1.00)

     No symmetry found



   Cartesian axes

     site n.     atom                  positions (alat units)
         1           Si  tau(   1) = (   0.6196020   0.7690380   0.8184190  )
         2           Si  tau(   2) = (   0.7233240   0.0416620   0.3916360  )
         3           Si  tau(   3) = (   0.0049237   0.9228760   0.3487480  )
         4           Si  tau(   4) = (   0.9466150   0.6125530   0.3422830  )
         5           Si  tau(   5) = (   0.2882620   0.1280060   0.2562480  )
         6           Si  tau(   6) = (   0.4272870   0.5918240   0.0456667  )
         7           Si  tau(   7) = (   0.6857430   0.8492680   0.5720220  )
         8           Si  tau(   8) = (   0.3522580   0.2550790   0.9071640  )
         9           Si  tau(   9) = (   0.4664510   0.9916480   0.8466690  )
        10           Si  tau(  10) = (   0.1309690   0.8925730   0.6381180  )
        11           Si  tau(  11) = (   0.9757300   0.7352660   0.7822650  )
        12           Si  tau(  12) = (   0.8563090   0.7691620   0.2451780  )
        13           Si  tau(  13) = (   0.6983580   0.3284830   0.1938020  )
        14           Si  tau(  14) = (   0.8046070   0.2993110   0.6109650  )
        15           Si  tau(  15) = (   0.7315910   0.2392750   0.7881230  )
        16           Si  tau(  16) = (   0.3207650   0.9770690   0.5572190  )
        17           Si  tau(  17) = (   0.5153970   0.9743110   0.2334360  )
        18           Si  tau(  18) = (   0.8124660   0.5077560   0.1650880  )
        19           Si  tau(  19) = (   0.5735760   0.5615260   0.7244820  )
        20           Si  tau(  20) = (   0.4102880   0.3798400   0.0697566  )
        21           Si  tau(  21) = (   0.5087940   0.1147170   0.6447410  )
        22           Si  tau(  22) = (   0.0206589   0.0064615   0.8071870  )
        23           Si  tau(  23) = (   0.3347070   0.7884400   0.2830740  )
        24           Si  tau(  24) = (   0.3297740   0.2357660   0.6492500  )
        25           Si  tau(  25) = (   0.3516460   0.5112520   0.4642570  )
        26           Si  tau(  26) = (   0.0783214   0.4564590   0.4381160  )
        27           Si  tau(  27) = (   0.0000501   0.0170904   0.0403950  )
        28           Si  tau(  28) = (   0.7328160   0.9505770   0.1913380  )
        29           Si  tau(  29) = (   0.5947940   0.9910470   0.0040891  )
        30           Si  tau(  30) = (   0.6931070   0.0372761   0.6859110  )
        31           Si  tau(  31) = (   0.2452660   0.4106860   0.7495450  )
        32           Si  tau(  32) = (   0.2615520   0.2885760   0.4386720  )
        33           Si  tau(  33) = (   0.3204470   0.8500110   0.7449690  )
        34           Si  tau(  34) = (   0.7024580   0.2042580   0.9995870  )
        35           Si  tau(  35) = (   0.9739390   0.6122850   0.9697070  )
        36           Si  tau(  36) = (   0.5703680   0.4358200   0.9329140  )
        37           Si  tau(  37) = (   0.3545300   0.0595289   0.9984900  )
        38           Si  tau(  38) = (   0.8086090   0.9118130   0.8345380  )
        39           Si  tau(  39) = (   0.5508570   0.4815510   0.5428780  )
        40           Si  tau(  40) = (   0.9462400   0.1264010   0.3894820  )
        41           Si  tau(  41) = (   0.1685970   0.9954730   0.4175260  )
        42           Si  tau(  42) = (   0.8365880   0.3782240   0.9859380  )
        43           Si  tau(  43) = (   0.1751780   0.1878280   0.0602305  )
        44           Si  tau(  44) = (   0.0687569   0.4903210   0.1304640  )
        45           Si  tau(  45) = (   0.2198760   0.6254420   0.1372300  )
        46           Si  tau(  46) = (   0.3189930   0.7270530   0.5102760  )
        47           Si  tau(  47) = (   0.6506810   0.6274280   0.0674047  )
        48           Si  tau(  48) = (   0.0550825   0.2584520   0.5196980  )
        49           Si  tau(  49) = (   0.8425060   0.1402950   0.1937170  )
        50           Si  tau(  50) = (   0.5292260   0.7679020   0.4032750  )
        51           Si  tau(  51) = (   0.1514410   0.6226390   0.6964800  )
        52           Si  tau(  52) = (   0.9938150   0.3062600   0.1982880  )
        53           Si  tau(  53) = (   0.4985980   0.1955830   0.2675790  )
        54           Si  tau(  54) = (   0.2272050   0.9245330   0.1414750  )
        55           Si  tau(  55) = (   0.6817010   0.3214770   0.3974830  )
        56           Si  tau(  56) = (   0.1817880   0.1311500   0.7932630  )
        57           Si  tau(  57) = (   0.5508740   0.6205350   0.2429870  )
        58           Si  tau(  58) = (   0.7658850   0.6476000   0.5602710  )
        59           Si  tau(  59) = (   0.3593510   0.5752090   0.6808930  )
        60           Si  tau(  60) = (   0.9018930   0.8490450   0.5282830  )
        61           Si  tau(  61) = (   0.3393980   0.7799500   0.9901510  )
        62           Si  tau(  62) = (   0.0972248   0.6923430   0.4495220  )
        63           Si  tau(  63) = (   0.7776090   0.8265780   0.0407727  )
        64           Si  tau(  64) = (   0.3165030   0.4510550   0.2582610  )

     number of k points=     1  Fermi-Dirac smearing, width (Ry)=  0.0100
                       cart. coord. in units 2pi/alat
        k(    1) = (   0.0000000   0.0000000   0.0000000), wk =   2.0000000

     Dense  grid:   100743 G-vectors     FFT dimensions: (  75,  75,  75)

     Estimated max dynamical RAM per process >     161.81 MB

     Estimated total dynamical RAM >     622.63 MB

     Initial potential from superposition of free atoms

     starting charge     255.9608, renormalised to     256.0000
     Starting wfcs are  256 randomized atomic wfcs

     total cpu time spent up to now is        4.2 secs

     Self-consistent Calculation

     iteration #  1     ecut=    30.00 Ry     beta= 0.50
     Davidson diagonalization with overlap
     ethr =  1.00E-02,  avg # of iterations =  3.0

     Threshold (ethr) on eigenvalues was too large:
     Diagonalizing with lowered threshold

     Davidson diagonalization with overlap
     ethr =  5.55E-04,  avg # of iterations =  4.0

     total cpu time spent up to now is        4.4 secs

     total energy              =    -500.14843236 Ry
     estimated scf accuracy    <       1.82661020 Ry

     iteration #  2     ecut=    30.00 Ry     beta= 0.50
     Davidson diagonalization with overlap
     ethr =  7.14E-04,  avg # of iterations =  3.0

     total cpu time spent up to now is        4.5 secs

     total energy              =    -499.44763604 Ry
     estimated scf accuracy    <      10.04499252 Ry

     iteration #  3     ecut=    30.00 Ry     beta= 0.50
     Davidson diagonalization with overlap
     ethr =  7.14E-04,  avg # of iterations =  5.0

     total cpu time spent up to now is        4.6 secs

     total energy              =    -500.31664270 Ry
     estimated scf accuracy    <       3.60447650 Ry

     iteration #  4     ecut=    30.00 Ry     beta= 0.50
     Davidson diagonalization with overlap
     ethr =  7.14E-04,  avg # of iterations =  2.0

     total cpu time spent up to now is        4.7 secs

     total energy              =    -500.57774775 Ry
     estimated scf accuracy    <       0.89633165 Ry

     iteration #  5     ecut=    30.00 Ry     beta= 0.50
     Davidson diagonalization with overlap
     ethr =  3.50E-04,  avg # of iterations =  2.0

     total cpu time spent up to now is        4.8 secs

     total energy              =    -500.61269848 Ry
     estimated scf accuracy    <       0.82901653 Ry

     iteration #  6     ecut=    30.00 Ry     beta= 0.50
     Davidson diagonalization with overlap
     ethr =  3.24E-04,  avg # of iterations =  2.0

     total cpu time spent up to now is        4.9 secs

     total energy              =    -500.67460212 Ry
     estimated scf accuracy    <       0.15751149 Ry

     iteration #  7     ecut=    30.00 Ry     beta= 0.50
     Davidson diagonalization with overlap
     ethr =  6.15E-05,  avg # of iterations =  2.0

     total cpu time spent up to now is        5.0 secs

     total energy              =    -500.68773013 Ry
     estimated scf accuracy    <       0.11769011 Ry

     iteration #  8     ecut=    30.00 Ry     beta= 0.50
     Davidson diagonalization with overlap
     ethr =  4.60E-05,  avg # of iterations =  2.0

     total cpu time spent up to now is        5.1 secs

     total energy              =    -500.69783774 Ry
     estimated scf accuracy    <       0.01420493 Ry

     iteration #  9     ecut=    30.00 Ry     beta= 0.50
     Davidson diagonalization with overlap
     ethr =  5.55E-06,  avg # of iterations = 11.0

     total cpu time spent up to now is        5.3 secs

     total energy              =    -500.69975857 Ry
     estimated scf accuracy    <       0.00590893 Ry

     iteration # 10     ecut=    30.00 Ry     beta= 0.50
     Davidson diagonalization with overlap
     ethr =  2.31E-06,  avg # of iterations =  7.0

     total cpu time spent up to now is        5.4 secs

     total energy              =    -500.70016950 Ry
     estimated scf accuracy    <       0.00525037 Ry

     iteration # 11     ecut=    30.00 Ry     beta= 0.50
     Davidson diagonalization with overlap
     ethr =  2.05E-06,  avg # of iterations =  2.0

     total cpu time spent up to now is        5.5 secs

     total energy              =    -500.70059434 Ry
     estimated scf accuracy    <       0.00113841 Ry

     iteration # 12     ecut=    30.00 Ry     beta= 0.50
     Davidson diagonalization with overlap
     ethr =  4.45E-07,  avg # of iterations =  2.0

     total cpu time spent up to now is        5.6 secs

     total energy              =    -500.70070507 Ry
     estimated scf accuracy    <       0.00035733 Ry

     iteration # 13     ecut=    30.00 Ry     beta= 0.50
     Davidson diagonalization with overlap
     ethr =  1.40E-07,  avg # of iterations =  4.0

     total cpu time spent up to now is        5.7 secs

     total energy              =    -500.70071543 Ry
     estimated scf accuracy    <       0.00085715 Ry

     iteration # 14     ecut=    30.00 Ry     beta= 0.50
     Davidson diagonalization with overlap
     ethr =  1.40E-07,  avg # of iterations =  2.0

     total cpu time spent up to now is        5.8 secs

     total energy              =    -500.70077138 Ry
     estimated scf accuracy    <       0.00004967 Ry

     iteration # 15     ecut=    30.00 Ry     beta= 0.50
     Davidson diagonalization with overlap
     ethr =  1.94E-08,  avg # of iterations =  5.0

     total cpu time spent up to now is        6.0 secs

     total energy              =    -500.70077342 Ry
     estimated scf accuracy    <       0.00013978 Ry

     iteration # 16     ecut=    30.00 Ry     beta= 0.50
     Davidson diagonalization with overlap
     ethr =  1.94E-08,  avg # of iterations =  3.0

     total cpu time spent up to now is        6.1 secs

     total energy              =    -500.70078115 Ry
     estimated scf accuracy    <       0.00001404 Ry

     iteration # 17     ecut=    30.00 Ry     beta= 0.50
     Davidson diagonalization with overlap
     ethr =  5.49E-09,  avg # of iterations =  4.0

     total cpu time spent up to now is        6.2 secs

     total energy              =    -500.70078244 Ry
     estimated scf accuracy    <       0.00003329 Ry

     iteration # 18     ecut=    30.00 Ry     beta= 0.50
     Davidson diagonalization with overlap
     ethr =  5.49E-09,  avg # of iterations =  2.0

     total cpu time spent up to now is        6.3 secs

     total energy              =    -500.70078438 Ry
     estimated scf accuracy    <       0.00000176 Ry

     iteration # 19     ecut=    30.00 Ry     beta= 0.50
     Davidson diagonalization with overlap
     ethr =  6.87E-10,  avg # of iterations =  5.0

     total cpu time spent up to now is        6.4 secs

     total energy              =    -500.70078451 Ry
     estimated scf accuracy    <       0.00000247 Ry

     iteration # 20     ecut=    30.00 Ry     beta= 0.50
     Davidson diagonalization with overlap
     ethr =  6.87E-10,  avg # of iterations =  2.0

     total cpu time spent up to now is        6.5 secs

     End of self-consistent calculation

          k = 0.0000 0.0000 0.0000 ( 12635 PWs)   bands (ev):

    -6.4531  -5.8781  -5.6803  -5.6154  -5.2669  -5.1828  -5.0072  -4.8211
    -4.7397  -4.5735  -4.4202  -4.2185  -4.1345  -4.0458  -3.9836  -3.8443
    -3.7439  -3.5979  -3.5238  -3.3972  -3.3053  -3.1380  -3.0367  -2.8274
    -2.5291  -2.4765  -2.3119  -2.1130  -1.9190  -1.8326  -1.7729  -1.7401
    -1.5483  -1.4639  -1.3594  -1.2223  -1.1074  -1.0500  -0.9737  -0.8514
    -0.7864  -0.6638  -0.6131  -0.5150  -0.4235  -0.3132  -0.2781  -0.1755
    -0.0574  -0.0399   0.0808   0.1196   0.2436   0.3190   0.4476   0.5564
     0.6365   0.8475   1.0161   1.0884   1.1373   1.2988   1.3743   1.5397
     1.6259   1.7035   1.7977   1.8130   1.9515   1.9980   2.0391   2.1436
     2.2679   2.3373   2.5019   2.5396   2.5873   2.7133   2.8486   2.8858
     2.9615   3.0443   3.0775   3.1817   3.2996   3.3360   3.4173   3.4715
     3.5409   3.6062   3.6322   3.7154   3.8040   3.8789   4.0176   4.0422
     4.0569   4.1252   4.2168   4.2886   4.3161   4.4034   4.4322   4.4979
     4.5266   4.5853   4.6450   4.7471   4.7616   4.7827   4.8394   4.9535
     4.9858   5.0582   5.1716   5.2147   5.2803   5.2984   5.3392   5.3824
     5.4810   5.5208   5.5887   5.6044   5.6320   5.7684   5.8412   5.9052
     5.9273   5.9801   6.0728   6.1231   6.1764   6.1982   6.2955   6.3338
     6.3930   6.4001   6.4952   6.6729   6.7325   6.7389   6.7936   6.8420
     6.8796   6.9536   7.0325   7.0725   7.0937   7.1983   7.2603   7.2962
     7.3164   7.4471

     the Fermi energy is     5.9061 ev

!    total energy              =    -500.70078429 Ry
     estimated scf accuracy    <       0.00000058 Ry
     smearing contrib. (-TS)   =      -0.15095473 Ry
     internal energy E=F+TS    =    -500.54982955 Ry

     The total energy is F=E-TS. E is the sum of the following terms:
     one-electron contribution =     102.90138569 Ry
     hartree contribution      =      55.20908057 Ry
     xc contribution           =    -149.48240595 Ry
     ewald contribution        =    -509.17788988 Ry

     convergence has been achieved in  20 iterations

     Forces acting on atoms (cartesian axes, Ry/au):

     atom    1 type  1   force =     0.00149089    0.00364691   -0.01001741
     atom    2 type  1   force =     0.01757534    0.01405498    0.03171035
     atom    3 type  1   force =    -0.10014350   -0.04666461   -0.05165506
     atom    4 type  1   force =    -0.04996190   -0.07628652   -0.03215070
     atom    5 type  1   force =    -0.02701854    0.00623371    0.00801559
     atom    6 type  1   force =    -0.00160898    0.01661609    0.02195141
     atom    7 type  1   force =    -0.01037790    0.02860334   -0.01246883
     atom    8 type  1   force =    -0.02932405    0.02370737   -0.01078804
     atom    9 type  1   force =     0.00186550   -0.03858827   -0.12359967
     atom   10 type  1   force =    -0.03840747   -0.01390928    0.02288384
     atom   11 type  1   force =    -0.00955485    0.00626108   -0.01236534
     atom   12 type  1   force =     0.00046535    0.04439935   -0.02215387
     atom   13 type  1   force =    -0.00906002   -0.01853280   -0.03620609
     atom   14 type  1   force =     0.04416183   -0.00605460   -0.06957550
     atom   15 type  1   force =    -0.02856681   -0.02822850    0.03732312
     atom   16 type  1   force =     0.04215553   -0.00004214    0.03355615
     atom   17 type  1   force =    -0.00728595    0.00445877   -0.01309675
     atom   18 type  1   force =     0.02711955    0.01780393    0.00550797
     atom   19 type  1   force =     0.00061000    0.03017350    0.08320951
     atom   20 type  1   force =     0.00773443   -0.02299310    0.02910205
     atom   21 type  1   force =    -0.05804544   -0.00667317    0.01344207
     atom   22 type  1   force =    -0.03544230   -0.03705565    0.01360071
     atom   23 type  1   force =    -0.00052575   -0.00475501   -0.02608873
     atom   24 type  1   force =    -0.02380231    0.01069919   -0.00732952
     atom   25 type  1   force =    -0.00757906   -0.01412797   -0.00379714
     atom   26 type  1   force =     0.02499290    0.01740656   -0.01073659
     atom   27 type  1   force =     0.02849349    0.02147767    0.00334574
     atom   28 type  1   force =    -0.01878099    0.03988963    0.05411528
     atom   29 type  1   force =     0.04648048    0.00950628    0.05802263
     atom   30 type  1   force =     0.04574041    0.00220837    0.00741253
     atom   31 type  1   force =     0.00088018   -0.02796478    0.01301397
     atom   32 type  1   force =    -0.00083709    0.01130778   -0.00947047
     atom   33 type  1   force =     0.00890077   -0.01248335    0.01824937
     atom   34 type  1   force =    -0.01107400   -0.03209262    0.00799420
     atom   35 type  1   force =    -0.02387864   -0.03191390    0.00150909
     atom   36 type  1   force =     0.03159054    0.01441147   -0.02016264
     atom   37 type  1   force =    -0.04691848   -0.00012198    0.05922677
     atom   38 type  1   force =     0.00849737   -0.01624763    0.00924926
     atom   39 type  1   force =     0.02527253   -0.04528771   -0.08043105
     atom   40 type  1   force =    -0.02324589   -0.01868825   -0.00848866
     atom   41 type  1   force =     0.09020925    0.05588436   -0.00154618
     atom   42 type  1   force =     0.02205185    0.03345209   -0.00493077
     atom   43 type  1   force =    -0.02935789   -0.01407322    0.01788409
     atom   44 type  1   force =    -0.04869876    0.01804233   -0.00589711
     atom   45 type  1   force =     0.05080126    0.04030877    0.02228548
     atom   46 type  1   force =    -0.00520077    0.01363150   -0.01630729
     atom   47 type  1   force =     0.04769741    0.01802027   -0.06250055
     atom   48 type  1   force =    -0.01898256    0.00440865    0.02967568
     atom   49 type  1   force =     0.01448980    0.01281359   -0.03228526
     atom   50 type  1   force =    -0.00875801    0.00419201   -0.00925214
     atom   51 type  1   force =    -0.02920782    0.00550582   -0.01962388
     atom   52 type  1   force =    -0.00059734   -0.01642903   -0.00730217
     atom   53 type  1   force =     0.02001008    0.00392727   -0.01069884
     atom   54 type  1   force =     0.00108249    0.01527018   -0.01941741
     atom   55 type  1   force =    -0.04795685   -0.00670420    0.08525571
     atom   56 type  1   force =     0.04944265    0.03253128   -0.00852473
     atom   57 type  1   force =    -0.05145216   -0.00828601    0.03904975
     atom   58 type  1   force =     0.01494706   -0.02184845    0.00166595
     atom   59 type  1   force =     0.03034100    0.01335798    0.00706031
     atom   60 type  1   force =     0.02670746   -0.02351546    0.01840622
     atom   61 type  1   force =    -0.01123619    0.01400526   -0.00277049
     atom   62 type  1   force =     0.06933004    0.01700951    0.08935697
     atom   63 type  1   force =     0.01108009   -0.04943729   -0.07341554
     atom   64 type  1   force =     0.00067074    0.01377866   -0.00802733

     Total force =     0.446242     Total SCF correction =     0.001489


     Computing stress (Cartesian axis) and pressure

          total   stress  (Ry/bohr**3)                   (kbar)     P=      -25.93
  -0.00018969  -0.00002781   0.00000729          -27.90       -4.09        1.07
  -0.00002781  -0.00016721   0.00003717           -4.09      -24.60        5.47
   0.00000729   0.00003717  -0.00017184            1.07        5.47      -25.28

 
     init_run     :      0.62s CPU      4.10s WALL (       1 calls)
     electrons    :      2.19s CPU      2.34s WALL (       1 calls)
     forces       :      0.03s CPU      0.03s WALL (       1 calls)
     stress       :      0.15s CPU      0.15s WALL (       1 calls)

     Called by init_run:
     wfcinit      :      0.44s CPU      3.76s WALL (       1 calls)
                                        3.76s GPU  (       1 calls)
     potinit      :      0.03s CPU      0.11s WALL (       1 calls)
     hinit0       :      0.13s CPU      0.16s WALL (       1 calls)

     Called by electrons:
     c_bands      :      1.45s CPU      1.52s WALL (      21 calls)
     sum_band     :      0.39s CPU      0.44s WALL (      21 calls)
     v_of_rho     :      0.14s CPU      0.23s WALL (      21 calls)
     mix_rho      :      0.17s CPU      0.19s WALL (      21 calls)

     Called by c_bands:
     init_us_2    :      0.05s CPU      0.06s WALL (      43 calls)
     init_us_2:gp :      0.05s CPU      0.06s WALL (      43 calls)
     regterg      :      1.29s CPU      1.35s WALL (      21 calls)

     Called by *egterg:
     rdiaghg      :      0.43s CPU      1.10s WALL (      94 calls)
                                        1.08s GPU  (      94 calls)
     h_psi        :      1.10s CPU      3.80s WALL (      96 calls)
                                        3.80s GPU  (      96 calls)
     g_psi        :      0.00s CPU      0.00s WALL (      74 calls)
                                        0.00s GPU  (      74 calls)

     Called by h_psi:
     h_psi:calbec :      0.40s CPU      3.03s WALL (      96 calls)
                                        3.03s GPU  (      96 calls)
     vloc_psi     :      0.64s CPU      0.71s WALL (      96 calls)
                                        0.71s GPU  (      96 calls)
     add_vuspsi   :      0.03s CPU      0.05s WALL (      96 calls)
                                        0.05s GPU  (      96 calls)

     General routines
     calbec       :      0.41s CPU      3.03s WALL (     101 calls)
     fft          :      0.27s CPU      0.39s WALL (     175 calls)
                                        0.11s GPU  (     111 calls)
     ffts         :      0.04s CPU      0.05s WALL (      21 calls)
     fftw         :      0.71s CPU      0.91s WALL (    2213 calls)
                                        0.82s GPU  (    2213 calls)
 
     Parallel routines
 
     PWSCF        :      3.03s CPU      6.70s WALL

 
   This run was terminated on:  10: 6:16  11May2023            

=------------------------------------------------------------------------------=
   JOB DONE.
=------------------------------------------------------------------------------=
