An instance of this daemon is already running

     Program PWSCF v.7.1 starts on 11May2023 at 10: 9: 7 

     This program is part of the open-source Quantum ESPRESSO suite
     for quantum simulation of materials; please cite
         "P. Giannozzi et al., J. Phys.:Condens. Matter 21 395502 (2009);
         "P. Giannozzi et al., J. Phys.:Condens. Matter 29 465901 (2017);
         "P. Giannozzi et al., J. Chem. Phys. 152 154105 (2020);
          URL http://www.quantum-espresso.org", 
     in publications or presentations arising from this work. More details at
     http://www.quantum-espresso.org/quote

     Parallel version (MPI & OpenMP), running on       4 processor cores
     Number of MPI processes:                 4
     Threads/MPI process:                     1

     MPI processes distributed on     1 nodes
     259153 MiB available memory on the printing compute node when the environment starts
 
     Reading input from pw-si-66.in
Warning: card &CELL ignored
Warning: card / ignored

     Current dimensions of program PWSCF are:
     Max number of different atomic species (ntypx) = 10
     Max number of k-points (npk) =  40000
     Max angular momentum in pseudopotentials (lmaxx) =  4

     IMPORTANT: XC functional enforced from input :
     Exchange-correlation= PBE
                           (   1   4   3   4   0   0   0)
     Any further DFT definition will be discarded
     Please, verify this is what you really want


     gamma-point specific algorithms are used
 
     K-points division:     npool     =       2
     R & G space division:  proc/nbgrp/npool/nimage =       2
     Subspace diagonalization in iterative solution of the eigenvalue problem:
     a serial algorithm will be used

     Message from routine divide_et_impera:
     suboptimal parallelization: some nodes have no k-points
 
     Parallelization info
     --------------------
     sticks:   dense  smooth     PW     G-vecs:    dense   smooth      PW
     Min        2082    2082    549               100854   100854   13684
     Max        2083    2083    552               100855   100855   13685
     Sum        4165    4165   1101               201709   201709   27369
 
     Using Slab Decomposition
 


     bravais-lattice index     =            0
     lattice parameter (alat)  =      20.8667  a.u.
     unit-cell volume          =    9085.7824 (a.u.)^3
     number of atoms/cell      =           64
     number of atomic types    =            1
     number of electrons       =       256.00
     number of Kohn-Sham states=          154
     kinetic-energy cutoff     =      30.0000  Ry
     charge density cutoff     =     120.0000  Ry
     scf convergence threshold =      1.0E-06
     mixing beta               =       0.5000
     number of iterations used =            8  plain     mixing
     Exchange-correlation= PBE
                           (   1   4   3   4   0   0   0)

     GPU acceleration is ACTIVE.
     GPU-aware MPI enabled

     Message from routine print_cuda_info:
     High GPU oversubscription detected. Are you sure this is what you want?

     celldm(1)=  20.866716  celldm(2)=   0.000000  celldm(3)=   0.000000
     celldm(4)=   0.000000  celldm(5)=   0.000000  celldm(6)=   0.000000

     crystal axes: (cart. coord. in units of alat)
               a(1) = (   1.000000   0.000000   0.000000 )  
               a(2) = (   0.000000   1.000000   0.000000 )  
               a(3) = (   0.000000   0.000000   1.000000 )  

     reciprocal axes: (cart. coord. in units 2 pi/alat)
               b(1) = (  1.000000  0.000000  0.000000 )  
               b(2) = (  0.000000  1.000000  0.000000 )  
               b(3) = (  0.000000  0.000000  1.000000 )  


     PseudoPot. # 1 for Si read from file:
     /home/ppiaggi/pseudos/Si_ONCV_PBE_sr.upf
     MD5 check sum: 8553c464762ac42b85b1eed164b4d029
     Pseudo is Norm-conserving, Zval =  4.0
     Generated using ONCVPSP code by D. R. Hamann
     Using radial grid of 1510 points,  4 beta functions with: 
                l(1) =   0
                l(2) =   0
                l(3) =   1
                l(4) =   1

     atomic species   valence    mass     pseudopotential
        Si             4.00    28.08500     Si( 1.00)

     No symmetry found



   Cartesian axes

     site n.     atom                  positions (alat units)
         1           Si  tau(   1) = (   0.6399960   0.8528830   0.6735820  )
         2           Si  tau(   2) = (   0.6715560   0.1433560   0.4688050  )
         3           Si  tau(   3) = (   0.9678270   0.8902980   0.4195570  )
         4           Si  tau(   4) = (   0.7350880   0.5668940   0.3203910  )
         5           Si  tau(   5) = (   0.2511060   0.2210900   0.3462360  )
         6           Si  tau(   6) = (   0.3325690   0.6831860   0.0161738  )
         7           Si  tau(   7) = (   0.7260870   0.8230950   0.4967980  )
         8           Si  tau(   8) = (   0.2672540   0.1085900   0.7918200  )
         9           Si  tau(   9) = (   0.6168760   0.0162327   0.8833120  )
        10           Si  tau(  10) = (   0.1891840   0.9559620   0.7192680  )
        11           Si  tau(  11) = (   0.8652130   0.8083830   0.6710460  )
        12           Si  tau(  12) = (   0.9566100   0.7920080   0.0911672  )
        13           Si  tau(  13) = (   0.6921750   0.3416900   0.1780370  )
        14           Si  tau(  14) = (   0.8851300   0.1274140   0.6424770  )
        15           Si  tau(  15) = (   0.7816220   0.2766900   0.7614450  )
        16           Si  tau(  16) = (   0.3691740   0.9546880   0.6036320  )
        17           Si  tau(  17) = (   0.6613630   0.0238580   0.2256440  )
        18           Si  tau(  18) = (   0.7663800   0.4792590   0.0075372  )
        19           Si  tau(  19) = (   0.6551940   0.5626590   0.7612530  )
        20           Si  tau(  20) = (   0.4287920   0.2144060   0.9558040  )
        21           Si  tau(  21) = (   0.4525930   0.1293830   0.5346980  )
        22           Si  tau(  22) = (   0.9967440   0.8652820   0.8542700  )
        23           Si  tau(  23) = (   0.3654180   0.8262710   0.3517440  )
        24           Si  tau(  24) = (   0.3403470   0.3060130   0.7457170  )
        25           Si  tau(  25) = (   0.3415490   0.5584300   0.3403770  )
        26           Si  tau(  26) = (   0.9567130   0.4803290   0.3125260  )
        27           Si  tau(  27) = (   0.9407790   0.0422787   0.9835010  )
        28           Si  tau(  28) = (   0.8930330   0.0096484   0.2448610  )
        29           Si  tau(  29) = (   0.5547370   0.8897110   0.0704464  )
        30           Si  tau(  30) = (   0.6753170   0.1037250   0.6918070  )
        31           Si  tau(  31) = (   0.2307890   0.5472900   0.8259040  )
        32           Si  tau(  32) = (   0.1379190   0.4063640   0.4179660  )
        33           Si  tau(  33) = (   0.4325910   0.7812940   0.6864750  )
        34           Si  tau(  34) = (   0.6748080   0.2354410   0.9881450  )
        35           Si  tau(  35) = (   0.9764600   0.6212180   0.9328870  )
        36           Si  tau(  36) = (   0.5563490   0.3426500   0.8405510  )
        37           Si  tau(  37) = (   0.3763150   0.9957590   0.9742710  )
        38           Si  tau(  38) = (   0.7751190   0.8807420   0.9352540  )
        39           Si  tau(  39) = (   0.3602200   0.4702260   0.5695520  )
        40           Si  tau(  40) = (   0.9928030   0.1554090   0.4466290  )
        41           Si  tau(  41) = (   0.1309600   0.9855260   0.5062620  )
        42           Si  tau(  42) = (   0.9391170   0.3613780   0.9035850  )
        43           Si  tau(  43) = (   0.1022790   0.0558472   0.1650580  )
        44           Si  tau(  44) = (   0.0464598   0.5903410   0.1362780  )
        45           Si  tau(  45) = (   0.2351770   0.7282260   0.2158290  )
        46           Si  tau(  46) = (   0.2158130   0.7655610   0.5698140  )
        47           Si  tau(  47) = (   0.5260920   0.5866780   0.0275974  )
        48           Si  tau(  48) = (   0.1470960   0.3857390   0.6395040  )
        49           Si  tau(  49) = (   0.8604730   0.1882870   0.0878014  )
        50           Si  tau(  50) = (   0.5979180   0.8121300   0.3173150  )
        51           Si  tau(  51) = (   0.1248180   0.7304000   0.7670510  )
        52           Si  tau(  52) = (   0.0516628   0.2619620   0.2571400  )
        53           Si  tau(  53) = (   0.4887600   0.1909380   0.3202260  )
        54           Si  tau(  54) = (   0.2666610   0.9071710   0.1519380  )
        55           Si  tau(  55) = (   0.6168750   0.3234170   0.6309720  )
        56           Si  tau(  56) = (   0.0777490   0.2141000   0.7222280  )
        57           Si  tau(  57) = (   0.5193210   0.6211320   0.2407020  )
        58           Si  tau(  58) = (   0.8061530   0.5439340   0.5703370  )
        59           Si  tau(  59) = (   0.4269150   0.5217190   0.8144910  )
        60           Si  tau(  60) = (   0.9355200   0.7096500   0.4391710  )
        61           Si  tau(  61) = (   0.5133200   0.7777180   0.8915260  )
        62           Si  tau(  62) = (   0.0704848   0.5968130   0.6105170  )
        63           Si  tau(  63) = (   0.7509970   0.7184170   0.0542313  )
        64           Si  tau(  64) = (   0.4918060   0.3917240   0.1967560  )

     number of k points=     1  Fermi-Dirac smearing, width (Ry)=  0.0100
                       cart. coord. in units 2pi/alat
        k(    1) = (   0.0000000   0.0000000   0.0000000), wk =   2.0000000

     Dense  grid:   100855 G-vectors     FFT dimensions: (  75,  75,  75)

     Estimated max dynamical RAM per process >     161.97 MB

     Estimated total dynamical RAM >     623.25 MB

     Initial potential from superposition of free atoms

     starting charge     255.9608, renormalised to     256.0000
     Starting wfcs are  256 randomized atomic wfcs

     total cpu time spent up to now is        4.2 secs

     Self-consistent Calculation

     iteration #  1     ecut=    30.00 Ry     beta= 0.50
     Davidson diagonalization with overlap
     ethr =  1.00E-02,  avg # of iterations =  3.0

     Threshold (ethr) on eigenvalues was too large:
     Diagonalizing with lowered threshold

     Davidson diagonalization with overlap
     ethr =  6.14E-04,  avg # of iterations =  4.0

     total cpu time spent up to now is        4.4 secs

     total energy              =    -500.00494025 Ry
     estimated scf accuracy    <       2.05939862 Ry

     iteration #  2     ecut=    30.00 Ry     beta= 0.50
     Davidson diagonalization with overlap
     ethr =  8.04E-04,  avg # of iterations =  5.0

     total cpu time spent up to now is        4.5 secs

     total energy              =    -498.93704805 Ry
     estimated scf accuracy    <      15.99832970 Ry

     iteration #  3     ecut=    30.00 Ry     beta= 0.50
     Davidson diagonalization with overlap
     ethr =  8.04E-04,  avg # of iterations =  4.0

     total cpu time spent up to now is        4.6 secs

     total energy              =    -500.37155795 Ry
     estimated scf accuracy    <       2.79461803 Ry

     iteration #  4     ecut=    30.00 Ry     beta= 0.50
     Davidson diagonalization with overlap
     ethr =  8.04E-04,  avg # of iterations =  2.0

     total cpu time spent up to now is        4.7 secs

     total energy              =    -500.57704368 Ry
     estimated scf accuracy    <       0.67673071 Ry

     iteration #  5     ecut=    30.00 Ry     beta= 0.50
     Davidson diagonalization with overlap
     ethr =  2.64E-04,  avg # of iterations =  2.0

     total cpu time spent up to now is        4.8 secs

     total energy              =    -500.61103439 Ry
     estimated scf accuracy    <       0.68422042 Ry

     iteration #  6     ecut=    30.00 Ry     beta= 0.50
     Davidson diagonalization with overlap
     ethr =  2.64E-04,  avg # of iterations =  2.0

     total cpu time spent up to now is        4.9 secs

     total energy              =    -500.66996939 Ry
     estimated scf accuracy    <       0.07838295 Ry

     iteration #  7     ecut=    30.00 Ry     beta= 0.50
     Davidson diagonalization with overlap
     ethr =  3.06E-05,  avg # of iterations =  2.0

     total cpu time spent up to now is        5.0 secs

     total energy              =    -500.68202541 Ry
     estimated scf accuracy    <       0.01481941 Ry

     iteration #  8     ecut=    30.00 Ry     beta= 0.50
     Davidson diagonalization with overlap
     ethr =  5.79E-06,  avg # of iterations =  9.0

     total cpu time spent up to now is        5.2 secs

     total energy              =    -500.68277607 Ry
     estimated scf accuracy    <       0.02198508 Ry

     iteration #  9     ecut=    30.00 Ry     beta= 0.50
     Davidson diagonalization with overlap
     ethr =  5.79E-06,  avg # of iterations =  3.0

     total cpu time spent up to now is        5.3 secs

     total energy              =    -500.68457616 Ry
     estimated scf accuracy    <       0.00876376 Ry

     iteration # 10     ecut=    30.00 Ry     beta= 0.50
     Davidson diagonalization with overlap
     ethr =  3.42E-06,  avg # of iterations =  2.0

     total cpu time spent up to now is        5.4 secs

     total energy              =    -500.68529311 Ry
     estimated scf accuracy    <       0.00066100 Ry

     iteration # 11     ecut=    30.00 Ry     beta= 0.50
     Davidson diagonalization with overlap
     ethr =  2.58E-07,  avg # of iterations =  4.0

     total cpu time spent up to now is        5.5 secs

     total energy              =    -500.68530365 Ry
     estimated scf accuracy    <       0.00100464 Ry

     iteration # 12     ecut=    30.00 Ry     beta= 0.50
     Davidson diagonalization with overlap
     ethr =  2.58E-07,  avg # of iterations =  3.0

     total cpu time spent up to now is        5.6 secs

     total energy              =    -500.68538166 Ry
     estimated scf accuracy    <       0.00098471 Ry

     iteration # 13     ecut=    30.00 Ry     beta= 0.50
     Davidson diagonalization with overlap
     ethr =  2.58E-07,  avg # of iterations =  2.0

     total cpu time spent up to now is        5.7 secs

     total energy              =    -500.68544372 Ry
     estimated scf accuracy    <       0.00019435 Ry

     iteration # 14     ecut=    30.00 Ry     beta= 0.50
     Davidson diagonalization with overlap
     ethr =  7.59E-08,  avg # of iterations =  2.0

     total cpu time spent up to now is        5.8 secs

     total energy              =    -500.68546103 Ry
     estimated scf accuracy    <       0.00005503 Ry

     iteration # 15     ecut=    30.00 Ry     beta= 0.50
     Davidson diagonalization with overlap
     ethr =  2.15E-08,  avg # of iterations =  2.0

     total cpu time spent up to now is        5.9 secs

     total energy              =    -500.68546637 Ry
     estimated scf accuracy    <       0.00001055 Ry

     iteration # 16     ecut=    30.00 Ry     beta= 0.50
     Davidson diagonalization with overlap
     ethr =  4.12E-09,  avg # of iterations =  4.0

     total cpu time spent up to now is        6.0 secs

     total energy              =    -500.68546734 Ry
     estimated scf accuracy    <       0.00001929 Ry

     iteration # 17     ecut=    30.00 Ry     beta= 0.50
     Davidson diagonalization with overlap
     ethr =  4.12E-09,  avg # of iterations =  2.0

     total cpu time spent up to now is        6.1 secs

     total energy              =    -500.68546893 Ry
     estimated scf accuracy    <       0.00000317 Ry

     iteration # 18     ecut=    30.00 Ry     beta= 0.50
     Davidson diagonalization with overlap
     ethr =  1.24E-09,  avg # of iterations =  2.0

     total cpu time spent up to now is        6.2 secs

     total energy              =    -500.68546908 Ry
     estimated scf accuracy    <       0.00000162 Ry

     iteration # 19     ecut=    30.00 Ry     beta= 0.50
     Davidson diagonalization with overlap
     ethr =  6.34E-10,  avg # of iterations =  2.0

     total cpu time spent up to now is        6.3 secs

     End of self-consistent calculation

          k = 0.0000 0.0000 0.0000 ( 12635 PWs)   bands (ev):

    -6.5973  -6.0240  -5.8317  -5.5954  -5.4114  -5.3519  -5.2241  -5.0026
    -4.9624  -4.6810  -4.5659  -4.4063  -4.3193  -4.2801  -4.1105  -3.9018
    -3.8316  -3.5950  -3.4089  -3.3200  -2.9932  -2.8157  -2.7127  -2.6167
    -2.5416  -2.4401  -2.3423  -2.2472  -2.1798  -2.0332  -1.9433  -1.7729
    -1.6424  -1.5554  -1.4520  -1.2949  -1.2111  -1.0802  -1.0347  -0.9960
    -0.7958  -0.7057  -0.6687  -0.5575  -0.4773  -0.3675  -0.2597  -0.2176
    -0.0990  -0.0193   0.0642   0.1577   0.3862   0.5010   0.5764   0.6151
     0.7376   0.8823   0.8918   1.0831   1.1679   1.3812   1.4232   1.5313
     1.6097   1.7294   1.7865   1.8281   1.8875   1.9881   2.0595   2.1636
     2.2024   2.3186   2.3874   2.4443   2.5473   2.5944   2.8029   2.8101
     2.8572   2.9803   3.0075   3.0972   3.1539   3.2839   3.2876   3.3805
     3.4293   3.5432   3.6354   3.7278   3.7471   3.8276   3.9032   3.9605
     4.0232   4.0743   4.1170   4.1458   4.2326   4.2477   4.3796   4.4560
     4.4956   4.5708   4.5776   4.7227   4.7838   4.8915   4.9048   4.9879
     5.0357   5.0781   5.1389   5.1816   5.2739   5.3024   5.3289   5.4281
     5.5131   5.5212   5.6108   5.6679   5.6893   5.7290   5.7772   5.8709
     6.0195   6.0908   6.1405   6.1691   6.2088   6.2197   6.3111   6.3647
     6.4124   6.4557   6.5796   6.6097   6.6211   6.7077   6.7429   6.8309
     6.8460   6.9170   6.9898   7.0198   7.0734   7.1096   7.1700   7.2846
     7.3477   7.4377

     the Fermi energy is     5.9331 ev

!    total energy              =    -500.68546878 Ry
     estimated scf accuracy    <       0.00000062 Ry
     smearing contrib. (-TS)   =      -0.14258097 Ry
     internal energy E=F+TS    =    -500.54288782 Ry

     The total energy is F=E-TS. E is the sum of the following terms:
     one-electron contribution =      97.86640428 Ry
     hartree contribution      =      57.57323716 Ry
     xc contribution           =    -149.75100845 Ry
     ewald contribution        =    -506.23152081 Ry

     convergence has been achieved in  19 iterations

     Forces acting on atoms (cartesian axes, Ry/au):

     atom    1 type  1   force =    -0.01497286    0.01605770    0.05267664
     atom    2 type  1   force =    -0.01851130    0.00213428    0.01551273
     atom    3 type  1   force =    -0.01388797    0.16335922   -0.01999310
     atom    4 type  1   force =     0.02950640   -0.00968776    0.02098176
     atom    5 type  1   force =     0.02148863    0.01390625    0.01617551
     atom    6 type  1   force =    -0.01750520   -0.00309014   -0.00186360
     atom    7 type  1   force =     0.03895861   -0.01572027   -0.07478386
     atom    8 type  1   force =     0.06538341    0.11922366    0.06725888
     atom    9 type  1   force =    -0.02390382    0.02274466   -0.00460947
     atom   10 type  1   force =    -0.11227444   -0.13702706   -0.07616850
     atom   11 type  1   force =    -0.00523189   -0.01131464    0.00900192
     atom   12 type  1   force =    -0.01020047    0.02071669    0.00428457
     atom   13 type  1   force =     0.05746381    0.01627325   -0.01022621
     atom   14 type  1   force =     0.04188141   -0.00919714   -0.01673618
     atom   15 type  1   force =     0.03556190    0.04615494    0.04618630
     atom   16 type  1   force =    -0.00887773    0.00617649   -0.02561549
     atom   17 type  1   force =    -0.02067409   -0.02857243    0.01560673
     atom   18 type  1   force =    -0.01758016    0.01376184   -0.00874343
     atom   19 type  1   force =    -0.01225143   -0.00894891    0.00233809
     atom   20 type  1   force =    -0.01006329   -0.01362357    0.01324885
     atom   21 type  1   force =     0.02394373    0.06061809   -0.00394526
     atom   22 type  1   force =    -0.03498454    0.02389473    0.02287261
     atom   23 type  1   force =     0.02403050    0.01971998    0.04180121
     atom   24 type  1   force =     0.00628223    0.01649234   -0.01188621
     atom   25 type  1   force =    -0.01706985   -0.01459928    0.02766247
     atom   26 type  1   force =    -0.00478341    0.01985327   -0.01867393
     atom   27 type  1   force =     0.04774513   -0.09697163   -0.02834756
     atom   28 type  1   force =     0.01032271   -0.01646552    0.01174346
     atom   29 type  1   force =     0.02378323    0.01730730    0.04010457
     atom   30 type  1   force =    -0.02438030   -0.05310251   -0.02052191
     atom   31 type  1   force =    -0.07983070    0.02306095    0.01212187
     atom   32 type  1   force =     0.03815478   -0.00260454   -0.00000598
     atom   33 type  1   force =     0.02949108   -0.04794253    0.01430334
     atom   34 type  1   force =    -0.01956009   -0.00820059   -0.03669604
     atom   35 type  1   force =    -0.00280628   -0.02828615   -0.01193612
     atom   36 type  1   force =     0.00694097    0.03640687   -0.01872053
     atom   37 type  1   force =     0.00034027    0.00034770   -0.00019094
     atom   38 type  1   force =     0.01836533    0.03919928   -0.03508496
     atom   39 type  1   force =    -0.00858355   -0.00538419    0.01038948
     atom   40 type  1   force =     0.00544667   -0.00178879   -0.00468173
     atom   41 type  1   force =     0.02444739    0.02032376    0.01719171
     atom   42 type  1   force =    -0.02755807   -0.00058250   -0.00196723
     atom   43 type  1   force =    -0.03119669   -0.00213093   -0.00184094
     atom   44 type  1   force =     0.01946980    0.01849633    0.02749877
     atom   45 type  1   force =    -0.04905900   -0.14977180   -0.02728185
     atom   46 type  1   force =     0.03542248   -0.01289584   -0.01833082
     atom   47 type  1   force =     0.02335600   -0.01545228   -0.00465665
     atom   48 type  1   force =     0.03221024    0.07181901   -0.01766515
     atom   49 type  1   force =    -0.00641061    0.09884134    0.06492279
     atom   50 type  1   force =    -0.00665859    0.02196540   -0.02428238
     atom   51 type  1   force =     0.02548709   -0.03452032    0.00153974
     atom   52 type  1   force =    -0.04122767   -0.00594351   -0.00502328
     atom   53 type  1   force =    -0.00549070   -0.00520197   -0.01062536
     atom   54 type  1   force =     0.02494483    0.10638719   -0.03470080
     atom   55 type  1   force =    -0.01936426    0.01050530   -0.01955166
     atom   56 type  1   force =    -0.01880699   -0.04698789    0.03757629
     atom   57 type  1   force =     0.02070680    0.01373440   -0.00129965
     atom   58 type  1   force =    -0.01121936    0.03248349   -0.01237744
     atom   59 type  1   force =     0.09954253   -0.00144418   -0.02673621
     atom   60 type  1   force =    -0.04740352   -0.21751853    0.04568469
     atom   61 type  1   force =    -0.01499180   -0.02231128   -0.00856407
     atom   62 type  1   force =    -0.01909320   -0.00458467   -0.03203929
     atom   63 type  1   force =    -0.00554401   -0.05228064    0.03583416
     atom   64 type  1   force =    -0.04872013   -0.00781169    0.00185465

     Total force =     0.563823     Total SCF correction =     0.001484


     Computing stress (Cartesian axis) and pressure

          total   stress  (Ry/bohr**3)                   (kbar)     P=      -18.83
  -0.00014985   0.00005211  -0.00004719          -22.04        7.67       -6.94
   0.00005211   0.00001667   0.00001830            7.67        2.45        2.69
  -0.00004719   0.00001830  -0.00025073           -6.94        2.69      -36.88

 
     init_run     :      0.64s CPU      4.10s WALL (       1 calls)
     electrons    :      2.01s CPU      2.17s WALL (       1 calls)
     forces       :      0.03s CPU      0.03s WALL (       1 calls)
     stress       :      0.15s CPU      0.16s WALL (       1 calls)

     Called by init_run:
     wfcinit      :      0.45s CPU      3.76s WALL (       1 calls)
                                        3.76s GPU  (       1 calls)
     potinit      :      0.03s CPU      0.11s WALL (       1 calls)
     hinit0       :      0.14s CPU      0.16s WALL (       1 calls)

     Called by electrons:
     c_bands      :      1.31s CPU      1.38s WALL (      20 calls)
     sum_band     :      0.37s CPU      0.43s WALL (      20 calls)
     v_of_rho     :      0.14s CPU      0.22s WALL (      20 calls)
     mix_rho      :      0.16s CPU      0.18s WALL (      20 calls)

     Called by c_bands:
     init_us_2    :      0.05s CPU      0.05s WALL (      41 calls)
     init_us_2:gp :      0.05s CPU      0.05s WALL (      41 calls)
     regterg      :      1.16s CPU      1.23s WALL (      20 calls)

     Called by *egterg:
     rdiaghg      :      0.35s CPU      1.03s WALL (      80 calls)
                                        1.01s GPU  (      80 calls)
     h_psi        :      1.07s CPU      3.76s WALL (      82 calls)
                                        3.76s GPU  (      82 calls)
     g_psi        :      0.00s CPU      0.00s WALL (      61 calls)
                                        0.00s GPU  (      61 calls)

     Called by h_psi:
     h_psi:calbec :      0.42s CPU      3.03s WALL (      82 calls)
                                        3.03s GPU  (      82 calls)
     vloc_psi     :      0.61s CPU      0.68s WALL (      82 calls)
                                        0.68s GPU  (      82 calls)
     add_vuspsi   :      0.03s CPU      0.04s WALL (      82 calls)
                                        0.04s GPU  (      82 calls)

     General routines
     calbec       :      0.43s CPU      3.03s WALL (      87 calls)
     fft          :      0.27s CPU      0.38s WALL (     167 calls)
                                        0.11s GPU  (     106 calls)
     ffts         :      0.04s CPU      0.05s WALL (      20 calls)
     fftw         :      0.68s CPU      0.87s WALL (    2090 calls)
                                        0.79s GPU  (    2090 calls)
 
     Parallel routines
 
     PWSCF        :      2.87s CPU      6.54s WALL

 
   This run was terminated on:  10: 9:13  11May2023            

=------------------------------------------------------------------------------=
   JOB DONE.
=------------------------------------------------------------------------------=
