An instance of this daemon is already running
An instance of this daemon is already running

     Program PWSCF v.7.1 starts on 11May2023 at 10:13:43 

     This program is part of the open-source Quantum ESPRESSO suite
     for quantum simulation of materials; please cite
         "P. Giannozzi et al., J. Phys.:Condens. Matter 21 395502 (2009);
         "P. Giannozzi et al., J. Phys.:Condens. Matter 29 465901 (2017);
         "P. Giannozzi et al., J. Chem. Phys. 152 154105 (2020);
          URL http://www.quantum-espresso.org", 
     in publications or presentations arising from this work. More details at
     http://www.quantum-espresso.org/quote

     Parallel version (MPI & OpenMP), running on       4 processor cores
     Number of MPI processes:                 4
     Threads/MPI process:                     1

     MPI processes distributed on     1 nodes
     260180 MiB available memory on the printing compute node when the environment starts
 
     Reading input from pw-si-97.in
Warning: card &CELL ignored
Warning: card / ignored

     Current dimensions of program PWSCF are:
     Max number of different atomic species (ntypx) = 10
     Max number of k-points (npk) =  40000
     Max angular momentum in pseudopotentials (lmaxx) =  4

     IMPORTANT: XC functional enforced from input :
     Exchange-correlation= PBE
                           (   1   4   3   4   0   0   0)
     Any further DFT definition will be discarded
     Please, verify this is what you really want


     gamma-point specific algorithms are used
 
     K-points division:     npool     =       2
     R & G space division:  proc/nbgrp/npool/nimage =       2
     Subspace diagonalization in iterative solution of the eigenvalue problem:
     a serial algorithm will be used

     Message from routine divide_et_impera:
     suboptimal parallelization: some nodes have no k-points
 
     Parallelization info
     --------------------
     sticks:   dense  smooth     PW     G-vecs:    dense   smooth      PW
     Min        2007    2007    533                96009    96009   13000
     Max        2010    2010    536                96014    96014   13001
     Sum        4017    4017   1069               192023   192023   26001
 
     Using Slab Decomposition
 


     bravais-lattice index     =            0
     lattice parameter (alat)  =      20.5325  a.u.
     unit-cell volume          =    8656.1851 (a.u.)^3
     number of atoms/cell      =           64
     number of atomic types    =            1
     number of electrons       =       256.00
     number of Kohn-Sham states=          154
     kinetic-energy cutoff     =      30.0000  Ry
     charge density cutoff     =     120.0000  Ry
     scf convergence threshold =      1.0E-06
     mixing beta               =       0.5000
     number of iterations used =            8  plain     mixing
     Exchange-correlation= PBE
                           (   1   4   3   4   0   0   0)

     GPU acceleration is ACTIVE.
     GPU-aware MPI enabled

     Message from routine print_cuda_info:
     High GPU oversubscription detected. Are you sure this is what you want?

     celldm(1)=  20.532516  celldm(2)=   0.000000  celldm(3)=   0.000000
     celldm(4)=   0.000000  celldm(5)=   0.000000  celldm(6)=   0.000000

     crystal axes: (cart. coord. in units of alat)
               a(1) = (   1.000000   0.000000   0.000000 )  
               a(2) = (   0.000000   1.000000   0.000000 )  
               a(3) = (   0.000000   0.000000   1.000000 )  

     reciprocal axes: (cart. coord. in units 2 pi/alat)
               b(1) = (  1.000000  0.000000  0.000000 )  
               b(2) = (  0.000000  1.000000  0.000000 )  
               b(3) = (  0.000000  0.000000  1.000000 )  


     PseudoPot. # 1 for Si read from file:
     /home/ppiaggi/pseudos/Si_ONCV_PBE_sr.upf
     MD5 check sum: 8553c464762ac42b85b1eed164b4d029
     Pseudo is Norm-conserving, Zval =  4.0
     Generated using ONCVPSP code by D. R. Hamann
     Using radial grid of 1510 points,  4 beta functions with: 
                l(1) =   0
                l(2) =   0
                l(3) =   1
                l(4) =   1

     atomic species   valence    mass     pseudopotential
        Si             4.00    28.08500     Si( 1.00)

     No symmetry found



   Cartesian axes

     site n.     atom                  positions (alat units)
         1           Si  tau(   1) = (   0.6433850   0.7489630   0.5004860  )
         2           Si  tau(   2) = (   0.6016840   0.3223970   0.2613810  )
         3           Si  tau(   3) = (   0.9918700   0.9622410   0.3914710  )
         4           Si  tau(   4) = (   0.7460300   0.4942520   0.2519420  )
         5           Si  tau(   5) = (   0.3636250   0.2111160   0.4469810  )
         6           Si  tau(   6) = (   0.1777750   0.7046600   0.9997490  )
         7           Si  tau(   7) = (   0.7640810   0.0079444   0.5162240  )
         8           Si  tau(   8) = (   0.3188500   0.9869220   0.9623840  )
         9           Si  tau(   9) = (   0.6757360   0.8527620   0.7099460  )
        10           Si  tau(  10) = (   0.0669230   0.9088510   0.8534650  )
        11           Si  tau(  11) = (   0.9724700   0.0661905   0.6022670  )
        12           Si  tau(  12) = (   0.0185559   0.7939130   0.1120080  )
        13           Si  tau(  13) = (   0.6910130   0.4349240   0.0031017  )
        14           Si  tau(  14) = (   0.7674470   0.2576060   0.6104090  )
        15           Si  tau(  15) = (   0.9325330   0.2794610   0.7944050  )
        16           Si  tau(  16) = (   0.3042210   0.8459530   0.5860440  )
        17           Si  tau(  17) = (   0.5360120   0.0770697   0.2644480  )
        18           Si  tau(  18) = (   0.7203310   0.4731210   0.7550910  )
        19           Si  tau(  19) = (   0.8012750   0.6824110   0.6905920  )
        20           Si  tau(  20) = (   0.5256780   0.0659197   0.8468260  )
        21           Si  tau(  21) = (   0.3410980   0.0583351   0.6033130  )
        22           Si  tau(  22) = (   0.8098990   0.0048428   0.7586100  )
        23           Si  tau(  23) = (   0.3186320   0.8139950   0.3721250  )
        24           Si  tau(  24) = (   0.3367660   0.3682440   0.9171050  )
        25           Si  tau(  25) = (   0.3343630   0.4570660   0.2632550  )
        26           Si  tau(  26) = (   0.0794508   0.2905250   0.2074310  )
        27           Si  tau(  27) = (   0.9524210   0.1268900   0.9201970  )
        28           Si  tau(  28) = (   0.7720980   0.0181246   0.3004990  )
        29           Si  tau(  29) = (   0.6143790   0.7512970   0.1283530  )
        30           Si  tau(  30) = (   0.5429000   0.1667700   0.6377380  )
        31           Si  tau(  31) = (   0.0823816   0.5095170   0.1785270  )
        32           Si  tau(  32) = (   0.0536668   0.3545800   0.4030270  )
        33           Si  tau(  33) = (   0.4864320   0.7367290   0.6416340  )
        34           Si  tau(  34) = (   0.6361560   0.1971320   0.0379006  )
        35           Si  tau(  35) = (   0.9374580   0.7342110   0.8511370  )
        36           Si  tau(  36) = (   0.4583280   0.3083070   0.7643050  )
        37           Si  tau(  37) = (   0.4549400   0.8538320   0.8751210  )
        38           Si  tau(  38) = (   0.7960360   0.0340442   0.0619722  )
        39           Si  tau(  39) = (   0.4125670   0.4673240   0.4604840  )
        40           Si  tau(  40) = (   0.0461146   0.2565960   0.6237660  )
        41           Si  tau(  41) = (   0.1058540   0.8887030   0.6440590  )
        42           Si  tau(  42) = (   0.0084340   0.4057630   0.9683160  )
        43           Si  tau(  43) = (   0.1506530   0.1298980   0.0558920  )
        44           Si  tau(  44) = (   0.9208360   0.7556540   0.3042370  )
        45           Si  tau(  45) = (   0.2187840   0.6676370   0.2553540  )
        46           Si  tau(  46) = (   0.3708270   0.5475230   0.6580010  )
        47           Si  tau(  47) = (   0.3935650   0.6674470   0.9265060  )
        48           Si  tau(  48) = (   0.2695290   0.3574840   0.7077110  )
        49           Si  tau(  49) = (   0.8173420   0.2725080   0.1318400  )
        50           Si  tau(  50) = (   0.5280250   0.8815760   0.3324480  )
        51           Si  tau(  51) = (   0.0873974   0.5629520   0.8382350  )
        52           Si  tau(  52) = (   0.1459640   0.1076020   0.3210610  )
        53           Si  tau(  53) = (   0.3889640   0.2184820   0.1833580  )
        54           Si  tau(  54) = (   0.2323220   0.8959430   0.1654260  )
        55           Si  tau(  55) = (   0.5619830   0.3444210   0.4972170  )
        56           Si  tau(  56) = (   0.1831260   0.2486970   0.9016540  )
        57           Si  tau(  57) = (   0.5428250   0.6627700   0.3259900  )
        58           Si  tau(  58) = (   0.8634580   0.4706750   0.5778810  )
        59           Si  tau(  59) = (   0.6124670   0.6271340   0.8446930  )
        60           Si  tau(  60) = (   0.8125770   0.6250730   0.4330960  )
        61           Si  tau(  61) = (   0.7473620   0.7811430   0.9661460  )
        62           Si  tau(  62) = (   0.1101570   0.4721830   0.5946510  )
        63           Si  tau(  63) = (   0.8450450   0.6519650   0.1381220  )
        64           Si  tau(  64) = (   0.4291490   0.5306440   0.0802809  )

     number of k points=     1  Fermi-Dirac smearing, width (Ry)=  0.0100
                       cart. coord. in units 2pi/alat
        k(    1) = (   0.0000000   0.0000000   0.0000000), wk =   2.0000000

     Dense  grid:    96012 G-vectors     FFT dimensions: (  72,  72,  72)

     Estimated max dynamical RAM per process >     153.27 MB

     Estimated total dynamical RAM >     589.63 MB

     Initial potential from superposition of free atoms

     starting charge     255.9608, renormalised to     256.0000
     Starting wfcs are  256 randomized atomic wfcs

     total cpu time spent up to now is        4.5 secs

     Self-consistent Calculation

     iteration #  1     ecut=    30.00 Ry     beta= 0.50
     Davidson diagonalization with overlap
     ethr =  1.00E-02,  avg # of iterations =  3.0

     Threshold (ethr) on eigenvalues was too large:
     Diagonalizing with lowered threshold

     Davidson diagonalization with overlap
     ethr =  6.14E-04,  avg # of iterations =  4.0

     total cpu time spent up to now is        4.7 secs

     total energy              =    -500.22824239 Ry
     estimated scf accuracy    <       1.93830969 Ry

     iteration #  2     ecut=    30.00 Ry     beta= 0.50
     Davidson diagonalization with overlap
     ethr =  7.57E-04,  avg # of iterations =  4.0

     total cpu time spent up to now is        4.8 secs

     total energy              =    -499.20430572 Ry
     estimated scf accuracy    <      14.16777987 Ry

     iteration #  3     ecut=    30.00 Ry     beta= 0.50
     Davidson diagonalization with overlap
     ethr =  7.57E-04,  avg # of iterations =  4.0

     total cpu time spent up to now is        4.9 secs

     total energy              =    -500.46289339 Ry
     estimated scf accuracy    <       3.03773446 Ry

     iteration #  4     ecut=    30.00 Ry     beta= 0.50
     Davidson diagonalization with overlap
     ethr =  7.57E-04,  avg # of iterations =  2.0

     total cpu time spent up to now is        5.0 secs

     total energy              =    -500.65723989 Ry
     estimated scf accuracy    <       0.81984548 Ry

     iteration #  5     ecut=    30.00 Ry     beta= 0.50
     Davidson diagonalization with overlap
     ethr =  3.20E-04,  avg # of iterations =  2.0

     total cpu time spent up to now is        5.1 secs

     total energy              =    -500.68547927 Ry
     estimated scf accuracy    <       1.00769864 Ry

     iteration #  6     ecut=    30.00 Ry     beta= 0.50
     Davidson diagonalization with overlap
     ethr =  3.20E-04,  avg # of iterations =  1.0

     total cpu time spent up to now is        5.1 secs

     total energy              =    -500.76294762 Ry
     estimated scf accuracy    <       0.09159618 Ry

     iteration #  7     ecut=    30.00 Ry     beta= 0.50
     Davidson diagonalization with overlap
     ethr =  3.58E-05,  avg # of iterations =  3.0

     total cpu time spent up to now is        5.2 secs

     total energy              =    -500.77410137 Ry
     estimated scf accuracy    <       0.04132137 Ry

     iteration #  8     ecut=    30.00 Ry     beta= 0.50
     Davidson diagonalization with overlap
     ethr =  1.61E-05,  avg # of iterations = 11.0

     total cpu time spent up to now is        5.4 secs

     total energy              =    -500.77817826 Ry
     estimated scf accuracy    <       0.03381533 Ry

     iteration #  9     ecut=    30.00 Ry     beta= 0.50
     Davidson diagonalization with overlap
     ethr =  1.32E-05,  avg # of iterations =  2.0

     total cpu time spent up to now is        5.4 secs

     total energy              =    -500.78052968 Ry
     estimated scf accuracy    <       0.00516109 Ry

     iteration # 10     ecut=    30.00 Ry     beta= 0.50
     Davidson diagonalization with overlap
     ethr =  2.02E-06,  avg # of iterations = 16.0

     total cpu time spent up to now is        5.6 secs

     total energy              =    -500.78092633 Ry
     estimated scf accuracy    <       0.00571808 Ry

     iteration # 11     ecut=    30.00 Ry     beta= 0.50
     Davidson diagonalization with overlap
     ethr =  2.02E-06,  avg # of iterations =  2.0

     total cpu time spent up to now is        5.7 secs

     total energy              =    -500.78133401 Ry
     estimated scf accuracy    <       0.00089442 Ry

     iteration # 12     ecut=    30.00 Ry     beta= 0.50
     Davidson diagonalization with overlap
     ethr =  3.49E-07,  avg # of iterations =  3.0

     total cpu time spent up to now is        5.8 secs

     total energy              =    -500.78142787 Ry
     estimated scf accuracy    <       0.00068104 Ry

     iteration # 13     ecut=    30.00 Ry     beta= 0.50
     Davidson diagonalization with overlap
     ethr =  2.66E-07,  avg # of iterations =  2.0

     total cpu time spent up to now is        5.9 secs

     total energy              =    -500.78148353 Ry
     estimated scf accuracy    <       0.00047603 Ry

     iteration # 14     ecut=    30.00 Ry     beta= 0.50
     Davidson diagonalization with overlap
     ethr =  1.86E-07,  avg # of iterations =  1.0

     total cpu time spent up to now is        6.0 secs

     total energy              =    -500.78151455 Ry
     estimated scf accuracy    <       0.00005484 Ry

     iteration # 15     ecut=    30.00 Ry     beta= 0.50
     Davidson diagonalization with overlap
     ethr =  2.14E-08,  avg # of iterations =  3.0

     total cpu time spent up to now is        6.0 secs

     total energy              =    -500.78152158 Ry
     estimated scf accuracy    <       0.00002455 Ry

     iteration # 16     ecut=    30.00 Ry     beta= 0.50
     Davidson diagonalization with overlap
     ethr =  9.59E-09,  avg # of iterations =  3.0

     total cpu time spent up to now is        6.1 secs

     total energy              =    -500.78152363 Ry
     estimated scf accuracy    <       0.00002554 Ry

     iteration # 17     ecut=    30.00 Ry     beta= 0.50
     Davidson diagonalization with overlap
     ethr =  9.59E-09,  avg # of iterations =  2.0

     total cpu time spent up to now is        6.2 secs

     total energy              =    -500.78152547 Ry
     estimated scf accuracy    <       0.00000316 Ry

     iteration # 18     ecut=    30.00 Ry     beta= 0.50
     Davidson diagonalization with overlap
     ethr =  1.24E-09,  avg # of iterations =  4.0

     total cpu time spent up to now is        6.3 secs

     total energy              =    -500.78152570 Ry
     estimated scf accuracy    <       0.00000502 Ry

     iteration # 19     ecut=    30.00 Ry     beta= 0.50
     Davidson diagonalization with overlap
     ethr =  1.24E-09,  avg # of iterations =  2.0

     total cpu time spent up to now is        6.4 secs

     total energy              =    -500.78152594 Ry
     estimated scf accuracy    <       0.00000104 Ry

     iteration # 20     ecut=    30.00 Ry     beta= 0.50
     Davidson diagonalization with overlap
     ethr =  4.07E-10,  avg # of iterations =  3.0

     total cpu time spent up to now is        6.5 secs

     total energy              =    -500.78152603 Ry
     estimated scf accuracy    <       0.00000107 Ry

     iteration # 21     ecut=    30.00 Ry     beta= 0.50
     Davidson diagonalization with overlap
     ethr =  4.07E-10,  avg # of iterations =  2.0

     total cpu time spent up to now is        6.6 secs

     End of self-consistent calculation

          k = 0.0000 0.0000 0.0000 ( 11936 PWs)   bands (ev):

    -6.1494  -5.6285  -5.2547  -5.2189  -4.9413  -4.7569  -4.7099  -4.5928
    -4.4663  -4.1478  -3.9965  -3.9484  -3.8765  -3.8348  -3.7225  -3.5466
    -3.5351  -3.3828  -3.1681  -3.1248  -2.8569  -2.6384  -2.5290  -2.3786
    -2.2975  -2.0826  -1.9928  -1.7877  -1.7112  -1.6137  -1.4484  -1.2612
    -1.1800  -1.0683  -1.0148  -0.9421  -0.8136  -0.6059  -0.5644  -0.4924
    -0.4274  -0.2519  -0.2118  -0.0138   0.0193   0.0790   0.2240   0.2608
     0.4307   0.4973   0.5678   0.7328   0.7755   0.9019   0.9711   1.0583
     1.1231   1.2875   1.3557   1.4168   1.4859   1.7181   1.7564   1.8457
     1.8805   2.0093   2.1273   2.1716   2.2930   2.3282   2.3547   2.4244
     2.5346   2.7111   2.8182   2.8861   2.9874   3.0372   3.0809   3.1411
     3.2337   3.3097   3.4533   3.5619   3.6387   3.8004   3.8317   3.9072
     3.9615   4.0523   4.0981   4.1911   4.2402   4.3091   4.3401   4.4048
     4.5167   4.5812   4.6253   4.6990   4.7433   4.8658   4.9210   4.9430
     5.0025   5.1225   5.1863   5.2127   5.2604   5.3236   5.3670   5.4350
     5.4796   5.5213   5.5579   5.6729   5.7035   5.7760   5.8422   5.9295
     6.0241   6.0535   6.0741   6.1477   6.2115   6.2298   6.3020   6.4185
     6.4502   6.4779   6.5477   6.6205   6.6567   6.7349   6.7735   6.8225
     6.8412   6.9437   7.0291   7.1389   7.1558   7.1923   7.2067   7.2705
     7.3961   7.4381   7.5113   7.5829   7.6004   7.6587   7.7733   7.8140
     7.8625   7.9597

     the Fermi energy is     6.4073 ev

!    total energy              =    -500.78152587 Ry
     estimated scf accuracy    <       0.00000031 Ry
     smearing contrib. (-TS)   =      -0.15531925 Ry
     internal energy E=F+TS    =    -500.62620662 Ry

     The total energy is F=E-TS. E is the sum of the following terms:
     one-electron contribution =     142.03757662 Ry
     hartree contribution      =      40.20332135 Ry
     xc contribution           =    -150.70712794 Ry
     ewald contribution        =    -532.15997665 Ry

     convergence has been achieved in  21 iterations

     Forces acting on atoms (cartesian axes, Ry/au):

     atom    1 type  1   force =     0.02020197    0.04261530   -0.01913414
     atom    2 type  1   force =     0.00785931   -0.00847974    0.01955526
     atom    3 type  1   force =    -0.03282658   -0.00097642    0.01214002
     atom    4 type  1   force =    -0.02031048   -0.00885290    0.00932010
     atom    5 type  1   force =    -0.01143084   -0.00212076   -0.04777599
     atom    6 type  1   force =     0.02259529   -0.01993652    0.00128451
     atom    7 type  1   force =     0.00046162    0.01259709    0.02988952
     atom    8 type  1   force =    -0.04671262    0.02363323    0.03336466
     atom    9 type  1   force =    -0.04962149   -0.00200484    0.00494269
     atom   10 type  1   force =    -0.00170896    0.02329211    0.02341372
     atom   11 type  1   force =    -0.01429447   -0.06438843   -0.02856155
     atom   12 type  1   force =     0.01640644    0.02594116   -0.01621073
     atom   13 type  1   force =    -0.01830148   -0.00674344   -0.01235099
     atom   14 type  1   force =    -0.00272694   -0.00764244   -0.00331093
     atom   15 type  1   force =    -0.04897168    0.07204833   -0.02026090
     atom   16 type  1   force =     0.02562568    0.01909565   -0.02598520
     atom   17 type  1   force =     0.02247258    0.03646249   -0.01495826
     atom   18 type  1   force =     0.01917733   -0.04517206    0.00738956
     atom   19 type  1   force =     0.00811882   -0.03646396   -0.00710334
     atom   20 type  1   force =     0.01291567    0.00626334    0.01061727
     atom   21 type  1   force =     0.00891715    0.01679981    0.00167870
     atom   22 type  1   force =     0.04382506    0.04301871    0.00864489
     atom   23 type  1   force =     0.02211358    0.01220705   -0.01091823
     atom   24 type  1   force =     0.06576142    0.09665701    0.08721289
     atom   25 type  1   force =    -0.02299543   -0.00633449   -0.02437791
     atom   26 type  1   force =    -0.02099217   -0.01261124   -0.02451597
     atom   27 type  1   force =     0.01186658   -0.12418288    0.06567413
     atom   28 type  1   force =    -0.00015762    0.00351957   -0.03816315
     atom   29 type  1   force =    -0.03585864   -0.01141668    0.03860323
     atom   30 type  1   force =     0.03578080   -0.05944119   -0.00791289
     atom   31 type  1   force =    -0.01683394    0.00881812   -0.02310212
     atom   32 type  1   force =    -0.00645941   -0.00222325    0.05402642
     atom   33 type  1   force =    -0.01649001   -0.01782451    0.05597379
     atom   34 type  1   force =    -0.04708927   -0.01844315   -0.01914006
     atom   35 type  1   force =     0.00912133   -0.00227210   -0.00613055
     atom   36 type  1   force =     0.05623375    0.01272808    0.00102448
     atom   37 type  1   force =     0.04013316    0.03357170   -0.04396637
     atom   38 type  1   force =    -0.00218334    0.02628517    0.01578780
     atom   39 type  1   force =    -0.04462504    0.06209487   -0.01296994
     atom   40 type  1   force =     0.04681601    0.04513856   -0.04579266
     atom   41 type  1   force =    -0.02636426    0.01338660    0.00721181
     atom   42 type  1   force =     0.00176426   -0.00152141    0.00942058
     atom   43 type  1   force =    -0.00743403   -0.09137157    0.07581186
     atom   44 type  1   force =     0.03093651    0.05777346    0.05447432
     atom   45 type  1   force =    -0.00749630   -0.02844901   -0.03286457
     atom   46 type  1   force =    -0.00831892    0.00947830    0.01469192
     atom   47 type  1   force =    -0.01908460   -0.03891366   -0.01192457
     atom   48 type  1   force =    -0.08047795   -0.00017286   -0.01884003
     atom   49 type  1   force =     0.05185021    0.02109801    0.01742208
     atom   50 type  1   force =     0.01356931   -0.03099746    0.01244376
     atom   51 type  1   force =     0.00622190    0.01136023    0.00045769
     atom   52 type  1   force =     0.03361740    0.00177235   -0.00490219
     atom   53 type  1   force =    -0.01168117    0.00432355    0.02004961
     atom   54 type  1   force =    -0.01725701    0.01721466   -0.01182975
     atom   55 type  1   force =     0.08142517   -0.06983008   -0.02952439
     atom   56 type  1   force =    -0.07825455    0.02404099   -0.08302697
     atom   57 type  1   force =    -0.01308475   -0.04944588   -0.01637069
     atom   58 type  1   force =     0.02907202   -0.00298307   -0.00723801
     atom   59 type  1   force =    -0.02853229    0.04338184    0.01636508
     atom   60 type  1   force =    -0.02022274   -0.02682685    0.01429019
     atom   61 type  1   force =     0.01527299   -0.00054468   -0.03638427
     atom   62 type  1   force =    -0.00170840    0.01535936    0.02084539
     atom   63 type  1   force =    -0.01761331   -0.00957701   -0.04181743
     atom   64 type  1   force =     0.03798732   -0.03381216    0.00333682

     Total force =     0.459715     Total SCF correction =     0.001044


     Computing stress (Cartesian axis) and pressure

          total   stress  (Ry/bohr**3)                   (kbar)     P=       -4.59
  -0.00009611   0.00002657  -0.00004659          -14.14        3.91       -6.85
   0.00002657   0.00000137  -0.00005490            3.91        0.20       -8.08
  -0.00004659  -0.00005490   0.00000120           -6.85       -8.08        0.18

 
     init_run     :      0.98s CPU      4.44s WALL (       1 calls)
     electrons    :      1.89s CPU      2.06s WALL (       1 calls)
     forces       :      0.03s CPU      0.03s WALL (       1 calls)
     stress       :      0.14s CPU      0.15s WALL (       1 calls)

     Called by init_run:
     wfcinit      :      0.47s CPU      3.77s WALL (       1 calls)
                                        3.77s GPU  (       1 calls)
     potinit      :      0.04s CPU      0.13s WALL (       1 calls)
     hinit0       :      0.45s CPU      0.48s WALL (       1 calls)

     Called by electrons:
     c_bands      :      1.22s CPU      1.29s WALL (      22 calls)
     sum_band     :      0.34s CPU      0.40s WALL (      22 calls)
     v_of_rho     :      0.13s CPU      0.23s WALL (      22 calls)
     mix_rho      :      0.17s CPU      0.19s WALL (      22 calls)

     Called by c_bands:
     init_us_2    :      0.05s CPU      0.06s WALL (      45 calls)
     init_us_2:gp :      0.05s CPU      0.06s WALL (      45 calls)
     regterg      :      1.07s CPU      1.13s WALL (      22 calls)

     Called by *egterg:
     rdiaghg      :      0.45s CPU      1.13s WALL (     100 calls)
                                        1.11s GPU  (     100 calls)
     h_psi        :      0.91s CPU      3.57s WALL (     102 calls)
                                        3.57s GPU  (     102 calls)
     g_psi        :      0.00s CPU      0.00s WALL (      79 calls)
                                        0.00s GPU  (      79 calls)

     Called by h_psi:
     h_psi:calbec :      0.45s CPU      3.04s WALL (     102 calls)
                                        3.04s GPU  (     102 calls)
     vloc_psi     :      0.40s CPU      0.46s WALL (     102 calls)
                                        0.46s GPU  (     102 calls)
     add_vuspsi   :      0.04s CPU      0.06s WALL (     102 calls)
                                        0.06s GPU  (     102 calls)

     General routines
     calbec       :      0.46s CPU      3.04s WALL (     107 calls)
     fft          :      0.57s CPU      0.69s WALL (     183 calls)
                                        0.12s GPU  (     116 calls)
     ffts         :      0.03s CPU      0.04s WALL (      22 calls)
     fftw         :      0.49s CPU      0.63s WALL (    2320 calls)
                                        0.55s GPU  (    2320 calls)
 
     Parallel routines
 
     PWSCF        :      3.08s CPU      6.75s WALL

 
   This run was terminated on:  10:13:49  11May2023            

=------------------------------------------------------------------------------=
   JOB DONE.
=------------------------------------------------------------------------------=
