An instance of this daemon is already running
An instance of this daemon is already running

     Program PWSCF v.7.1 starts on 11May2023 at 10:12:50 

     This program is part of the open-source Quantum ESPRESSO suite
     for quantum simulation of materials; please cite
         "P. Giannozzi et al., J. Phys.:Condens. Matter 21 395502 (2009);
         "P. Giannozzi et al., J. Phys.:Condens. Matter 29 465901 (2017);
         "P. Giannozzi et al., J. Chem. Phys. 152 154105 (2020);
          URL http://www.quantum-espresso.org", 
     in publications or presentations arising from this work. More details at
     http://www.quantum-espresso.org/quote

     Parallel version (MPI & OpenMP), running on       4 processor cores
     Number of MPI processes:                 4
     Threads/MPI process:                     1

     MPI processes distributed on     1 nodes
     260173 MiB available memory on the printing compute node when the environment starts
 
     Reading input from pw-si-91.in
Warning: card &CELL ignored
Warning: card / ignored

     Current dimensions of program PWSCF are:
     Max number of different atomic species (ntypx) = 10
     Max number of k-points (npk) =  40000
     Max angular momentum in pseudopotentials (lmaxx) =  4

     IMPORTANT: XC functional enforced from input :
     Exchange-correlation= PBE
                           (   1   4   3   4   0   0   0)
     Any further DFT definition will be discarded
     Please, verify this is what you really want


     gamma-point specific algorithms are used
 
     K-points division:     npool     =       2
     R & G space division:  proc/nbgrp/npool/nimage =       2
     Subspace diagonalization in iterative solution of the eigenvalue problem:
     a serial algorithm will be used

     Message from routine divide_et_impera:
     suboptimal parallelization: some nodes have no k-points
 
     Parallelization info
     --------------------
     sticks:   dense  smooth     PW     G-vecs:    dense   smooth      PW
     Min        2019    2019    534                96753    96753   13070
     Max        2022    2022    535                96758    96758   13075
     Sum        4041    4041   1069               193511   193511   26145
 
     Using Slab Decomposition
 


     bravais-lattice index     =            0
     lattice parameter (alat)  =      20.5758  a.u.
     unit-cell volume          =    8711.0307 (a.u.)^3
     number of atoms/cell      =           64
     number of atomic types    =            1
     number of electrons       =       256.00
     number of Kohn-Sham states=          154
     kinetic-energy cutoff     =      30.0000  Ry
     charge density cutoff     =     120.0000  Ry
     scf convergence threshold =      1.0E-06
     mixing beta               =       0.5000
     number of iterations used =            8  plain     mixing
     Exchange-correlation= PBE
                           (   1   4   3   4   0   0   0)

     GPU acceleration is ACTIVE.
     GPU-aware MPI enabled

     Message from routine print_cuda_info:
     High GPU oversubscription detected. Are you sure this is what you want?

     celldm(1)=  20.575790  celldm(2)=   0.000000  celldm(3)=   0.000000
     celldm(4)=   0.000000  celldm(5)=   0.000000  celldm(6)=   0.000000

     crystal axes: (cart. coord. in units of alat)
               a(1) = (   1.000000   0.000000   0.000000 )  
               a(2) = (   0.000000   1.000000   0.000000 )  
               a(3) = (   0.000000   0.000000   1.000000 )  

     reciprocal axes: (cart. coord. in units 2 pi/alat)
               b(1) = (  1.000000  0.000000  0.000000 )  
               b(2) = (  0.000000  1.000000  0.000000 )  
               b(3) = (  0.000000  0.000000  1.000000 )  


     PseudoPot. # 1 for Si read from file:
     /home/ppiaggi/pseudos/Si_ONCV_PBE_sr.upf
     MD5 check sum: 8553c464762ac42b85b1eed164b4d029
     Pseudo is Norm-conserving, Zval =  4.0
     Generated using ONCVPSP code by D. R. Hamann
     Using radial grid of 1510 points,  4 beta functions with: 
                l(1) =   0
                l(2) =   0
                l(3) =   1
                l(4) =   1

     atomic species   valence    mass     pseudopotential
        Si             4.00    28.08500     Si( 1.00)

     No symmetry found



   Cartesian axes

     site n.     atom                  positions (alat units)
         1           Si  tau(   1) = (   0.6595620   0.7742350   0.5004900  )
         2           Si  tau(   2) = (   0.6210820   0.3339800   0.3008130  )
         3           Si  tau(   3) = (   0.0422477   0.9262760   0.4050440  )
         4           Si  tau(   4) = (   0.7224900   0.5120480   0.2895750  )
         5           Si  tau(   5) = (   0.3284760   0.1946670   0.3995860  )
         6           Si  tau(   6) = (   0.1866470   0.7777600   0.9855160  )
         7           Si  tau(   7) = (   0.7070060   0.9717990   0.5155620  )
         8           Si  tau(   8) = (   0.2592190   0.0306778   0.9566820  )
         9           Si  tau(   9) = (   0.6342000   0.8958560   0.7382910  )
        10           Si  tau(  10) = (   0.0722945   0.8798840   0.8168930  )
        11           Si  tau(  11) = (   0.9299070   0.0112395   0.5817950  )
        12           Si  tau(  12) = (   0.9799050   0.8293730   0.1259610  )
        13           Si  tau(  13) = (   0.6816550   0.4038630   0.0989595  )
        14           Si  tau(  14) = (   0.7791490   0.2420160   0.6077350  )
        15           Si  tau(  15) = (   0.9184220   0.3104720   0.7478580  )
        16           Si  tau(  16) = (   0.3337500   0.8773080   0.5570110  )
        17           Si  tau(  17) = (   0.5993770   0.1143550   0.2819640  )
        18           Si  tau(  18) = (   0.7201910   0.4774480   0.8076560  )
        19           Si  tau(  19) = (   0.8188000   0.6905960   0.6994920  )
        20           Si  tau(  20) = (   0.4922420   0.0929500   0.8425270  )
        21           Si  tau(  21) = (   0.3543220   0.0792538   0.6016480  )
        22           Si  tau(  22) = (   0.8678930   0.9714190   0.8101360  )
        23           Si  tau(  23) = (   0.3266490   0.8462720   0.3504130  )
        24           Si  tau(  24) = (   0.3552590   0.4131630   0.9078750  )
        25           Si  tau(  25) = (   0.3840580   0.5346770   0.2869170  )
        26           Si  tau(  26) = (   0.0650895   0.2793480   0.1906140  )
        27           Si  tau(  27) = (   0.9604160   0.1148010   0.9633750  )
        28           Si  tau(  28) = (   0.7915510   0.0313215   0.2787940  )
        29           Si  tau(  29) = (   0.5557670   0.7452860   0.1131950  )
        30           Si  tau(  30) = (   0.5832740   0.1065230   0.6311040  )
        31           Si  tau(  31) = (   0.1691590   0.5127220   0.0762852  )
        32           Si  tau(  32) = (   0.0953208   0.3877460   0.3973910  )
        33           Si  tau(  33) = (   0.4553540   0.7414440   0.6766800  )
        34           Si  tau(  34) = (   0.6503140   0.1452580   0.0163662  )
        35           Si  tau(  35) = (   0.9270440   0.7240500   0.9106240  )
        36           Si  tau(  36) = (   0.5194120   0.3205760   0.7879260  )
        37           Si  tau(  37) = (   0.4571460   0.8774990   0.9231550  )
        38           Si  tau(  38) = (   0.7907590   0.9500840   0.0533500  )
        39           Si  tau(  39) = (   0.4195850   0.4417100   0.4873770  )
        40           Si  tau(  40) = (   0.0499788   0.2109690   0.5455930  )
        41           Si  tau(  41) = (   0.1035440   0.8764130   0.5832760  )
        42           Si  tau(  42) = (   0.0282437   0.4208050   0.9271880  )
        43           Si  tau(  43) = (   0.1201990   0.0862328   0.1358360  )
        44           Si  tau(  44) = (   0.9768160   0.7523500   0.3280890  )
        45           Si  tau(  45) = (   0.1915700   0.6767290   0.2261880  )
        46           Si  tau(  46) = (   0.3207820   0.5486510   0.6571700  )
        47           Si  tau(  47) = (   0.3813290   0.6536490   0.9685000  )
        48           Si  tau(  48) = (   0.1996510   0.3578540   0.7056300  )
        49           Si  tau(  49) = (   0.8659620   0.2709530   0.1309010  )
        50           Si  tau(  50) = (   0.5517220   0.8753280   0.2883740  )
        51           Si  tau(  51) = (   0.1139430   0.6156000   0.8307800  )
        52           Si  tau(  52) = (   0.1544420   0.1039040   0.3301060  )
        53           Si  tau(  53) = (   0.3906270   0.2458770   0.2132590  )
        54           Si  tau(  54) = (   0.2319330   0.8982790   0.1659920  )
        55           Si  tau(  55) = (   0.5645720   0.2942490   0.5068620  )
        56           Si  tau(  56) = (   0.1414960   0.2385880   0.8798610  )
        57           Si  tau(  57) = (   0.5521360   0.6189620   0.3090860  )
        58           Si  tau(  58) = (   0.8400320   0.4586090   0.5825190  )
        59           Si  tau(  59) = (   0.5687760   0.6508810   0.8219310  )
        60           Si  tau(  60) = (   0.8246740   0.6213380   0.4392260  )
        61           Si  tau(  61) = (   0.7098020   0.7836510   0.9389940  )
        62           Si  tau(  62) = (   0.0582386   0.5192790   0.5974270  )
        63           Si  tau(  63) = (   0.7874460   0.6377890   0.1019830  )
        64           Si  tau(  64) = (   0.4893180   0.4720210   0.0804934  )

     number of k points=     1  Fermi-Dirac smearing, width (Ry)=  0.0100
                       cart. coord. in units 2pi/alat
        k(    1) = (   0.0000000   0.0000000   0.0000000), wk =   2.0000000

     Dense  grid:    96756 G-vectors     FFT dimensions: (  72,  72,  72)

     Estimated max dynamical RAM per process >     154.17 MB

     Estimated total dynamical RAM >     593.04 MB

     Initial potential from superposition of free atoms

     starting charge     255.9608, renormalised to     256.0000
     Starting wfcs are  256 randomized atomic wfcs

     total cpu time spent up to now is        4.5 secs

     Self-consistent Calculation

     iteration #  1     ecut=    30.00 Ry     beta= 0.50
     Davidson diagonalization with overlap
     ethr =  1.00E-02,  avg # of iterations =  3.0

     Threshold (ethr) on eigenvalues was too large:
     Diagonalizing with lowered threshold

     Davidson diagonalization with overlap
     ethr =  6.05E-04,  avg # of iterations =  4.0

     total cpu time spent up to now is        4.7 secs

     total energy              =    -500.29330680 Ry
     estimated scf accuracy    <       1.94828370 Ry

     iteration #  2     ecut=    30.00 Ry     beta= 0.50
     Davidson diagonalization with overlap
     ethr =  7.61E-04,  avg # of iterations =  3.0

     total cpu time spent up to now is        4.8 secs

     total energy              =    -499.55910477 Ry
     estimated scf accuracy    <      10.36459749 Ry

     iteration #  3     ecut=    30.00 Ry     beta= 0.50
     Davidson diagonalization with overlap
     ethr =  7.61E-04,  avg # of iterations =  4.0

     total cpu time spent up to now is        4.9 secs

     total energy              =    -500.45096219 Ry
     estimated scf accuracy    <       4.55255371 Ry

     iteration #  4     ecut=    30.00 Ry     beta= 0.50
     Davidson diagonalization with overlap
     ethr =  7.61E-04,  avg # of iterations =  3.0

     total cpu time spent up to now is        5.0 secs

     total energy              =    -500.78849394 Ry
     estimated scf accuracy    <       0.62916922 Ry

     iteration #  5     ecut=    30.00 Ry     beta= 0.50
     Davidson diagonalization with overlap
     ethr =  2.46E-04,  avg # of iterations =  2.0

     total cpu time spent up to now is        5.1 secs

     total energy              =    -500.80502615 Ry
     estimated scf accuracy    <       0.76542174 Ry

     iteration #  6     ecut=    30.00 Ry     beta= 0.50
     Davidson diagonalization with overlap
     ethr =  2.46E-04,  avg # of iterations =  2.0

     total cpu time spent up to now is        5.1 secs

     total energy              =    -500.86033409 Ry
     estimated scf accuracy    <       0.24233563 Ry

     iteration #  7     ecut=    30.00 Ry     beta= 0.50
     Davidson diagonalization with overlap
     ethr =  9.47E-05,  avg # of iterations =  2.0

     total cpu time spent up to now is        5.2 secs

     total energy              =    -500.88034188 Ry
     estimated scf accuracy    <       0.04858153 Ry

     iteration #  8     ecut=    30.00 Ry     beta= 0.50
     Davidson diagonalization with overlap
     ethr =  1.90E-05,  avg # of iterations = 10.0

     total cpu time spent up to now is        5.4 secs

     total energy              =    -500.88539079 Ry
     estimated scf accuracy    <       0.04062398 Ry

     iteration #  9     ecut=    30.00 Ry     beta= 0.50
     Davidson diagonalization with overlap
     ethr =  1.59E-05,  avg # of iterations =  2.0

     total cpu time spent up to now is        5.4 secs

     total energy              =    -500.88827992 Ry
     estimated scf accuracy    <       0.00695995 Ry

     iteration # 10     ecut=    30.00 Ry     beta= 0.50
     Davidson diagonalization with overlap
     ethr =  2.72E-06,  avg # of iterations =  7.0

     total cpu time spent up to now is        5.5 secs

     total energy              =    -500.88896982 Ry
     estimated scf accuracy    <       0.00523581 Ry

     iteration # 11     ecut=    30.00 Ry     beta= 0.50
     Davidson diagonalization with overlap
     ethr =  2.05E-06,  avg # of iterations =  2.0

     total cpu time spent up to now is        5.6 secs

     total energy              =    -500.88940556 Ry
     estimated scf accuracy    <       0.00177407 Ry

     iteration # 12     ecut=    30.00 Ry     beta= 0.50
     Davidson diagonalization with overlap
     ethr =  6.93E-07,  avg # of iterations =  2.0

     total cpu time spent up to now is        5.7 secs

     total energy              =    -500.88954412 Ry
     estimated scf accuracy    <       0.00034818 Ry

     iteration # 13     ecut=    30.00 Ry     beta= 0.50
     Davidson diagonalization with overlap
     ethr =  1.36E-07,  avg # of iterations =  4.0

     total cpu time spent up to now is        5.8 secs

     total energy              =    -500.88958019 Ry
     estimated scf accuracy    <       0.00059769 Ry

     iteration # 14     ecut=    30.00 Ry     beta= 0.50
     Davidson diagonalization with overlap
     ethr =  1.36E-07,  avg # of iterations =  2.0

     total cpu time spent up to now is        5.9 secs

     total energy              =    -500.88961318 Ry
     estimated scf accuracy    <       0.00007474 Ry

     iteration # 15     ecut=    30.00 Ry     beta= 0.50
     Davidson diagonalization with overlap
     ethr =  2.92E-08,  avg # of iterations =  3.0

     total cpu time spent up to now is        6.0 secs

     total energy              =    -500.88961927 Ry
     estimated scf accuracy    <       0.00005555 Ry

     iteration # 16     ecut=    30.00 Ry     beta= 0.50
     Davidson diagonalization with overlap
     ethr =  2.17E-08,  avg # of iterations =  2.0

     total cpu time spent up to now is        6.1 secs

     total energy              =    -500.88962080 Ry
     estimated scf accuracy    <       0.00008432 Ry

     iteration # 17     ecut=    30.00 Ry     beta= 0.50
     Davidson diagonalization with overlap
     ethr =  2.17E-08,  avg # of iterations =  2.0

     total cpu time spent up to now is        6.1 secs

     total energy              =    -500.88962542 Ry
     estimated scf accuracy    <       0.00002695 Ry

     iteration # 18     ecut=    30.00 Ry     beta= 0.50
     Davidson diagonalization with overlap
     ethr =  1.05E-08,  avg # of iterations =  2.0

     total cpu time spent up to now is        6.2 secs

     total energy              =    -500.88962742 Ry
     estimated scf accuracy    <       0.00000559 Ry

     iteration # 19     ecut=    30.00 Ry     beta= 0.50
     Davidson diagonalization with overlap
     ethr =  2.18E-09,  avg # of iterations =  3.0

     total cpu time spent up to now is        6.3 secs

     total energy              =    -500.88962797 Ry
     estimated scf accuracy    <       0.00000431 Ry

     iteration # 20     ecut=    30.00 Ry     beta= 0.50
     Davidson diagonalization with overlap
     ethr =  1.68E-09,  avg # of iterations =  2.0

     total cpu time spent up to now is        6.4 secs

     total energy              =    -500.88962822 Ry
     estimated scf accuracy    <       0.00000102 Ry

     iteration # 21     ecut=    30.00 Ry     beta= 0.50
     Davidson diagonalization with overlap
     ethr =  4.00E-10,  avg # of iterations =  2.0

     total cpu time spent up to now is        6.5 secs

     End of self-consistent calculation

          k = 0.0000 0.0000 0.0000 ( 12056 PWs)   bands (ev):

    -6.1965  -5.6906  -5.4301  -5.1817  -4.9677  -4.8175  -4.7463  -4.4718
    -4.2975  -4.1087  -3.9906  -3.8890  -3.7677  -3.6687  -3.5858  -3.4891
    -3.3313  -3.1714  -3.1044  -3.0541  -2.9957  -2.7248  -2.5365  -2.2733
    -2.2173  -2.0463  -1.9426  -1.8468  -1.6787  -1.3583  -1.2578  -1.2153
    -1.0745  -1.0214  -0.9555  -0.8986  -0.7694  -0.7258  -0.5519  -0.5129
    -0.4402  -0.4354  -0.2972  -0.1466  -0.0999   0.0154   0.0349   0.1569
     0.2873   0.3335   0.5243   0.6419   0.7178   0.8024   0.9475   1.0157
     1.0730   1.2239   1.2743   1.3383   1.6349   1.6528   1.7405   1.7562
     1.8875   1.9389   2.1170   2.1801   2.2823   2.3533   2.4259   2.5828
     2.6681   2.7007   2.7130   2.7708   2.9347   2.9522   3.1130   3.1446
     3.2343   3.3472   3.3999   3.5301   3.5924   3.6883   3.7448   3.7956
     3.9016   3.9519   4.0837   4.1041   4.1536   4.1870   4.2914   4.3643
     4.4234   4.5152   4.5501   4.6524   4.7340   4.7921   4.8353   4.8815
     4.8972   4.9872   4.9911   5.0772   5.1330   5.2888   5.3285   5.3927
     5.4883   5.5563   5.5714   5.6742   5.7075   5.7780   5.8297   5.9341
     5.9695   6.0498   6.1092   6.1285   6.1765   6.1998   6.2565   6.3161
     6.3568   6.4831   6.5151   6.5526   6.6137   6.6974   6.8266   6.8458
     6.8867   6.9253   6.9974   7.0517   7.1417   7.1813   7.2310   7.2916
     7.3320   7.4330   7.4933   7.5395   7.5787   7.6133   7.6691   7.7675
     7.8484   7.8813

     the Fermi energy is     6.3688 ev

!    total energy              =    -500.88962813 Ry
     estimated scf accuracy    <       0.00000034 Ry
     smearing contrib. (-TS)   =      -0.15603957 Ry
     internal energy E=F+TS    =    -500.73358856 Ry

     The total energy is F=E-TS. E is the sum of the following terms:
     one-electron contribution =     136.74452797 Ry
     hartree contribution      =      42.38942122 Ry
     xc contribution           =    -150.29771484 Ry
     ewald contribution        =    -529.56982291 Ry

     convergence has been achieved in  21 iterations

     Forces acting on atoms (cartesian axes, Ry/au):

     atom    1 type  1   force =    -0.04063408   -0.07621352   -0.00714624
     atom    2 type  1   force =    -0.02871975   -0.06490351    0.01700543
     atom    3 type  1   force =    -0.01485036    0.09456599   -0.06468569
     atom    4 type  1   force =     0.07379892    0.01373548   -0.00671141
     atom    5 type  1   force =     0.00895563    0.01207998    0.09622253
     atom    6 type  1   force =    -0.00192500   -0.03310864   -0.00388027
     atom    7 type  1   force =     0.03396798    0.05524023   -0.03215933
     atom    8 type  1   force =     0.00834090    0.00363281   -0.01241870
     atom    9 type  1   force =     0.00698650   -0.00752914    0.01732196
     atom   10 type  1   force =     0.01656124   -0.00842098   -0.03437284
     atom   11 type  1   force =    -0.02478172    0.03456336    0.00741502
     atom   12 type  1   force =    -0.00723920    0.01121906   -0.04058968
     atom   13 type  1   force =     0.07662902   -0.02919813   -0.03473974
     atom   14 type  1   force =    -0.00885017   -0.02324585   -0.02831883
     atom   15 type  1   force =     0.03741760    0.01875728    0.02699668
     atom   16 type  1   force =    -0.04615635   -0.02720402    0.02214301
     atom   17 type  1   force =    -0.04076343    0.01063968   -0.02347926
     atom   18 type  1   force =    -0.02011335    0.00484262   -0.02246208
     atom   19 type  1   force =    -0.01307796   -0.00541541    0.01293252
     atom   20 type  1   force =     0.01419688    0.01811525   -0.00003695
     atom   21 type  1   force =     0.00970753    0.06130586    0.00147054
     atom   22 type  1   force =    -0.00257688    0.00547384    0.00505890
     atom   23 type  1   force =     0.03858110   -0.01581832   -0.04070606
     atom   24 type  1   force =    -0.02248544    0.02351541   -0.00412908
     atom   25 type  1   force =    -0.13503889   -0.06774735   -0.02670312
     atom   26 type  1   force =     0.03289050    0.07855535    0.05282215
     atom   27 type  1   force =    -0.01141659    0.01037802    0.01156056
     atom   28 type  1   force =     0.01383604   -0.00953229   -0.01130724
     atom   29 type  1   force =    -0.00531858   -0.01029433   -0.01491844
     atom   30 type  1   force =    -0.01410594    0.00408105    0.00593658
     atom   31 type  1   force =     0.01462505   -0.00224856   -0.01515176
     atom   32 type  1   force =     0.00911606   -0.04611268    0.00757120
     atom   33 type  1   force =     0.00183695    0.01524568   -0.06173813
     atom   34 type  1   force =    -0.00433489   -0.02169568    0.01940587
     atom   35 type  1   force =    -0.00255131    0.00126407   -0.00638551
     atom   36 type  1   force =     0.01338513   -0.01624943   -0.00862941
     atom   37 type  1   force =    -0.00670402    0.00419380    0.00711151
     atom   38 type  1   force =     0.01431663    0.02649596    0.01293827
     atom   39 type  1   force =    -0.04462196    0.01069372   -0.00563189
     atom   40 type  1   force =    -0.01090201    0.01700254    0.01027595
     atom   41 type  1   force =     0.08414057   -0.04481566    0.14433833
     atom   42 type  1   force =    -0.01262610    0.00972592   -0.00155681
     atom   43 type  1   force =    -0.01090112   -0.05132280   -0.12443668
     atom   44 type  1   force =     0.00836222   -0.07408638   -0.03924378
     atom   45 type  1   force =    -0.00470484   -0.00061633    0.02264279
     atom   46 type  1   force =    -0.01721353   -0.00621937    0.01877843
     atom   47 type  1   force =     0.01732425   -0.00829809    0.00473729
     atom   48 type  1   force =    -0.00849165   -0.00755398   -0.02057164
     atom   49 type  1   force =    -0.04661358   -0.03221656   -0.03398893
     atom   50 type  1   force =    -0.01115221   -0.00023479    0.02845149
     atom   51 type  1   force =    -0.00698052   -0.00271522   -0.00583787
     atom   52 type  1   force =    -0.03088054   -0.01336033    0.08706125
     atom   53 type  1   force =     0.05131816    0.00941628   -0.05404953
     atom   54 type  1   force =    -0.00967219   -0.00000044   -0.01586217
     atom   55 type  1   force =     0.02473559   -0.01217324    0.01045948
     atom   56 type  1   force =     0.01881249   -0.00800090    0.00449848
     atom   57 type  1   force =     0.08147765    0.13764624    0.00949913
     atom   58 type  1   force =     0.00149163    0.00851764    0.02859508
     atom   59 type  1   force =     0.03364616   -0.04515759    0.05261059
     atom   60 type  1   force =     0.00655282    0.03725383    0.02012331
     atom   61 type  1   force =    -0.01646791    0.00449457   -0.01483944
     atom   62 type  1   force =     0.02105841    0.00338818    0.03047230
     atom   63 type  1   force =    -0.02095276   -0.00164439   -0.00562053
     atom   64 type  1   force =    -0.07024479    0.02731422    0.02585245

     Total force =     0.500444     Total SCF correction =     0.001127


     Computing stress (Cartesian axis) and pressure

          total   stress  (Ry/bohr**3)                   (kbar)     P=      -16.93
  -0.00015709   0.00001225   0.00005596          -23.11        1.80        8.23
   0.00001225  -0.00004134   0.00004627            1.80       -6.08        6.81
   0.00005596   0.00004627  -0.00014683            8.23        6.81      -21.60

 
     init_run     :      0.96s CPU      4.43s WALL (       1 calls)
     electrons    :      1.81s CPU      1.97s WALL (       1 calls)
     forces       :      0.03s CPU      0.03s WALL (       1 calls)
     stress       :      0.14s CPU      0.15s WALL (       1 calls)

     Called by init_run:
     wfcinit      :      0.45s CPU      3.77s WALL (       1 calls)
                                        3.77s GPU  (       1 calls)
     potinit      :      0.03s CPU      0.12s WALL (       1 calls)
     hinit0       :      0.46s CPU      0.48s WALL (       1 calls)

     Called by electrons:
     c_bands      :      1.15s CPU      1.22s WALL (      22 calls)
     sum_band     :      0.34s CPU      0.40s WALL (      22 calls)
     v_of_rho     :      0.13s CPU      0.22s WALL (      22 calls)
     mix_rho      :      0.17s CPU      0.18s WALL (      22 calls)

     Called by c_bands:
     init_us_2    :      0.06s CPU      0.06s WALL (      45 calls)
     init_us_2:gp :      0.06s CPU      0.06s WALL (      45 calls)
     regterg      :      1.00s CPU      1.05s WALL (      22 calls)

     Called by *egterg:
     rdiaghg      :      0.38s CPU      1.06s WALL (      89 calls)
                                        1.04s GPU  (      89 calls)
     h_psi        :      0.89s CPU      3.56s WALL (      91 calls)
                                        3.56s GPU  (      91 calls)
     g_psi        :      0.00s CPU      0.00s WALL (      68 calls)
                                        0.00s GPU  (      68 calls)

     Called by h_psi:
     h_psi:calbec :      0.44s CPU      3.05s WALL (      91 calls)
                                        3.05s GPU  (      91 calls)
     vloc_psi     :      0.40s CPU      0.46s WALL (      91 calls)
                                        0.45s GPU  (      91 calls)
     add_vuspsi   :      0.03s CPU      0.05s WALL (      91 calls)
                                        0.05s GPU  (      91 calls)

     General routines
     calbec       :      0.44s CPU      3.05s WALL (      96 calls)
     fft          :      0.57s CPU      0.69s WALL (     183 calls)
                                        0.12s GPU  (     116 calls)
     ffts         :      0.03s CPU      0.04s WALL (      22 calls)
     fftw         :      0.49s CPU      0.62s WALL (    2284 calls)
                                        0.55s GPU  (    2284 calls)
 
     Parallel routines
 
     PWSCF        :      2.98s CPU      6.66s WALL

 
   This run was terminated on:  10:12:56  11May2023            

=------------------------------------------------------------------------------=
   JOB DONE.
=------------------------------------------------------------------------------=
