An instance of this daemon is already running

     Program PWSCF v.7.1 starts on 11May2023 at 10: 7:29 

     This program is part of the open-source Quantum ESPRESSO suite
     for quantum simulation of materials; please cite
         "P. Giannozzi et al., J. Phys.:Condens. Matter 21 395502 (2009);
         "P. Giannozzi et al., J. Phys.:Condens. Matter 29 465901 (2017);
         "P. Giannozzi et al., J. Chem. Phys. 152 154105 (2020);
          URL http://www.quantum-espresso.org", 
     in publications or presentations arising from this work. More details at
     http://www.quantum-espresso.org/quote

     Parallel version (MPI & OpenMP), running on       4 processor cores
     Number of MPI processes:                 4
     Threads/MPI process:                     1

     MPI processes distributed on     1 nodes
     259165 MiB available memory on the printing compute node when the environment starts
 
     Reading input from pw-si-55.in
Warning: card &CELL ignored
Warning: card / ignored

     Current dimensions of program PWSCF are:
     Max number of different atomic species (ntypx) = 10
     Max number of k-points (npk) =  40000
     Max angular momentum in pseudopotentials (lmaxx) =  4

     IMPORTANT: XC functional enforced from input :
     Exchange-correlation= PBE
                           (   1   4   3   4   0   0   0)
     Any further DFT definition will be discarded
     Please, verify this is what you really want


     gamma-point specific algorithms are used
 
     K-points division:     npool     =       2
     R & G space division:  proc/nbgrp/npool/nimage =       2
     Subspace diagonalization in iterative solution of the eigenvalue problem:
     a serial algorithm will be used

     Message from routine divide_et_impera:
     suboptimal parallelization: some nodes have no k-points
 
     Parallelization info
     --------------------
     sticks:   dense  smooth     PW     G-vecs:    dense   smooth      PW
     Min        2074    2074    546                99902    99902   13539
     Max        2075    2075    547                99903    99903   13542
     Sum        4149    4149   1093               199805   199805   27081
 
     Using Slab Decomposition
 


     bravais-lattice index     =            0
     lattice parameter (alat)  =      20.7927  a.u.
     unit-cell volume          =    8989.4492 (a.u.)^3
     number of atoms/cell      =           64
     number of atomic types    =            1
     number of electrons       =       256.00
     number of Kohn-Sham states=          154
     kinetic-energy cutoff     =      30.0000  Ry
     charge density cutoff     =     120.0000  Ry
     scf convergence threshold =      1.0E-06
     mixing beta               =       0.5000
     number of iterations used =            8  plain     mixing
     Exchange-correlation= PBE
                           (   1   4   3   4   0   0   0)

     GPU acceleration is ACTIVE.
     GPU-aware MPI enabled

     Message from routine print_cuda_info:
     High GPU oversubscription detected. Are you sure this is what you want?

     celldm(1)=  20.792707  celldm(2)=   0.000000  celldm(3)=   0.000000
     celldm(4)=   0.000000  celldm(5)=   0.000000  celldm(6)=   0.000000

     crystal axes: (cart. coord. in units of alat)
               a(1) = (   1.000000   0.000000   0.000000 )  
               a(2) = (   0.000000   1.000000   0.000000 )  
               a(3) = (   0.000000   0.000000   1.000000 )  

     reciprocal axes: (cart. coord. in units 2 pi/alat)
               b(1) = (  1.000000  0.000000  0.000000 )  
               b(2) = (  0.000000  1.000000  0.000000 )  
               b(3) = (  0.000000  0.000000  1.000000 )  


     PseudoPot. # 1 for Si read from file:
     /home/ppiaggi/pseudos/Si_ONCV_PBE_sr.upf
     MD5 check sum: 8553c464762ac42b85b1eed164b4d029
     Pseudo is Norm-conserving, Zval =  4.0
     Generated using ONCVPSP code by D. R. Hamann
     Using radial grid of 1510 points,  4 beta functions with: 
                l(1) =   0
                l(2) =   0
                l(3) =   1
                l(4) =   1

     atomic species   valence    mass     pseudopotential
        Si             4.00    28.08500     Si( 1.00)

     No symmetry found



   Cartesian axes

     site n.     atom                  positions (alat units)
         1           Si  tau(   1) = (   0.6131840   0.7411730   0.8140090  )
         2           Si  tau(   2) = (   0.6727050   0.1309040   0.4349930  )
         3           Si  tau(   3) = (   0.9294560   0.9508210   0.3923030  )
         4           Si  tau(   4) = (   0.7732060   0.5298660   0.3433960  )
         5           Si  tau(   5) = (   0.2961020   0.1626500   0.3183240  )
         6           Si  tau(   6) = (   0.3835650   0.5707110   0.0890352  )
         7           Si  tau(   7) = (   0.7052900   0.8458790   0.5057990  )
         8           Si  tau(   8) = (   0.3315700   0.2405300   0.8926400  )
         9           Si  tau(   9) = (   0.5755950   0.9443020   0.8281430  )
        10           Si  tau(  10) = (   0.1647200   0.9453390   0.6446110  )
        11           Si  tau(  11) = (   0.8960090   0.7029540   0.7498230  )
        12           Si  tau(  12) = (   0.9162610   0.8007000   0.1716080  )
        13           Si  tau(  13) = (   0.6804040   0.3682830   0.2339290  )
        14           Si  tau(  14) = (   0.8514880   0.1891650   0.5586940  )
        15           Si  tau(  15) = (   0.7672780   0.2505500   0.7892060  )
        16           Si  tau(  16) = (   0.3765580   0.9752460   0.5939310  )
        17           Si  tau(  17) = (   0.5918300   0.0068202   0.2744450  )
        18           Si  tau(  18) = (   0.7742340   0.5173400   0.1247130  )
        19           Si  tau(  19) = (   0.6065650   0.5467830   0.7317890  )
        20           Si  tau(  20) = (   0.4548050   0.2797650   0.0623896  )
        21           Si  tau(  21) = (   0.5209020   0.1711780   0.5788340  )
        22           Si  tau(  22) = (   0.0063324   0.9272470   0.7950650  )
        23           Si  tau(  23) = (   0.3425040   0.8211150   0.3082480  )
        24           Si  tau(  24) = (   0.3205160   0.2923540   0.6259000  )
        25           Si  tau(  25) = (   0.3402470   0.5532250   0.4290230  )
        26           Si  tau(  26) = (   0.0720141   0.4948760   0.3390070  )
        27           Si  tau(  27) = (   0.9713560   0.0196640   0.0474121  )
        28           Si  tau(  28) = (   0.7976080   0.9902510   0.2013810  )
        29           Si  tau(  29) = (   0.5834210   0.9782530   0.0545251  )
        30           Si  tau(  30) = (   0.6624870   0.0547688   0.6785700  )
        31           Si  tau(  31) = (   0.1858750   0.4514150   0.7829760  )
        32           Si  tau(  32) = (   0.2200910   0.3107540   0.4354150  )
        33           Si  tau(  33) = (   0.3653850   0.7693130   0.7096360  )
        34           Si  tau(  34) = (   0.6671020   0.2806970   0.0133918  )
        35           Si  tau(  35) = (   0.9409120   0.6055730   0.9108790  )
        36           Si  tau(  36) = (   0.5755200   0.3942580   0.8792710  )
        37           Si  tau(  37) = (   0.3780360   0.0363187   0.0227805  )
        38           Si  tau(  38) = (   0.7904500   0.9035540   0.8342180  )
        39           Si  tau(  39) = (   0.4989470   0.4693490   0.5402810  )
        40           Si  tau(  40) = (   0.9518460   0.1489510   0.3716010  )
        41           Si  tau(  41) = (   0.1900120   0.0330811   0.4518430  )
        42           Si  tau(  42) = (   0.9232200   0.4151610   0.9514090  )
        43           Si  tau(  43) = (   0.1604540   0.1140550   0.1287350  )
        44           Si  tau(  44) = (   0.0197443   0.5187600   0.1226710  )
        45           Si  tau(  45) = (   0.2029750   0.6058160   0.2531560  )
        46           Si  tau(  46) = (   0.2845210   0.7486880   0.5092720  )
        47           Si  tau(  47) = (   0.5943750   0.5678550   0.0429741  )
        48           Si  tau(  48) = (   0.1036480   0.3218670   0.6089450  )
        49           Si  tau(  49) = (   0.8302940   0.2146000   0.1356280  )
        50           Si  tau(  50) = (   0.5456600   0.7987210   0.3754750  )
        51           Si  tau(  51) = (   0.1592980   0.7004180   0.7158840  )
        52           Si  tau(  52) = (   0.9796860   0.3166840   0.2537580  )
        53           Si  tau(  53) = (   0.4720130   0.1990620   0.2493250  )
        54           Si  tau(  54) = (   0.2439420   0.9308630   0.1766460  )
        55           Si  tau(  55) = (   0.6665220   0.3740750   0.4688310  )
        56           Si  tau(  56) = (   0.1523660   0.1544990   0.7182320  )
        57           Si  tau(  57) = (   0.5819780   0.5995930   0.2694230  )
        58           Si  tau(  58) = (   0.7697070   0.5936280   0.5848950  )
        59           Si  tau(  59) = (   0.3720730   0.5648620   0.7212760  )
        60           Si  tau(  60) = (   0.9473090   0.7523190   0.4880730  )
        61           Si  tau(  61) = (   0.4381180   0.7723240   0.9338530  )
        62           Si  tau(  62) = (   0.1014560   0.6096080   0.5067340  )
        63           Si  tau(  63) = (   0.7579790   0.7540210   0.0120802  )
        64           Si  tau(  64) = (   0.3825000   0.4254660   0.2265800  )

     number of k points=     1  Fermi-Dirac smearing, width (Ry)=  0.0100
                       cart. coord. in units 2pi/alat
        k(    1) = (   0.0000000   0.0000000   0.0000000), wk =   2.0000000

     Dense  grid:    99903 G-vectors     FFT dimensions: (  75,  75,  75)

     Estimated max dynamical RAM per process >     160.46 MB

     Estimated total dynamical RAM >     617.44 MB

     Initial potential from superposition of free atoms

     starting charge     255.9608, renormalised to     256.0000
     Starting wfcs are  256 randomized atomic wfcs

     total cpu time spent up to now is        4.2 secs

     Self-consistent Calculation

     iteration #  1     ecut=    30.00 Ry     beta= 0.50
     Davidson diagonalization with overlap
     ethr =  1.00E-02,  avg # of iterations =  3.0

     Threshold (ethr) on eigenvalues was too large:
     Diagonalizing with lowered threshold

     Davidson diagonalization with overlap
     ethr =  6.59E-04,  avg # of iterations =  4.0

     total cpu time spent up to now is        4.4 secs

     total energy              =    -499.85964616 Ry
     estimated scf accuracy    <       2.22479142 Ry

     iteration #  2     ecut=    30.00 Ry     beta= 0.50
     Davidson diagonalization with overlap
     ethr =  8.69E-04,  avg # of iterations =  3.0

     total cpu time spent up to now is        4.6 secs

     total energy              =    -498.84031592 Ry
     estimated scf accuracy    <      15.41879959 Ry

     iteration #  3     ecut=    30.00 Ry     beta= 0.50
     Davidson diagonalization with overlap
     ethr =  8.69E-04,  avg # of iterations =  4.0

     total cpu time spent up to now is        4.7 secs

     total energy              =    -500.11913412 Ry
     estimated scf accuracy    <       4.39898447 Ry

     iteration #  4     ecut=    30.00 Ry     beta= 0.50
     Davidson diagonalization with overlap
     ethr =  8.69E-04,  avg # of iterations =  2.0

     total cpu time spent up to now is        4.8 secs

     total energy              =    -500.46967732 Ry
     estimated scf accuracy    <       0.80058885 Ry

     iteration #  5     ecut=    30.00 Ry     beta= 0.50
     Davidson diagonalization with overlap
     ethr =  3.13E-04,  avg # of iterations =  2.0

     total cpu time spent up to now is        4.9 secs

     total energy              =    -500.50303757 Ry
     estimated scf accuracy    <       0.66143390 Ry

     iteration #  6     ecut=    30.00 Ry     beta= 0.50
     Davidson diagonalization with overlap
     ethr =  2.58E-04,  avg # of iterations =  2.0

     total cpu time spent up to now is        5.0 secs

     total energy              =    -500.56077717 Ry
     estimated scf accuracy    <       0.13154152 Ry

     iteration #  7     ecut=    30.00 Ry     beta= 0.50
     Davidson diagonalization with overlap
     ethr =  5.14E-05,  avg # of iterations =  2.0

     total cpu time spent up to now is        5.1 secs

     total energy              =    -500.57246985 Ry
     estimated scf accuracy    <       0.06395381 Ry

     iteration #  8     ecut=    30.00 Ry     beta= 0.50
     Davidson diagonalization with overlap
     ethr =  2.50E-05,  avg # of iterations =  2.0

     total cpu time spent up to now is        5.2 secs

     total energy              =    -500.57839047 Ry
     estimated scf accuracy    <       0.03430963 Ry

     iteration #  9     ecut=    30.00 Ry     beta= 0.50
     Davidson diagonalization with overlap
     ethr =  1.34E-05,  avg # of iterations =  2.0

     total cpu time spent up to now is        5.3 secs

     total energy              =    -500.58085993 Ry
     estimated scf accuracy    <       0.00701788 Ry

     iteration # 10     ecut=    30.00 Ry     beta= 0.50
     Davidson diagonalization with overlap
     ethr =  2.74E-06,  avg # of iterations = 18.0

     total cpu time spent up to now is        5.5 secs

     total energy              =    -500.58143737 Ry
     estimated scf accuracy    <       0.00812404 Ry

     iteration # 11     ecut=    30.00 Ry     beta= 0.50
     Davidson diagonalization with overlap
     ethr =  2.74E-06,  avg # of iterations =  2.0

     total cpu time spent up to now is        5.6 secs

     total energy              =    -500.58204501 Ry
     estimated scf accuracy    <       0.00077982 Ry

     iteration # 12     ecut=    30.00 Ry     beta= 0.50
     Davidson diagonalization with overlap
     ethr =  3.05E-07,  avg # of iterations =  4.0

     total cpu time spent up to now is        5.7 secs

     total energy              =    -500.58211497 Ry
     estimated scf accuracy    <       0.00069392 Ry

     iteration # 13     ecut=    30.00 Ry     beta= 0.50
     Davidson diagonalization with overlap
     ethr =  2.71E-07,  avg # of iterations =  3.0

     total cpu time spent up to now is        5.8 secs

     total energy              =    -500.58216002 Ry
     estimated scf accuracy    <       0.00102203 Ry

     iteration # 14     ecut=    30.00 Ry     beta= 0.50
     Davidson diagonalization with overlap
     ethr =  2.71E-07,  avg # of iterations =  1.0

     total cpu time spent up to now is        5.9 secs

     total energy              =    -500.58221963 Ry
     estimated scf accuracy    <       0.00006318 Ry

     iteration # 15     ecut=    30.00 Ry     beta= 0.50
     Davidson diagonalization with overlap
     ethr =  2.47E-08,  avg # of iterations =  4.0

     total cpu time spent up to now is        6.0 secs

     total energy              =    -500.58222656 Ry
     estimated scf accuracy    <       0.00012773 Ry

     iteration # 16     ecut=    30.00 Ry     beta= 0.50
     Davidson diagonalization with overlap
     ethr =  2.47E-08,  avg # of iterations =  2.0

     total cpu time spent up to now is        6.1 secs

     total energy              =    -500.58223507 Ry
     estimated scf accuracy    <       0.00002462 Ry

     iteration # 17     ecut=    30.00 Ry     beta= 0.50
     Davidson diagonalization with overlap
     ethr =  9.62E-09,  avg # of iterations =  2.0

     total cpu time spent up to now is        6.2 secs

     total energy              =    -500.58223664 Ry
     estimated scf accuracy    <       0.00001162 Ry

     iteration # 18     ecut=    30.00 Ry     beta= 0.50
     Davidson diagonalization with overlap
     ethr =  4.54E-09,  avg # of iterations =  2.0

     total cpu time spent up to now is        6.3 secs

     total energy              =    -500.58223735 Ry
     estimated scf accuracy    <       0.00001132 Ry

     iteration # 19     ecut=    30.00 Ry     beta= 0.50
     Davidson diagonalization with overlap
     ethr =  4.42E-09,  avg # of iterations =  1.0

     total cpu time spent up to now is        6.4 secs

     total energy              =    -500.58223790 Ry
     estimated scf accuracy    <       0.00000262 Ry

     iteration # 20     ecut=    30.00 Ry     beta= 0.50
     Davidson diagonalization with overlap
     ethr =  1.02E-09,  avg # of iterations =  2.0

     total cpu time spent up to now is        6.5 secs

     End of self-consistent calculation

          k = 0.0000 0.0000 0.0000 ( 12443 PWs)   bands (ev):

    -6.7095  -6.1983  -5.8514  -5.6960  -5.4071  -5.3313  -5.2495  -5.0738
    -4.8666  -4.6063  -4.5609  -4.4671  -4.2907  -4.2271  -4.1406  -3.8368
    -3.8178  -3.7306  -3.5534  -3.2815  -3.2150  -2.9993  -2.8344  -2.7154
    -2.6508  -2.3823  -2.3788  -2.2957  -2.0805  -1.8964  -1.8535  -1.7143
    -1.5198  -1.4387  -1.3638  -1.2282  -1.1630  -1.1236  -1.0988  -0.9541
    -0.8666  -0.7358  -0.6500  -0.6046  -0.4692  -0.3484  -0.3252  -0.1625
    -0.0586   0.1025   0.1450   0.3550   0.3824   0.5815   0.5996   0.7534
     0.7871   0.8843   0.9184   1.0601   1.2523   1.3794   1.4883   1.5626
     1.6141   1.7273   1.7436   1.8245   1.8957   2.0395   2.1638   2.1979
     2.2348   2.3676   2.4478   2.5445   2.6244   2.7378   2.7669   2.8640
     2.9225   2.9866   3.1136   3.1428   3.2421   3.2610   3.3462   3.4229
     3.5219   3.5612   3.5973   3.6704   3.7653   3.8192   3.9874   4.0322
     4.0751   4.1161   4.2053   4.2889   4.3196   4.4145   4.5251   4.5283
     4.6341   4.6398   4.7205   4.7965   4.8125   4.8368   4.9399   5.0933
     5.1276   5.1535   5.2026   5.2601   5.3033   5.3873   5.4158   5.4989
     5.5656   5.6568   5.6921   5.7633   5.8223   5.8591   5.9570   5.9760
     6.0137   6.0817   6.1434   6.1857   6.2318   6.3163   6.3510   6.4073
     6.4151   6.4790   6.6019   6.6729   6.6909   6.8342   6.8746   6.8883
     7.0474   7.0939   7.1644   7.1942   7.2789   7.3337   7.3539   7.4021
     7.4282   7.5513

     the Fermi energy is     6.0011 ev

!    total energy              =    -500.58223754 Ry
     estimated scf accuracy    <       0.00000096 Ry
     smearing contrib. (-TS)   =      -0.16223201 Ry
     internal energy E=F+TS    =    -500.42000552 Ry

     The total energy is F=E-TS. E is the sum of the following terms:
     one-electron contribution =      90.22067470 Ry
     hartree contribution      =      62.17322833 Ry
     xc contribution           =    -150.45055869 Ry
     ewald contribution        =    -502.36334986 Ry

     convergence has been achieved in  20 iterations

     Forces acting on atoms (cartesian axes, Ry/au):

     atom    1 type  1   force =     0.03417648   -0.03026401    0.02285474
     atom    2 type  1   force =     0.01799106    0.01883695    0.01567132
     atom    3 type  1   force =    -0.00738611   -0.07675657   -0.00160961
     atom    4 type  1   force =     0.03807588    0.01562995    0.03787686
     atom    5 type  1   force =    -0.10768945   -0.04914263    0.00208634
     atom    6 type  1   force =    -0.01549602    0.06889698   -0.03240806
     atom    7 type  1   force =     0.03735254    0.00464114    0.03687054
     atom    8 type  1   force =    -0.02875430   -0.00754602   -0.02911763
     atom    9 type  1   force =    -0.04801158    0.02294058    0.04451285
     atom   10 type  1   force =    -0.00134969   -0.00693000   -0.00910032
     atom   11 type  1   force =    -0.01539170    0.08711665   -0.11462277
     atom   12 type  1   force =     0.00593511    0.02735472   -0.00711940
     atom   13 type  1   force =    -0.04936618   -0.07298458    0.02486965
     atom   14 type  1   force =    -0.02568548    0.00122324    0.01995646
     atom   15 type  1   force =    -0.01032447   -0.00532136    0.00023930
     atom   16 type  1   force =     0.00810515   -0.00082920   -0.00451594
     atom   17 type  1   force =    -0.01160405   -0.01997222    0.00185428
     atom   18 type  1   force =     0.09680267    0.03260162   -0.04242879
     atom   19 type  1   force =    -0.01392828   -0.03274706   -0.02904848
     atom   20 type  1   force =     0.00272396    0.01720287   -0.02112764
     atom   21 type  1   force =    -0.05401899    0.01732467    0.00166407
     atom   22 type  1   force =    -0.01763337   -0.00019152    0.02712066
     atom   23 type  1   force =     0.00331800   -0.04575524    0.04942199
     atom   24 type  1   force =     0.05579615    0.00390832    0.03338634
     atom   25 type  1   force =     0.00449292   -0.02062806   -0.00829528
     atom   26 type  1   force =    -0.08290810   -0.11722830    0.03476636
     atom   27 type  1   force =    -0.00054165   -0.01588806   -0.01726390
     atom   28 type  1   force =     0.01198335    0.02303472    0.01018679
     atom   29 type  1   force =     0.00484629   -0.02346901   -0.02746165
     atom   30 type  1   force =     0.06354790    0.01864843   -0.03156602
     atom   31 type  1   force =     0.02558853   -0.00553863   -0.01323775
     atom   32 type  1   force =    -0.01042040    0.07867989   -0.02493854
     atom   33 type  1   force =     0.00623849    0.06857428    0.03619164
     atom   34 type  1   force =     0.03367252   -0.04547339    0.03286205
     atom   35 type  1   force =     0.02155598    0.03005296    0.08908144
     atom   36 type  1   force =    -0.03694320    0.05260277   -0.05382985
     atom   37 type  1   force =    -0.02098382    0.01042639   -0.02016087
     atom   38 type  1   force =     0.01851685   -0.02449808    0.01403531
     atom   39 type  1   force =    -0.03997818   -0.00208737    0.04967717
     atom   40 type  1   force =     0.01959068    0.02174091    0.01545375
     atom   41 type  1   force =    -0.02331593   -0.01475198   -0.01448766
     atom   42 type  1   force =    -0.02528536   -0.10382409    0.02257181
     atom   43 type  1   force =    -0.01121871    0.04074085    0.01011272
     atom   44 type  1   force =    -0.02073976    0.00816836   -0.01280547
     atom   45 type  1   force =     0.09949389    0.09295514   -0.08727588
     atom   46 type  1   force =    -0.01839766    0.01106902   -0.02115330
     atom   47 type  1   force =     0.00394864    0.03036974   -0.04366330
     atom   48 type  1   force =    -0.04952780    0.04693439    0.01575207
     atom   49 type  1   force =     0.01643246   -0.03841981    0.00708526
     atom   50 type  1   force =    -0.01124878    0.01009689   -0.03822995
     atom   51 type  1   force =    -0.03372533   -0.00706448   -0.00475807
     atom   52 type  1   force =     0.02538174    0.01262861   -0.03497621
     atom   53 type  1   force =     0.11960172   -0.00732722    0.00066533
     atom   54 type  1   force =    -0.01354423    0.00422750   -0.03438828
     atom   55 type  1   force =     0.04160005   -0.04152222   -0.01903721
     atom   56 type  1   force =     0.03975331   -0.03571922    0.03447671
     atom   57 type  1   force =    -0.05499655    0.01122150   -0.01288494
     atom   58 type  1   force =     0.00696823    0.02769766   -0.01099430
     atom   59 type  1   force =     0.00058684   -0.08291998   -0.00439280
     atom   60 type  1   force =    -0.03745500    0.02053135    0.01713369
     atom   61 type  1   force =    -0.02551010    0.01767297    0.01433144
     atom   62 type  1   force =     0.03946019    0.02636727    0.05035601
     atom   63 type  1   force =     0.00092425   -0.01149589   -0.01225499
     atom   64 type  1   force =     0.01891838   -0.03582309    0.06602993

     Total force =     0.529575     Total SCF correction =     0.001880


     Computing stress (Cartesian axis) and pressure

          total   stress  (Ry/bohr**3)                   (kbar)     P=       -2.17
  -0.00000669  -0.00005681   0.00000070           -0.98       -8.36        0.10
  -0.00005681  -0.00003858  -0.00015246           -8.36       -5.68      -22.43
   0.00000070  -0.00015246   0.00000105            0.10      -22.43        0.15

 
     init_run     :      0.88s CPU      4.15s WALL (       1 calls)
     electrons    :      2.13s CPU      2.26s WALL (       1 calls)
     forces       :      0.03s CPU      0.03s WALL (       1 calls)
     stress       :      0.15s CPU      0.15s WALL (       1 calls)

     Called by init_run:
     wfcinit      :      0.69s CPU      3.81s WALL (       1 calls)
                                        3.81s GPU  (       1 calls)
     potinit      :      0.04s CPU      0.11s WALL (       1 calls)
     hinit0       :      0.13s CPU      0.16s WALL (       1 calls)

     Called by electrons:
     c_bands      :      1.38s CPU      1.44s WALL (      21 calls)
     sum_band     :      0.41s CPU      0.44s WALL (      21 calls)
     v_of_rho     :      0.15s CPU      0.23s WALL (      21 calls)
     mix_rho      :      0.17s CPU      0.19s WALL (      21 calls)

     Called by c_bands:
     init_us_2    :      0.05s CPU      0.06s WALL (      43 calls)
     init_us_2:gp :      0.05s CPU      0.06s WALL (      43 calls)
     regterg      :      1.22s CPU      1.28s WALL (      21 calls)

     Called by *egterg:
     rdiaghg      :      0.39s CPU      1.05s WALL (      87 calls)
                                        1.03s GPU  (      87 calls)
     h_psi        :      1.34s CPU      3.85s WALL (      89 calls)
                                        3.85s GPU  (      89 calls)
     g_psi        :      0.00s CPU      0.00s WALL (      67 calls)
                                        0.00s GPU  (      67 calls)

     Called by h_psi:
     h_psi:calbec :      0.66s CPU      3.09s WALL (      89 calls)
                                        3.08s GPU  (      89 calls)
     vloc_psi     :      0.63s CPU      0.71s WALL (      89 calls)
                                        0.70s GPU  (      89 calls)
     add_vuspsi   :      0.03s CPU      0.05s WALL (      89 calls)
                                        0.05s GPU  (      89 calls)

     General routines
     calbec       :      0.66s CPU      3.09s WALL (      94 calls)
     fft          :      0.28s CPU      0.38s WALL (     175 calls)
                                        0.11s GPU  (     111 calls)
     ffts         :      0.05s CPU      0.05s WALL (      21 calls)
     fftw         :      0.71s CPU      0.90s WALL (    2197 calls)
                                        0.81s GPU  (    2197 calls)
 
     Parallel routines
 
     PWSCF        :      3.23s CPU      6.67s WALL

 
   This run was terminated on:  10: 7:36  11May2023            

=------------------------------------------------------------------------------=
   JOB DONE.
=------------------------------------------------------------------------------=
