An instance of this daemon is already running

     Program PWSCF v.7.1 starts on 11May2023 at 10: 5:51 

     This program is part of the open-source Quantum ESPRESSO suite
     for quantum simulation of materials; please cite
         "P. Giannozzi et al., J. Phys.:Condens. Matter 21 395502 (2009);
         "P. Giannozzi et al., J. Phys.:Condens. Matter 29 465901 (2017);
         "P. Giannozzi et al., J. Chem. Phys. 152 154105 (2020);
          URL http://www.quantum-espresso.org", 
     in publications or presentations arising from this work. More details at
     http://www.quantum-espresso.org/quote

     Parallel version (MPI & OpenMP), running on       4 processor cores
     Number of MPI processes:                 4
     Threads/MPI process:                     1

     MPI processes distributed on     1 nodes
     259135 MiB available memory on the printing compute node when the environment starts
 
     Reading input from pw-si-44.in
Warning: card &CELL ignored
Warning: card / ignored

     Current dimensions of program PWSCF are:
     Max number of different atomic species (ntypx) = 10
     Max number of k-points (npk) =  40000
     Max angular momentum in pseudopotentials (lmaxx) =  4

     IMPORTANT: XC functional enforced from input :
     Exchange-correlation= PBE
                           (   1   4   3   4   0   0   0)
     Any further DFT definition will be discarded
     Please, verify this is what you really want


     gamma-point specific algorithms are used
 
     K-points division:     npool     =       2
     R & G space division:  proc/nbgrp/npool/nimage =       2
     Subspace diagonalization in iterative solution of the eigenvalue problem:
     a serial algorithm will be used

     Message from routine divide_et_impera:
     suboptimal parallelization: some nodes have no k-points
 
     Parallelization info
     --------------------
     sticks:   dense  smooth     PW     G-vecs:    dense   smooth      PW
     Min        2082    2082    549               100854   100854   13684
     Max        2083    2083    552               100855   100855   13685
     Sum        4165    4165   1101               201709   201709   27369
 
     Using Slab Decomposition
 


     bravais-lattice index     =            0
     lattice parameter (alat)  =      20.8643  a.u.
     unit-cell volume          =    9082.6844 (a.u.)^3
     number of atoms/cell      =           64
     number of atomic types    =            1
     number of electrons       =       256.00
     number of Kohn-Sham states=          154
     kinetic-energy cutoff     =      30.0000  Ry
     charge density cutoff     =     120.0000  Ry
     scf convergence threshold =      1.0E-06
     mixing beta               =       0.5000
     number of iterations used =            8  plain     mixing
     Exchange-correlation= PBE
                           (   1   4   3   4   0   0   0)

     GPU acceleration is ACTIVE.
     GPU-aware MPI enabled

     Message from routine print_cuda_info:
     High GPU oversubscription detected. Are you sure this is what you want?

     celldm(1)=  20.864344  celldm(2)=   0.000000  celldm(3)=   0.000000
     celldm(4)=   0.000000  celldm(5)=   0.000000  celldm(6)=   0.000000

     crystal axes: (cart. coord. in units of alat)
               a(1) = (   1.000000   0.000000   0.000000 )  
               a(2) = (   0.000000   1.000000   0.000000 )  
               a(3) = (   0.000000   0.000000   1.000000 )  

     reciprocal axes: (cart. coord. in units 2 pi/alat)
               b(1) = (  1.000000  0.000000  0.000000 )  
               b(2) = (  0.000000  1.000000  0.000000 )  
               b(3) = (  0.000000  0.000000  1.000000 )  


     PseudoPot. # 1 for Si read from file:
     /home/ppiaggi/pseudos/Si_ONCV_PBE_sr.upf
     MD5 check sum: 8553c464762ac42b85b1eed164b4d029
     Pseudo is Norm-conserving, Zval =  4.0
     Generated using ONCVPSP code by D. R. Hamann
     Using radial grid of 1510 points,  4 beta functions with: 
                l(1) =   0
                l(2) =   0
                l(3) =   1
                l(4) =   1

     atomic species   valence    mass     pseudopotential
        Si             4.00    28.08500     Si( 1.00)

     No symmetry found



   Cartesian axes

     site n.     atom                  positions (alat units)
         1           Si  tau(   1) = (   0.6276750   0.8068180   0.8045720  )
         2           Si  tau(   2) = (   0.7472450   0.0218302   0.3960630  )
         3           Si  tau(   3) = (   0.0053290   0.9092690   0.3307980  )
         4           Si  tau(   4) = (   0.9694470   0.6131090   0.3365650  )
         5           Si  tau(   5) = (   0.2802080   0.1261850   0.2507790  )
         6           Si  tau(   6) = (   0.4507290   0.6151860   0.0287627  )
         7           Si  tau(   7) = (   0.6735630   0.8501260   0.5671140  )
         8           Si  tau(   8) = (   0.3522170   0.2481790   0.9150680  )
         9           Si  tau(   9) = (   0.4646080   0.0044845   0.8206090  )
        10           Si  tau(  10) = (   0.1043530   0.8803310   0.6452610  )
        11           Si  tau(  11) = (   0.9866560   0.7495160   0.8091690  )
        12           Si  tau(  12) = (   0.8539430   0.7655730   0.2655070  )
        13           Si  tau(  13) = (   0.7047630   0.3113630   0.1727510  )
        14           Si  tau(  14) = (   0.8079830   0.3111110   0.6200480  )
        15           Si  tau(  15) = (   0.7209550   0.2346230   0.7997250  )
        16           Si  tau(  16) = (   0.3151580   0.9822780   0.5574760  )
        17           Si  tau(  17) = (   0.4909150   0.9767710   0.2145670  )
        18           Si  tau(  18) = (   0.8380860   0.5146420   0.1864660  )
        19           Si  tau(  19) = (   0.5696850   0.5633840   0.7365330  )
        20           Si  tau(  20) = (   0.3977150   0.3757040   0.0778138  )
        21           Si  tau(  21) = (   0.4957960   0.0895959   0.6598780  )
        22           Si  tau(  22) = (   0.0222196   0.0109324   0.8217370  )
        23           Si  tau(  23) = (   0.3386210   0.7892950   0.2781240  )
        24           Si  tau(  24) = (   0.3221300   0.2127590   0.6507850  )
        25           Si  tau(  25) = (   0.3576570   0.5033310   0.4406900  )
        26           Si  tau(  26) = (   0.0712973   0.4703730   0.4590860  )
        27           Si  tau(  27) = (   0.0189698   0.0266279   0.0312624  )
        28           Si  tau(  28) = (   0.7304670   0.9466940   0.2111130  )
        29           Si  tau(  29) = (   0.5937830   0.0064770   0.0000927  )
        30           Si  tau(  30) = (   0.7068680   0.0423240   0.6832630  )
        31           Si  tau(  31) = (   0.2476190   0.4116920   0.7478530  )
        32           Si  tau(  32) = (   0.2627990   0.2724230   0.4383550  )
        33           Si  tau(  33) = (   0.3018020   0.8473380   0.7532430  )
        34           Si  tau(  34) = (   0.7140690   0.1793640   0.9972640  )
        35           Si  tau(  35) = (   0.9909230   0.5923580   0.9757450  )
        36           Si  tau(  36) = (   0.5807810   0.4410250   0.9365660  )
        37           Si  tau(  37) = (   0.3330220   0.0709843   0.0073635  )
        38           Si  tau(  38) = (   0.8228180   0.9101200   0.8250020  )
        39           Si  tau(  39) = (   0.5649740   0.4955460   0.5398030  )
        40           Si  tau(  40) = (   0.9379390   0.1127460   0.3868550  )
        41           Si  tau(  41) = (   0.1766760   0.9968160   0.4131910  )
        42           Si  tau(  42) = (   0.8158420   0.3760150   0.9888360  )
        43           Si  tau(  43) = (   0.1627350   0.1932790   0.0516402  )
        44           Si  tau(  44) = (   0.0656595   0.4846480   0.1268550  )
        45           Si  tau(  45) = (   0.2155060   0.6430010   0.1233790  )
        46           Si  tau(  46) = (   0.3232630   0.7208140   0.5046890  )
        47           Si  tau(  47) = (   0.6791330   0.6382310   0.0575859  )
        48           Si  tau(  48) = (   0.0565359   0.2545260   0.5057990  )
        49           Si  tau(  49) = (   0.8461410   0.1152930   0.1925100  )
        50           Si  tau(  50) = (   0.5244800   0.7473320   0.4282800  )
        51           Si  tau(  51) = (   0.1384990   0.6097750   0.7001930  )
        52           Si  tau(  52) = (   0.0104779   0.2966130   0.1827770  )
        53           Si  tau(  53) = (   0.4859370   0.2000120   0.2754890  )
        54           Si  tau(  54) = (   0.2263120   0.9273960   0.1262690  )
        55           Si  tau(  55) = (   0.6767070   0.3121730   0.3823140  )
        56           Si  tau(  56) = (   0.1923570   0.1350870   0.8055830  )
        57           Si  tau(  57) = (   0.5351830   0.6231390   0.2509050  )
        58           Si  tau(  58) = (   0.7604280   0.6564720   0.5587460  )
        59           Si  tau(  59) = (   0.3769720   0.5938840   0.6970940  )
        60           Si  tau(  60) = (   0.9018220   0.8613180   0.5346910  )
        61           Si  tau(  61) = (   0.3024610   0.7868980   0.9871330  )
        62           Si  tau(  62) = (   0.1033950   0.7119470   0.4524930  )
        63           Si  tau(  63) = (   0.7780600   0.8253480   0.0455511  )
        64           Si  tau(  64) = (   0.3018610   0.4564120   0.2461640  )

     number of k points=     1  Fermi-Dirac smearing, width (Ry)=  0.0100
                       cart. coord. in units 2pi/alat
        k(    1) = (   0.0000000   0.0000000   0.0000000), wk =   2.0000000

     Dense  grid:   100855 G-vectors     FFT dimensions: (  75,  75,  75)

     Estimated max dynamical RAM per process >     161.91 MB

     Estimated total dynamical RAM >     623.01 MB

     Initial potential from superposition of free atoms

     starting charge     255.9608, renormalised to     256.0000
     Starting wfcs are  256 randomized atomic wfcs

     total cpu time spent up to now is        4.2 secs

     Self-consistent Calculation

     iteration #  1     ecut=    30.00 Ry     beta= 0.50
     Davidson diagonalization with overlap
     ethr =  1.00E-02,  avg # of iterations =  3.0

     Threshold (ethr) on eigenvalues was too large:
     Diagonalizing with lowered threshold

     Davidson diagonalization with overlap
     ethr =  6.79E-04,  avg # of iterations =  4.0

     total cpu time spent up to now is        4.5 secs

     total energy              =    -499.93599462 Ry
     estimated scf accuracy    <       2.15975012 Ry

     iteration #  2     ecut=    30.00 Ry     beta= 0.50
     Davidson diagonalization with overlap
     ethr =  8.44E-04,  avg # of iterations =  6.0

     total cpu time spent up to now is        4.6 secs

     total energy              =    -498.68062147 Ry
     estimated scf accuracy    <      20.67616113 Ry

     iteration #  3     ecut=    30.00 Ry     beta= 0.50
     Davidson diagonalization with overlap
     ethr =  8.44E-04,  avg # of iterations =  5.0

     total cpu time spent up to now is        4.7 secs

     total energy              =    -500.32847877 Ry
     estimated scf accuracy    <       3.03635765 Ry

     iteration #  4     ecut=    30.00 Ry     beta= 0.50
     Davidson diagonalization with overlap
     ethr =  8.44E-04,  avg # of iterations =  2.0

     total cpu time spent up to now is        4.8 secs

     total energy              =    -500.53309586 Ry
     estimated scf accuracy    <       1.26037319 Ry

     iteration #  5     ecut=    30.00 Ry     beta= 0.50
     Davidson diagonalization with overlap
     ethr =  4.92E-04,  avg # of iterations =  2.0

     total cpu time spent up to now is        4.9 secs

     total energy              =    -500.59334386 Ry
     estimated scf accuracy    <       1.10261033 Ry

     iteration #  6     ecut=    30.00 Ry     beta= 0.50
     Davidson diagonalization with overlap
     ethr =  4.31E-04,  avg # of iterations =  1.0

     total cpu time spent up to now is        5.0 secs

     total energy              =    -500.67486321 Ry
     estimated scf accuracy    <       0.07293287 Ry

     iteration #  7     ecut=    30.00 Ry     beta= 0.50
     Davidson diagonalization with overlap
     ethr =  2.85E-05,  avg # of iterations = 12.0

     total cpu time spent up to now is        5.2 secs

     total energy              =    -500.68198400 Ry
     estimated scf accuracy    <       0.13857475 Ry

     iteration #  8     ecut=    30.00 Ry     beta= 0.50
     Davidson diagonalization with overlap
     ethr =  2.85E-05,  avg # of iterations =  2.0

     total cpu time spent up to now is        5.3 secs

     total energy              =    -500.69372879 Ry
     estimated scf accuracy    <       0.02254124 Ry

     iteration #  9     ecut=    30.00 Ry     beta= 0.50
     Davidson diagonalization with overlap
     ethr =  8.81E-06,  avg # of iterations =  8.0

     total cpu time spent up to now is        5.4 secs

     total energy              =    -500.69516300 Ry
     estimated scf accuracy    <       0.01120433 Ry

     iteration # 10     ecut=    30.00 Ry     beta= 0.50
     Davidson diagonalization with overlap
     ethr =  4.38E-06,  avg # of iterations =  2.0

     total cpu time spent up to now is        5.5 secs

     total energy              =    -500.69597566 Ry
     estimated scf accuracy    <       0.00742349 Ry

     iteration # 11     ecut=    30.00 Ry     beta= 0.50
     Davidson diagonalization with overlap
     ethr =  2.90E-06,  avg # of iterations =  2.0

     total cpu time spent up to now is        5.6 secs

     total energy              =    -500.69652047 Ry
     estimated scf accuracy    <       0.00075883 Ry

     iteration # 12     ecut=    30.00 Ry     beta= 0.50
     Davidson diagonalization with overlap
     ethr =  2.96E-07,  avg # of iterations =  4.0

     total cpu time spent up to now is        5.7 secs

     total energy              =    -500.69653759 Ry
     estimated scf accuracy    <       0.00201571 Ry

     iteration # 13     ecut=    30.00 Ry     beta= 0.50
     Davidson diagonalization with overlap
     ethr =  2.96E-07,  avg # of iterations =  3.0

     total cpu time spent up to now is        5.8 secs

     total energy              =    -500.69669123 Ry
     estimated scf accuracy    <       0.00043279 Ry

     iteration # 14     ecut=    30.00 Ry     beta= 0.50
     Davidson diagonalization with overlap
     ethr =  1.69E-07,  avg # of iterations =  2.0

     total cpu time spent up to now is        5.9 secs

     total energy              =    -500.69671189 Ry
     estimated scf accuracy    <       0.00014438 Ry

     iteration # 15     ecut=    30.00 Ry     beta= 0.50
     Davidson diagonalization with overlap
     ethr =  5.64E-08,  avg # of iterations =  3.0

     total cpu time spent up to now is        6.1 secs

     total energy              =    -500.69672328 Ry
     estimated scf accuracy    <       0.00019629 Ry

     iteration # 16     ecut=    30.00 Ry     beta= 0.50
     Davidson diagonalization with overlap
     ethr =  5.64E-08,  avg # of iterations =  2.0

     total cpu time spent up to now is        6.2 secs

     total energy              =    -500.69673422 Ry
     estimated scf accuracy    <       0.00004455 Ry

     iteration # 17     ecut=    30.00 Ry     beta= 0.50
     Davidson diagonalization with overlap
     ethr =  1.74E-08,  avg # of iterations =  2.0

     total cpu time spent up to now is        6.3 secs

     total energy              =    -500.69673827 Ry
     estimated scf accuracy    <       0.00001530 Ry

     iteration # 18     ecut=    30.00 Ry     beta= 0.50
     Davidson diagonalization with overlap
     ethr =  5.97E-09,  avg # of iterations =  2.0

     total cpu time spent up to now is        6.4 secs

     total energy              =    -500.69673960 Ry
     estimated scf accuracy    <       0.00000978 Ry

     iteration # 19     ecut=    30.00 Ry     beta= 0.50
     Davidson diagonalization with overlap
     ethr =  3.82E-09,  avg # of iterations =  2.0

     total cpu time spent up to now is        6.5 secs

     total energy              =    -500.69673992 Ry
     estimated scf accuracy    <       0.00000464 Ry

     iteration # 20     ecut=    30.00 Ry     beta= 0.50
     Davidson diagonalization with overlap
     ethr =  1.81E-09,  avg # of iterations =  2.0

     total cpu time spent up to now is        6.6 secs

     total energy              =    -500.69674042 Ry
     estimated scf accuracy    <       0.00000254 Ry

     iteration # 21     ecut=    30.00 Ry     beta= 0.50
     Davidson diagonalization with overlap
     ethr =  9.93E-10,  avg # of iterations =  2.0

     total cpu time spent up to now is        6.7 secs

     total energy              =    -500.69674050 Ry
     estimated scf accuracy    <       0.00000220 Ry

     iteration # 22     ecut=    30.00 Ry     beta= 0.50
     Davidson diagonalization with overlap
     ethr =  8.58E-10,  avg # of iterations =  1.0

     total cpu time spent up to now is        6.7 secs

     End of self-consistent calculation

          k = 0.0000 0.0000 0.0000 ( 12635 PWs)   bands (ev):

    -6.5691  -6.0794  -5.6930  -5.5807  -5.5052  -5.1464  -5.0049  -4.7632
    -4.7559  -4.5623  -4.5306  -4.3820  -4.2692  -4.1188  -4.0939  -3.8493
    -3.7032  -3.5439  -3.4036  -3.2790  -3.1509  -3.0752  -2.9859  -2.7872
    -2.5519  -2.5039  -2.4158  -2.1433  -2.0620  -1.9934  -1.7967  -1.7006
    -1.5823  -1.4555  -1.3554  -1.2658  -1.1612  -1.1104  -1.0762  -0.9506
    -0.8198  -0.7002  -0.6250  -0.5904  -0.4677  -0.3718  -0.2625  -0.2164
    -0.1685  -0.0684   0.0370   0.0855   0.2185   0.3644   0.4449   0.5216
     0.6636   0.8086   0.8891   1.1589   1.2437   1.2958   1.4173   1.5057
     1.6078   1.6676   1.8098   1.8881   1.9816   2.0340   2.0447   2.1272
     2.1646   2.2550   2.4486   2.5263   2.6066   2.6533   2.7421   2.7630
     2.9012   3.0068   3.0884   3.1211   3.1865   3.2762   3.3681   3.4597
     3.4948   3.5931   3.6502   3.6880   3.7176   3.7774   3.9803   4.0342
     4.1011   4.1514   4.1626   4.2256   4.2677   4.3283   4.3781   4.5214
     4.5305   4.6140   4.6466   4.7001   4.7969   4.8116   4.8343   4.8932
     5.0098   5.0847   5.1306   5.1895   5.3044   5.3336   5.3420   5.3796
     5.4844   5.5788   5.6021   5.6203   5.6657   5.7111   5.8411   5.8590
     5.9492   5.9692   6.0019   6.1148   6.1404   6.2001   6.3312   6.3981
     6.4167   6.4325   6.5523   6.5641   6.6646   6.7043   6.7577   6.8161
     6.9111   6.9333   6.9778   7.1070   7.1717   7.1864   7.2281   7.2935
     7.3758   7.4826

     the Fermi energy is     5.8964 ev

!    total energy              =    -500.69674047 Ry
     estimated scf accuracy    <       0.00000029 Ry
     smearing contrib. (-TS)   =      -0.15402388 Ry
     internal energy E=F+TS    =    -500.54271659 Ry

     The total energy is F=E-TS. E is the sum of the following terms:
     one-electron contribution =      95.72309902 Ry
     hartree contribution      =      58.71534202 Ry
     xc contribution           =    -149.69337431 Ry
     ewald contribution        =    -505.28778333 Ry

     convergence has been achieved in  22 iterations

     Forces acting on atoms (cartesian axes, Ry/au):

     atom    1 type  1   force =    -0.01902370   -0.00494427   -0.02226148
     atom    2 type  1   force =    -0.02398919    0.01086544    0.10048860
     atom    3 type  1   force =     0.00252432    0.00047027    0.00651213
     atom    4 type  1   force =    -0.01536284   -0.07598766   -0.01709312
     atom    5 type  1   force =    -0.03294873    0.00592405    0.00573769
     atom    6 type  1   force =    -0.01906696    0.00842066    0.03489578
     atom    7 type  1   force =    -0.00836592    0.03063944   -0.01750918
     atom    8 type  1   force =    -0.01303209    0.08134904   -0.03374195
     atom    9 type  1   force =    -0.04528540   -0.13769243    0.16056156
     atom   10 type  1   force =     0.00008885   -0.00490277    0.01111395
     atom   11 type  1   force =     0.00710404   -0.00829903   -0.01505388
     atom   12 type  1   force =    -0.03606057    0.03103470   -0.03400215
     atom   13 type  1   force =    -0.00519919   -0.01097281   -0.01039235
     atom   14 type  1   force =     0.02403989   -0.01090467   -0.01729394
     atom   15 type  1   force =    -0.01505330    0.00214148   -0.02604397
     atom   16 type  1   force =     0.02760209   -0.02476786    0.06464805
     atom   17 type  1   force =     0.00842895    0.01536617   -0.01509259
     atom   18 type  1   force =    -0.00395711   -0.00010018   -0.03440388
     atom   19 type  1   force =     0.05959557    0.01649910    0.05840809
     atom   20 type  1   force =     0.05120979    0.01454487   -0.00516398
     atom   21 type  1   force =     0.02755849    0.08746862   -0.15715872
     atom   22 type  1   force =    -0.00701857   -0.02898929   -0.02375371
     atom   23 type  1   force =     0.00479660    0.00783957   -0.03028889
     atom   24 type  1   force =    -0.01476343    0.03755690   -0.02847422
     atom   25 type  1   force =     0.00994181    0.00206237    0.03986456
     atom   26 type  1   force =     0.02784216   -0.00021243    0.01838254
     atom   27 type  1   force =     0.01554871    0.00870871    0.04913380
     atom   28 type  1   force =    -0.06507800   -0.04359811   -0.03036159
     atom   29 type  1   force =    -0.01046530   -0.03281844    0.02558831
     atom   30 type  1   force =     0.01641573    0.01022599   -0.00220746
     atom   31 type  1   force =     0.02178193   -0.00774366    0.00621853
     atom   32 type  1   force =     0.01196586    0.01207236   -0.00577939
     atom   33 type  1   force =     0.01492540   -0.00463842    0.02105542
     atom   34 type  1   force =     0.00571678   -0.02858765    0.04347806
     atom   35 type  1   force =    -0.05033300    0.02007670   -0.04387160
     atom   36 type  1   force =     0.01061381    0.01020343   -0.00338527
     atom   37 type  1   force =     0.03753943   -0.07881990   -0.00744158
     atom   38 type  1   force =    -0.00596318   -0.01872270    0.02657721
     atom   39 type  1   force =     0.00914982   -0.01227190   -0.05604577
     atom   40 type  1   force =     0.03201290   -0.00815989    0.00621016
     atom   41 type  1   force =    -0.01011140    0.01832228   -0.05633597
     atom   42 type  1   force =     0.01677646    0.05521708    0.00033877
     atom   43 type  1   force =    -0.03406577    0.02004483    0.02049294
     atom   44 type  1   force =     0.02616176    0.01839257    0.04906507
     atom   45 type  1   force =     0.01771504   -0.00884829    0.03457791
     atom   46 type  1   force =    -0.00680567   -0.01397586    0.00528083
     atom   47 type  1   force =    -0.00874247   -0.02281861    0.03454751
     atom   48 type  1   force =    -0.02267956    0.01030354    0.01151964
     atom   49 type  1   force =     0.04406207    0.05288678   -0.06098147
     atom   50 type  1   force =     0.01630049   -0.00335631   -0.00576750
     atom   51 type  1   force =     0.00089722   -0.00678279   -0.01748362
     atom   52 type  1   force =    -0.00320698   -0.04166915    0.00492476
     atom   53 type  1   force =     0.02289993    0.00464438   -0.02154686
     atom   54 type  1   force =    -0.02452284    0.00726390    0.02800514
     atom   55 type  1   force =    -0.03947634   -0.00945546    0.03129844
     atom   56 type  1   force =     0.00899749   -0.00031909    0.01580429
     atom   57 type  1   force =    -0.01420684    0.01046473   -0.03878999
     atom   58 type  1   force =     0.00761387   -0.02119549   -0.00133626
     atom   59 type  1   force =    -0.09788158    0.01829212   -0.03539851
     atom   60 type  1   force =     0.00198760   -0.01786887   -0.00097267
     atom   61 type  1   force =     0.02075661   -0.01770997   -0.04263078
     atom   62 type  1   force =     0.05670624    0.04815599    0.07352426
     atom   63 type  1   force =     0.01683174    0.01395175   -0.04192808
     atom   64 type  1   force =    -0.03144354    0.01572413   -0.02826162

     Total force =     0.490379     Total SCF correction =     0.001008


     Computing stress (Cartesian axis) and pressure

          total   stress  (Ry/bohr**3)                   (kbar)     P=      -21.96
  -0.00022490   0.00001292   0.00001632          -33.08        1.90        2.40
   0.00001292  -0.00011109   0.00000137            1.90      -16.34        0.20
   0.00001632   0.00000137  -0.00011196            2.40        0.20      -16.47

 
     init_run     :      0.61s CPU      4.16s WALL (       1 calls)
     electrons    :      2.33s CPU      2.52s WALL (       1 calls)
     forces       :      0.03s CPU      0.03s WALL (       1 calls)
     stress       :      0.15s CPU      0.16s WALL (       1 calls)

     Called by init_run:
     wfcinit      :      0.42s CPU      3.81s WALL (       1 calls)
                                        3.81s GPU  (       1 calls)
     potinit      :      0.03s CPU      0.11s WALL (       1 calls)
     hinit0       :      0.13s CPU      0.18s WALL (       1 calls)

     Called by electrons:
     c_bands      :      1.51s CPU      1.61s WALL (      23 calls)
     sum_band     :      0.43s CPU      0.49s WALL (      23 calls)
     v_of_rho     :      0.15s CPU      0.24s WALL (      23 calls)
     mix_rho      :      0.20s CPU      0.21s WALL (      23 calls)

     Called by c_bands:
     init_us_2    :      0.06s CPU      0.06s WALL (      47 calls)
     init_us_2:gp :      0.06s CPU      0.06s WALL (      47 calls)
     regterg      :      1.34s CPU      1.43s WALL (      23 calls)

     Called by *egterg:
     rdiaghg      :      0.43s CPU      1.10s WALL (      96 calls)
                                        1.09s GPU  (      96 calls)
     h_psi        :      1.14s CPU      3.91s WALL (      98 calls)
                                        3.91s GPU  (      98 calls)
     g_psi        :      0.00s CPU      0.00s WALL (      74 calls)
                                        0.00s GPU  (      74 calls)

     Called by h_psi:
     h_psi:calbec :      0.40s CPU      3.08s WALL (      98 calls)
                                        3.08s GPU  (      98 calls)
     vloc_psi     :      0.68s CPU      0.77s WALL (      98 calls)
                                        0.76s GPU  (      98 calls)
     add_vuspsi   :      0.03s CPU      0.06s WALL (      98 calls)
                                        0.06s GPU  (      98 calls)

     General routines
     calbec       :      0.41s CPU      3.09s WALL (     103 calls)
     fft          :      0.29s CPU      0.41s WALL (     191 calls)
                                        0.11s GPU  (     121 calls)
     ffts         :      0.05s CPU      0.06s WALL (      23 calls)
     fftw         :      0.76s CPU      0.97s WALL (    2399 calls)
                                        0.88s GPU  (    2399 calls)
 
     Parallel routines
 
     PWSCF        :      3.16s CPU      6.95s WALL

 
   This run was terminated on:  10: 5:58  11May2023            

=------------------------------------------------------------------------------=
   JOB DONE.
=------------------------------------------------------------------------------=
