2.4346446437498583 9.98072275626489 3.948072395270041 7.205051114812485 1.1623815086074174 5.873822432407354 7.125898012907315 9.207228508080457 3.7930030145669313 3.959028615590248 1.0604460698517626 10.38559183077984 0.3831440288965326 6.8371499673643585 8.995131415001225 5.679975059084036 2.847265057811077 3.1787625927472623 5.1003388316673535 6.0903701572590325 4.1266832756116125 3.6241026035470587 9.378865312319274 8.213672878381892 6.600510514870084 3.637891044086096 1.046916362212416 9.136146169054507 6.738724991037831 2.726661454733343 8.09976651785169 1.781935005198499 0.35690233735019355 8.936155220294104 10.58512493942968 4.5267929424655975 4.259850863118738 2.8963391291967286 5.356186273916393 0.19488336966652142 8.703221078462057 2.8921227412017796 2.989589447529455 3.351219250207319 0.1353513783600655 7.2543913723089295 6.724137992166418 5.608658476280588 4.786185983710389 6.186165214810932 9.543602572566357 10.331587992622316 3.082019912640942 3.3782318167305116 7.143349174330851 5.996491639704836 7.677041679024799 7.989086332984289 5.424319270834767 0.4232912828706567 6.706324817632203 7.1343946735638015 2.5995842054411424 0.906932280780123 3.7734223642570566 6.855431629453567 10.356439127925876 4.5707030033018805 1.5778767326651917 6.257822515836194 7.582524314804701 10.300369685548606 4.610567035254121 5.531517741373005 7.075248119745773 8.871780771260116 3.7375511239666985 5.626642009925709 1.2667158165935315 10.565682705897416 0.21326405298894502 8.48414990928007 0.5378918567778048 8.145092688797387 1.32573460107838 5.745882740116188 5.066746144485377 1.9644641450909324 5.978976593614708 2.1629005669643084 4.781107152716474 8.589623493820374 1.6634076537849443 1.0563893935232893 4.55146307121382 9.369612683108137 8.534959514108087 7.1838201106157 9.262861405236029 8.09018381786317 1.9382288420112523 3.148055363006273 5.963037369300471 2.696806020546889 7.87740528834031 2.449891784176036 3.552360122966343 4.1462319835881924 2.3625082077251696 1.8091072833881678 2.5523947317199 3.3616963355280998 3.305467181484353 7.455681309289997 1.6552304164614078 7.813254435639387 7.098906741272984 0.1462181601470466 0.6876258030761948 2.563468073928856 3.1100439863851452 8.97963938335312 10.5096984430756 6.180766960484067 0.9813142628354548 9.382453501092753 2.6638734749196766 6.513904201862731 10.640874958473999 6.889833522412352 10.355140139705211 1.4904079766588718 5.024859098091115 3.9351570451744027 9.89609686792183 4.702741961699248 0.9630900969461769 2.3468138746328613 8.83378004208342 9.68494739739702 10.149207916951926 0.1969841104528935 1.0740503096021308 8.80526618589536 8.146764337573162 3.7201638472097516 8.088192745754444 9.600736759386796 6.11407136856397 4.894023300914529 4.506317906823461 0.34735157969496905 4.855458257182954 5.908501158921363 9.396678486853489 8.21266137116088 4.0213694027377835 7.375974540274378 5.90621195836855 10.170023670815878 8.537653317549303 5.591803571745225 5.676259100977377 9.067587274358864 5.750876391554649 8.38986678883747 8.74870696107423 7.067400953199619 1.4802609621154732 10.287496925230695 5.981521332833881 6.62073001184586 4.16545062078739 5.118929269645082 10.598040289525317 1.3807925362346403 5.937313143553512 9.576492528415843 3.262036255647496 10.215392431539302 3.2373022422326847 7.794206157551097 3.340912523997444 0.16658246236709376 8.4906448503834 0.11268083967611464 2.7405457222722647 0.919217302165405 8.127109155152265 3.8443449916165324 4.55089875665894 2.1872406249351477
6.567825101726072 10.568465802014956 4.463011278704568 10.337232614199806 0.2713498680561986 6.139026124966114 6.003803034466958 8.41260270773763 4.727645762016126 6.659449815439607 4.4113552917561725 1.6828803133090868 0.5411318550331682 6.335697806574498 8.373698394468231 9.722086766740167 6.439063001146075 6.158590045017866 4.406458989675756 3.7543567056439295 1.4667511529985255 8.14945840332011 7.948007505115842 6.098876447906698 5.684180949965331 5.324143085030351 8.55376522554303 9.078446569999494 6.450494802090352 1.109384965937861 7.6993392242404255 7.130995638188595 9.741757128141492 0.6977358194213089 2.1327866096896244 4.5826726438959655 8.738824155912862 0.1350091433865122 8.374624434209528 1.7708008680574365 9.937534702413453 3.441812970888992 4.570123208781159 7.389754559003652 2.8941083625196122 2.852553659645816 4.655510459409641 7.141096922263193 7.894563303494599 8.527857401056652 2.227274595706706 2.3634130818122014 8.495616316270604 7.205291700191437 3.4093909358086685 1.8676092754952378 4.813341692558373 7.5989969639967585 1.8678753788691735 2.1113173894804933 5.20102237597779 1.4203959452589296 2.8751937347002645 8.923031555486098 5.26622834672699 8.756482775807234 4.8070403646635755 0.5775997258108099 6.209660604543601 5.773985516601144 6.831938022424717 0.791201968482478 0.3105554103448906 0.5622774935395932 9.122438779778541 10.17432412867638 0.3823330700168059 2.561755892608902 1.8423507432412627 9.36609367308901 9.389681076154668 9.032985469596323 2.3609968631768656 4.160590116294143 0.5338384937603389 3.4837508626212554 6.927022079999415 1.3920931904071303 6.662536614577261 1.3577871434393423 1.9615863430343636 1.9354124151740497 0.8343735154563074 7.884323645665555 1.2963491964650715 6.360168672841623 3.878041553849235 9.363368774539907 0.3535428137839565 5.7629156162454205 2.211021001626715 7.645362815871311 6.182422263187545 10.152514296148611 1.3735830397161641 7.342984230000717 1.109310456993159 9.998302068885405 10.311495095872745 7.4255507848654805 3.5612295209763687 9.186026842014213 9.586842387971096 4.448492678622637 2.3348868001262963 7.710622007295298 3.3835363319970773 0.07963409568399239 7.839054139691616 10.177815404942416 3.791951790313563 2.034040969689571 9.45645173474261 3.246599535769775 6.976038321478367 0.170438146592309 8.95442110947555 4.81955786737351 3.5236450804416926 6.9600082542324815 3.434223702664346 9.690548194861309 1.3922422082965342 4.211788405439369 1.4602688748094523 5.02204124666865 10.370868080665275 9.192338814043966 7.2624932814526515 8.948364596684776 8.269843569688614 2.946264623811006 4.31769754826577 9.875575192826268 3.6209537622224937 6.755236385921496 8.343724510428117 9.22414348929676 9.707674608007808 0.3207184304022422 4.453963763990754 3.9546261048679248 5.622125643163529 0.7195978082103688 4.846157560632121 4.15634310644613 6.681717345770545 5.990742680874194 3.7960604264071303 6.484715695978481 5.180394042430296 6.285233962741335 8.649690169779365 4.23871806688166 6.524588625529003 1.7237218591407355 6.752532775642309 5.485657188874353 2.004067085649456 1.4081445459229307 7.7412771159726885 5.013962348235962 8.780070178872892 6.841805135530252 3.5619533221534736 4.752318866847442 3.4167566771992077 9.315959797439527 3.855635649763851 0.7023724046087642 3.0444993453331026 0.30227320893451637 1.925981711601769 10.145372081592178 1.4738827234200018 0.48276793423460274 2.1465175437847055 10.297338396379368 5.886855923689704 0.5406358383441521 3.844352866708978 9.39216115959975
2.4898421345196504 8.293813952804705 8.481695433821848 3.8483394679119414 0.0759020318234587 6.658939543647949 8.92043685592171 5.587336986923571 4.2462449581640085 0.9714512628685702 5.553495113267641 1.4573296564566653 8.811714913283144 1.8142075968282823 5.638360610840799 10.082802487446484 9.688058694733206 5.710558027366282 0.557508407827998 4.852460540803374 5.109846140442587 0.7669426593401996 6.442911502723202 8.245728472054838 5.926532841059736 1.8639324763019676 9.276548324162713 7.7622974665615825 7.1270836883139275 9.127160776816485 3.5304345062928744 0.9270320738101461 0.2328276196653643 5.583419462700424 0.18533721936134864 3.448698769919731 6.732265377476839 8.307493351246942 0.23995687502471497 1.4120865098578295 10.600554411677303 9.099429389312965 2.4318989705343648 6.1504385122158105 3.9788207027029836 0.16116247545280835 2.8301025332816714 3.6142354592401764 5.299441538307355 3.145186451642223 6.4935305996826065 5.5344610553573546 4.974148636984855 9.219595186679472 10.016215221099255 9.158202898106417 0.5108813532155507 7.855040594366066 3.367516596752031 3.4927070447525743 8.263240231150151 8.935819525765316 2.8574506847198853 3.663907111482569 1.8347745989998003 3.325147720643004 5.185066863705498 6.27690641376738 4.4808173664711495 10.123329701352782 7.115128852165576 2.7891601469712897 9.449909416483193 9.712309021310183 8.760414507763194 10.088274246823378 0.4602707726131542 3.6766071288690187 9.863048540331244 3.3455443956743847 8.418706328310009 5.961556359250365 7.157412564704535 7.611025675227593 2.110278748171064 1.5183387089644134 6.991311666732386 7.095700912743723 10.536820124927367 8.07997887380922 1.9103892037742782 0.2504809631959171 3.3191756252919573 1.1923751445276243 4.324041879421489 7.548057860608272 0.28873005160288584 2.492833504918303 10.544037737490662 1.0928721583489611 0.14473974550974386 0.768569283528506 2.4400320914758966 2.9347472700032142 5.029536893868088 4.484213263827627 8.511960437534905 2.7896604829454414 5.534045882953271 2.38195053668925 1.2144218637290805 3.0462476741152624 9.162269458577182 5.0159107226571455 10.230901935795426 6.676525820867073 10.406605026292787 5.828264726647065 0.8834900695234266 5.795572561187059 7.755569544526179 0.009513835321265783 0.3634344707222577 3.3969193193181453 4.439864334714509 2.3301391497488892 6.442240839608914 5.079932436456062 1.818966111305854 9.959038529244587 3.723457737852896 1.4019201086809148 2.4323567247234825 4.042778543824349 10.079055290363476 10.205799973517767 1.0953419018809447 7.291353569529606 7.483652910744047 9.484741316641166 5.324447691568688 7.611600529325554 0.8479353435644966 2.5139434248490065 4.253345470818461 5.288391565090981 0.4788822063069765 9.41006351113744 7.73942040255196 7.142892176007874 5.2366227599356545 9.20493640718145 8.219742937737717 0.8414852676764415 7.816355042662497 5.306808187118271 6.5568390685822 7.3349998991896594 2.5665106384737246 7.704907865781741 3.648747996010395 9.236755646048254 3.665929746271694 6.827637930507185 6.881940351872047 7.328697795004598 7.230131608096688 5.473324257494505 8.480098616883065 5.044046637118492 0.5590881920527668 3.663864529697535 4.648355399688203 7.347018608015562 7.819527385647545 3.987794813898941 6.36447585469021 1.77716144384853 8.068194364801005 2.2258457127538787 5.511690445810316 3.876454091480771 4.249342783025247 3.5317332507364174 2.3334073017502637 8.708060203063646 4.63663476335754 9.323846041889448 10.560176234018625 3.0030910349831026 7.550878903866787 0.049919691140216674
3.375589706646472 8.125895493257525 3.8097519559161865 3.840384077805585 2.9260742086323326 3.693609144825999 4.210243308804526 0.5531483332761704 3.36217022348785 1.263800811007443 7.50186296366747 8.721612169626892 0.19184654624868966 3.0692791128381276 4.645627442922413 3.2791670544972225 7.989012515005318 6.2891369393136305 6.380151422874013 2.7071868194393076 4.217000863269201 4.306474709412323 9.192569090455047 10.472020652604732 5.538325887911469 5.5323120894413345 7.374489437059734 8.584357313377414 10.12036219330074 7.943728400023488 5.276693779203686 9.938152599724157 6.487039784374999 3.884786310679603 7.117362364661734 1.176526357591031 8.532273143588366 8.92232003729624 5.84079020071948 6.7622295023546775 1.3342345036903498 6.024497931370779 9.451778679637759 1.715048197980297 10.58655907576384 9.0595111430319 10.365387293159017 3.638560576144427 8.323681462376896 10.061265466991745 0.41978225836957134 0.8338471581582599 3.2168190519835256 9.19052907401288 1.9147148072572895 6.208662540704437 0.22949972472654226 1.0228429939307353 9.865785141455447 1.7707661470569547 6.244936583066701 8.170212725446454 7.322267141157412 8.899752355404779 4.161346664706361 3.748625838250662 9.07905067551702 3.8095713294603697 7.506336124720344 9.943985771738475 8.198337327125689 0.550266810051611 6.2681842704388835 5.3187053678095415 3.420948197227756 0.8656533520104671 8.876653419231506 6.314159015987072 1.3837049024128742 0.8900156108658959 9.550241348229175 3.2580231340810233 2.848861711313478 5.834946403619526 9.56019705347037 7.8793935064958065 8.806538479117686 3.1607823503377794 4.06603964654892 10.20632976118389 1.0299554262556618 8.880223448005296 3.7710022686006694 1.6300581379756853 0.7763813824944341 4.61466594337829 6.940220936933656 7.33576099991549 5.00438345943144 10.048100985888393 7.054376857009859 4.128748901974251 7.270321097481634 9.226452488549148 2.428533323542202 5.023019859637477 5.66494503343903 10.16415879629349 0.22336480028015362 0.29207722908998285 7.4516275587791325 9.172785181000291 1.3572803144354433 5.5801355998902356 3.320254260652721 0.35977283720441994 6.867375349811314 5.499820577565587 9.303718111296183 4.240567303210472 4.0294999770457505 5.818339394770018 3.775794182222633 2.563397535523517 2.735470797403088 1.6287406273567866 1.3876149339270254 4.849065957600285 3.0299025454700703 9.98611423628633 5.879125509695181 1.7911450613073416 3.019946840228875 0.18302453764488555 1.1190127690418419 9.543791921247951 5.114087468626042 9.308775652059053 7.638799067347859 1.8976827949823312 8.652464112305976 9.538702505228173 6.509331214039917 6.4988655046881805 3.752854622333902 5.712014162807755 6.039861805200841 6.141937002908593 0.7548549589953288 1.6058754430675097 0.14386897205806284 1.626721861085893 2.3135273966150964 6.5401120871282235 8.584601690347048 9.754285492788314 7.598859370441079 6.744485609342087 1.7929619509511456 3.9575575222024915 1.6637609096139687 9.02014520074948 1.4373403347048208 5.987628884212883 7.0125140196029125 2.707877450005666 9.401957653089237 8.89955047877769 5.9331965704982155 4.163482306919254 1.2509869577300883 7.957562261521925 1.9960073374604754 2.633129972554429 5.279668803181845 2.8495735920511094 7.240889610269137 5.8937881278732505 2.0999631753258488 10.493918954101106 0.8691660053218216 3.7660828539510716 6.848951451318003 7.3321484707991536 4.597995184014965 5.875757357548482 7.333040977992601 6.444635067600602 9.95505711097148 8.528394987331122 3.940939888267348 0.8702954519249583
7.1432102762633924 2.0901547787920003 8.312228231718928 1.4640366513908902 5.8155942804958345 2.991663342116637 5.893873650781101 10.286312866891201 0.5348382212638534 4.599375033107093 7.7181228617180615 2.002114385264921 1.416123728818728 2.8645469915638464 8.864007510731085 0.05269996628825065 5.949763209321273 5.408106079546818 0.5750485387707682 10.534172756304631 0.9298038472377914 3.9978665801905104 5.247022642674857 2.511949941989898 0.4973639642434358 4.935763898277335 10.434778136612701 4.485949606339609 9.454554727537166 4.85292796763218 1.7723639024100224 0.9719206975759418 6.282668270766472 7.396009094738241 3.636209516660887 2.8553595213743272 2.4558798204517815 3.3287107311617343 4.459003234234626 10.161395136372201 8.241649342228344 6.60293392235557 6.025578425752243 9.439228115417542 3.0327361134725566 6.878366843690377 1.0222860905143007 4.810771818288594 1.5470743877396307 7.622902433684491 1.4705900260809868 7.996200499905112 4.5125667165071635 0.5846598009378154 5.12679955010241 1.7826028865287469 0.24183545809378262 2.6929590367526544 1.9581101205306117 0.19269683140616292 5.49371418327806 7.69455407980992 7.161617080700892 8.47171846566785 9.679812378149098 9.311368270167334 2.8392256864403627 0.09477433121511993 8.97160181480025 4.585524789029484 5.0009365191824084 4.8926624485327475 3.481520134186718 9.975829481249557 1.3436754812317804 7.456890689103932 8.213577106724415 0.6623889851469928 5.8634009895397945 3.6809891401510746 9.41321642236074 4.402986219460611 0.5711494401504532 6.737187822003571 0.5848562959649901 9.393853696169419 8.902233759531176 1.9112805759461151 4.065184714365276 6.699067786731681 9.033662379328991 3.110803056701418 9.664687571733058 6.175690005160881 6.084112701144657 0.321406384881992 1.2634417820275872 1.6546368277503354 2.181466548987718 6.716157543419469 6.430358181732094 8.692122158040926 2.8813393503726665 0.4705142464491176 3.7094649870621734 3.1519183134686184 7.232705795126846 10.273938990855605 10.124029217150552 4.812917331558285 7.802541373933433 10.430911964186128 3.18551365243908 4.792503091437759 8.874554514081597 10.56009947853887 6.388743721382342 3.488105372935275 6.455403331682251 6.536401768289503 6.861043417240543 4.248434914573106 5.222466074954431 7.387373934895374 8.585016436201492 5.54611993809319 4.77828110001144 9.235914179732253 9.22909527122165 4.196294693578483 4.670272563182284 8.295021640150118 10.457146705652153 4.0487322388467035 2.4233784808218064 1.5218699174971695 7.02861650068568 8.356455544862463 8.864124345612108 0.9472441085686474 0.46136395099446936 8.5895836179142 2.9884875576233814 6.462551502130282 2.9797249415466722 7.67784669182366 4.463538551888875 4.605322990686435 2.2007761684149383 3.841191004738955 6.678547333082952 10.497412254193733 7.832270540477323 8.930529043444333 5.878950650068645 3.4102508567628185 3.1868413215416114 4.9640166967792085 0.0004577803065529159 8.015892488033861 6.412886056342778 6.158005452715159 10.501756387497217 1.001028514979846 4.205237872653136 9.144060720542704 6.960406172874013 9.055797278606398 5.166693351295281 3.287202484340184 2.0516629961714026 8.322201682017145 8.071792667926855 3.4436337686768748 1.2756669591236987 9.220014014560334 5.206109191611241 9.890157649401395 6.700767203182922 1.0046567691032444 8.529020664133117 1.4571858788218273 2.962040389100951 10.419345310964873 9.144655516300638 2.7601497146935765 10.503721337768965 0.9866100285263519 7.9957756457923015 4.881170144781233 2.7634317127150347 6.609423568928744
6.139343044944257 1.265983270783696 5.090560433067591 4.580405584855752 3.950833046280196 7.195219882664401 8.46811602314219 2.549120699697181 7.735426511629732 3.135274442508906 9.030960166753923 4.7450236284507605 9.278319286502315 3.2186555991895216 2.8320896327771883 1.238054423778853 10.366317498680663 7.680624950489977 8.343001616086118 6.885250219344035 3.940186373510588 5.433355559426116 0.2920100705271441 8.543144128942442 3.312203368244322 9.407914257249004 8.670285457668081 0.1808696881814015 10.6281211023269 4.367610813577829 3.5308548763464076 4.597367718827372 3.3251970029471094 9.083265413837477 8.419629923204447 6.451563658118719 3.623709224830041 2.470433466882925 1.1651599197360372 2.1594503427277774 1.7235875077098752 6.788267351459762 8.521242706902358 2.5547747443543876 5.250943277174088 10.383738357030133 6.65076738620177 8.828492027981993 9.275460260147351 7.437906414564007 1.7909879872272925 1.1330172092602573 3.3004152185344857 2.1591089664465875 7.436135525105335 9.60146394067485 2.6869087011924258 7.213088797382931 7.596966425580894 0.4614137828640822 4.074347252018191 0.22417753665384627 6.42710191396971 0.023998752567645023 1.4511585673116043 9.14901235199288 8.093903610905414 1.794721790302806 1.563279339664889 0.9604568331231921 8.688431740615076 5.800868462144542 3.2874109158229103 4.5535008666944785 0.07953213911020056 4.55705331362061 5.841524243632493 8.889513038244674 4.676972400397325 6.096222953426467 4.926539797964665 1.3975731591735883 6.285537437363803 6.987716443744921 6.30647873861304 3.2539133682311587 0.47074402334935167 9.897234484299476 8.87400175346811 9.226302075656015 4.354915883121082 2.88061840475008 4.785924774140817 5.702274724933404 0.9190286877990489 2.454036737377026 9.96775002238275 10.115885992401562 2.084112864672697 4.852034424594984 7.739853735276413 1.5433621672592197 1.1615221287396083 2.028425858803606 4.27148138639653 0.37216202094788 1.2342672806594033 1.0099798635150492 10.600672315717482 3.7891380370928753 5.395185423985578 7.552587509026216 4.965296673888497 2.935932030311619 7.072015049181234 9.478856515683766 9.635900273039875 10.36954990534318 6.252391934062028 5.059121811171765 6.698197353269583 4.270083877245409 5.391387612857341 5.821575067200461 7.858716689183196 3.8532634379126276 1.1114571635013621 6.40185073717045 10.576893324130852 6.233242858289034 2.831492224285106 8.800093788590512 5.389542047337159 5.215248119772176 1.7464383825320196 0.9937815589725917 3.917132806521487 9.265261643746804 7.415354243987904 6.2364645969427634 6.508861533314674 8.49901057658987 10.525249493592105 4.859384682649353 2.5181728062055657 0.1553870155914594 0.0604033325539042 5.138182424293572 10.039556389529274 0.6575472580181839 2.080603089781714 6.504733013914034 3.745441873100577 3.3969393620409103 7.470582525479147 10.431200328124305 2.6860125884543025 8.988778860009404 2.3291996985494205 8.535068446290547 0.685361957329004 9.744948658862452 0.374357497156282 5.811269770712045 2.0063324126053517 3.6028852716774615 7.468288903589903 6.454476024517619 3.1522365764805254 1.9940962065264538 9.272462549678151 6.024544602385389 7.868936641601317 8.037981908843005 6.767784774588372 5.573522526880902 9.803174650822891 0.724087896027354 8.74732981712911 0.5817969280230394 8.477706563041867 5.166164611342351 8.289512220027186 3.274257260988315 0.7903383641975127 3.2583085878514773 1.7904652547967206 4.043730066798978 7.0812535447909335 6.1959795035954075 9.292283710004737 5.739687431750051
6.01983716272193 9.838623207076267 2.6233360889097823 4.1721260952362185 1.4309957900208061 4.104991592063749 4.696401411096103 3.9218413405472288 4.567201570917104 4.094863909240618 0.17407687005983463 1.5037212852880648 10.36311151311119 2.2257260301459265 9.063477413546034 3.0851094379043063 10.542300147371973 8.989239688035994 10.47493135500696 1.3547453073566427 2.2774506941542847 8.927749424502071 0.6384156857127101 0.19827574879695456 0.8938590624411586 8.682640331066542 6.180974879648112 3.0286457425013187 4.450110222189105 9.795301005473219 1.7827810126249002 1.8044208144089198 4.278972616544816 6.660735248924726 1.370676972449602 5.247321797853435 9.324464924530762 7.549351558207285 10.570894078371035 1.1459297397478556 0.44402594265935247 7.614441355699376 9.810998381373636 1.1492630359872247 4.834088909750428 5.6724075891973955 6.703162891792608 10.120004527321033 9.569222584177476 9.31514660437278 2.119369386239921 7.965928392058415 6.247970939206805 3.703036533729086 1.139848870250476 6.901030764404361 0.8066736641904639 0.6276106941329532 4.449503200190241 1.508119532402632 1.0811168294833164 5.6713745868484535 4.799563202376515 7.291676044444422 7.879358535413584 8.361887776965714 8.977301588725027 3.929285347164862 3.224000331047605 1.7312586892828297 2.644443415256203 6.585102437768177 1.73120544173907 9.809283810464565 3.5318669795585413 5.219483981975765 9.417424486426778 10.374112455651982 10.118833081358316 7.759583510480086 3.9591572192141604 1.8319178460065273 7.472611198140532 8.164893164071623 9.645622159964168 7.089239532578071 7.977174273300504 3.8051546731518044 4.300559170785076 1.4728696584335845 7.904715015752044 0.10148023384847488 3.2069078695006805 3.8810004744833924 6.156512958044818 4.164192211215995 7.7627144660531675 2.233809007288678 1.7515247044378444 2.5312604362401796 5.779541647242295 6.738359518217895 8.876035410002466 9.174594387864174 5.5335592940891045 3.185236119190405 9.342696883514147 5.304062380483976 8.875321892916084 4.470237793730343 7.264573044670638 5.756560007355526 5.773577922341187 1.9991683809563439 1.9253885843226395 0.17529623881193612 0.8532088225839828 1.0695301639611645 4.459705429574637 8.432185184237522 4.321815590254023 2.0962812512656326 9.856684773919621 10.260428949724616 3.9187423335004032 5.48298477702596 7.390024257768941 4.398822188039578 0.3912001194460401 5.112924997403471 2.4099518820463968 1.5482255823625817 7.709658613450812 6.222518613289577 6.096449728683661 9.515506462032498 9.88371322713214 7.929869155424217 6.518766647752106 9.28520018576222 6.533388423268572 5.122168771000188 4.683259917296162 8.529159610933034 1.33664114247828 2.327002858377239 0.31130218003432414 6.1865658717429 1.3862572037537462 8.06247683840385 2.1987188759509104 3.9392639368654647 3.2799634995392504 1.9580719266824602 7.366829627707132 2.971979706432043 0.44144024193437215 9.21974830497256 9.89765343408848 4.302135298080368 0.762883949153205 6.623738855520354 7.354316454923558 10.23217580300562 9.335678857246595 3.7855489275394123 3.6832603959766628 6.672353862973134 9.8371961729035 5.032244319098485 10.16457272144806 3.141274947062239 6.866292066855408 10.105052617033255 7.1072052538426576 3.7804265138297115 4.938890725378645 5.140730864754886 6.379290031627448 6.653962161358468 5.157589037109267 8.252006145662804 4.379674371303521 4.3005485212763235 8.541342648945298 7.603866393508661 7.251857531220777 3.542378044696744 8.734333046548645 7.278257663416931 7.977472459545559 1.7156571589611818
3.225314883299733 2.046360851069444 9.085579747087642 2.276669090082331 10.377364506690652 4.427034968428429 3.614942959107028 4.559314136133324 9.415086728505592 3.2234753096652518 7.4740919765348455 0.39231725599319306 4.75001305845001 9.371298495980772 10.224105692853783 7.596662874134068 3.9657166877444134 5.853055436480521 5.602235419774488 2.9429137469728364 7.0601985421501725 0.4416157027225687 0.8711295629399172 1.39365247878411 0.7936484227953442 4.033440644264709 7.196273824233738 6.351462924315234 3.5845634107040634 2.6019971556716603 1.4709996384212 7.703528278911736 5.955943959528155 7.547866322639071 8.740867041407798 6.860546319254104 1.4992737788494412 9.791072185971618 8.18074345314228 9.497378406871201 1.4056788243367013 6.2916608311341795 7.018494450852858 8.262854364156524 10.572678313153956 3.606702094559497 8.555218971555727 7.836998384460919 9.960663861673014 9.42609227019165 6.260579480072972 7.451846958943316 1.7640660484786443 4.52660587890983 3.040974718401658 10.131648509317284 2.043766307908673 1.292550362502909 3.1523061400954075 3.3987345735006276 5.550918758733988 6.6952505264910345 6.532655610624832 8.275773913092332 2.551584331387986 1.5471452268403925 2.236932172902814 3.0174430626033515 1.1887261025776201 6.080556464860443 7.309359752573091 2.032133397179641 9.326159825007517 6.703151123083054 7.02066365906924 9.759055098032757 0.9159715627894599 9.042748518187697 7.350840543024602 0.3370609300302923 1.0150246279760682 10.606651941837006 6.378429159789479 4.508667377630236 2.192218836873949 0.20160663696553566 10.271477372285078 5.372458849442087 8.985487801299366 3.2908483648564264 0.9317100190692038 5.049108591344164 0.3291816001854911 5.3502031984769465 0.8161741614501714 8.217619992820783 9.759150798395243 1.8603299797674235 3.4084853771007393 7.664737731983483 10.074642993395585 8.948834562466667 1.671853432535168 7.969139318308887 2.364458222604165 5.203388209047566 1.21892488362922 4.91947713366809 2.7755019128614324 2.0568666241958455 4.835622349381852 3.8672516481184225 4.009940888587232 5.901926421590787 2.2767647904448185 5.861955570191855 7.555362851033922 4.230285656527813 5.292517146644225 1.661517793386522 8.510909703724032 9.09403327910737 2.055675686351557 7.500281975735581 9.695361190110544 4.4098727034223435 8.440538037174916 2.7637839351435227 8.1815303227894 9.092736007526984 5.1321233391152346 1.2447427147536159 4.04658349404632 5.742840519015792 4.0567064657227725 5.08401795690487 9.828905729274995 6.170291504752855 9.897873790507628 4.569883709501384 8.80758082743517 7.131250744610311 5.488809223479623 8.281313900742996 8.513004478325145 6.418112910100947 9.979538099830265 6.6133841830698135 2.2140066194002617 9.71059881449327 6.802722033564456 5.588741668663755 4.320988333418709 1.4181943050753394 6.847499169834979 9.34721390475476 3.5465491000493206 8.028898877995504 4.654631697170838 10.160741419513473 8.11359369879691 9.338866706471132 1.538829928677593 1.4840148877194954 6.788016077862215 8.658554096294969 6.688041099183645 3.14957336307771 1.4534439385915556 5.650883104038949 2.849138025108731 10.159731249020549 2.488815526969819 0.046918697715520714 10.631119334512968 10.098897718599352 4.171536267334119 5.187002180314991 6.6218164483423205 9.590548026439551 4.815408306149777 2.9534088867256285 0.8337894081720305 10.017116442167008 4.1803832341774045 5.043355936221308 0.037241264393316154 9.310890300503962 1.008758380907861 5.494891513184382 0.6795661473487603 2.2469169107223395