0.015122457463735245 -0.23070354400028656 -0.7783397756034337 -0.09419853496129582 0.5681808885237183 0.2737106436894318 -0.11556260245936872 0.06362991814581945 -0.423059084349994 -0.2093335629649427 0.28094315688212906 0.4476272606076614 -0.07452033980607811 -0.2345252317392219 -0.11254772689244487 1.4770059493346241 1.496764877129106 0.02097094582471227 0.7930032911528794 -1.1058055015271342 -0.45369763517145734 -1.244649957332579 -0.33462239157313983 -0.12895959259156503 -0.002857524053453143 -0.6229685257875595 -0.015927726973849986 0.05453541204371898 -0.2834636093111376 -0.7657573109527328 -1.6854686796588392 -1.0478145268346468 1.4290489618393711 0.05698644468737283 0.5277587759529299 -0.27233484638782773 1.0266252943515417 -1.2599089403741786 0.24309369013452328 0.05912020320092398 0.07602674914827552 -0.6889216927499167 -0.6154701605279852 -0.49762596112329144 0.721875264857802 0.33256987991948533 0.9176668274722517 -1.7817292393554862 -1.6354805206661704 -1.5225671829041907 -1.4745459178299056 -0.6784609024279089 -0.8975232626448413 0.7449594003707751 -0.664850767843642 -1.6349665571442291 1.790112835433491 1.0256716721890207 0.49941004960690766 0.5802763862356717 0.2260789007440816 0.09394528129990917 -0.34284735058609345 1.0245236746275066 -0.17441978180689316 0.21997201651539536 -0.22017924743019499 1.6100553957248465 -0.2517845330403019 1.4250580955124232 2.0357228642319654 0.7489636364341618 1.0455738104295864 -0.9197357941861387 1.7113753722222722 0.4034145706461891 0.18683178231800082 0.18790238967436024 -0.3381059792463661 0.5197647020038596 0.3076962566062572 0.478046496329467 -1.2258464514728307 -0.14767439539224889 0.14211901279165848 -0.9791974398868815 0.5354967680271359 -0.4476198044084936 -0.08001170193795253 0.3004616865310309 0.48883098853948076 0.5057552750986452 -0.8640397861754152 -0.1811686704949525 -0.5332624793799783 -0.027205356770198308 -0.028521761588776687 0.12510833716627487 -0.008015414105308778 0.2802643856475496 -0.44377651940300344 -0.0902734888752768 -0.14873960343196965 0.5014491915241235 0.07130646085447075 -0.8897683012897708 1.191895805558999 -0.38503529680805304 0.06633883243655027 -0.3629546628589297 -0.9144583478372831 -0.1200013549570127 -0.1792208027399623 0.14250622092774812 0.3503398023083966 0.45523875440633216 -0.6854399048489035 0.3203013469647774 -0.335410434692074 -0.2866006122782226 -0.12996026594193746 0.12177310214545481 0.7030401344291698 -0.15496450129575895 -0.7194021207269611 0.6415174924343403 -0.3144909109305874 0.3985202186683653 -0.3778310657501299 -0.28269742056907443 0.056936822396360005 0.12643502639749837 0.7916210660933721 -0.5439397565881664 -0.5461892147439754 -0.39163686128497066 -1.3653923042206744 -1.0850279026601506 -0.4746811794016599 -0.06131541108002988 -0.21356611298905157 0.2553750786050376 0.8462464667477361 0.3432456144657766 -0.08868788955571177 0.7514812606496928 -0.23850247121941504 -0.2527936910311066 -0.4347671168155416 0.25638963591248104 0.1840670750886701 1.0091420499651136 -0.2779727613998955 1.1105286180344163 -0.08628390809990946 0.3331303804086456 -0.9191323562741848 0.9527593003000108 -0.9342213893968234 0.8913960667011809 0.2517063715041988 -0.3546692829216859 0.47501053771662066 0.3925202923311885 -0.041316856470915944 -0.8601623054978798 0.286499567923984 1.0391596793731266 -0.15542318609973232 -1.0848574385205576 1.2567264288811388 -1.7864562125175103 0.4199462497526252 -0.7137819463267062 -0.48493988101519053 0.6700297409414203 0.19016496045629186 1.312314193448772 1.1560805956326023 -1.9546912056699306 0.0549555303002731 0.18727349784110972 0.5224810724937583 0.2236281252107439 -0.007992274176857203 1.2628417977502573 -0.6449727979727925 0.5045789954023567 0.10027019507667247 -0.05446959180279006 -0.45136127372879686 0.3842076587004351
0.9065504058441161 1.6041673123751856 0.23445581195386717 0.5801324044586396 0.15408261291143788 -0.2748609552437911 0.2550614040193607 -1.8597799609123262 -0.30188530635143496 0.13227760122120444 0.0650720499089847 -0.6108658289867545 -0.28958900548258515 -0.3879997787530156 -0.4760960574713155 2.092374551287738 -1.9260095214645219 0.19057325163830408 -0.0012585549974494454 -0.7798464420559473 -0.03436716462596017 -2.1844403561767476 2.0788585190791746 -0.27253873486851776 0.2893218678641275 0.3587804768765821 0.2539874542288916 -0.07271182584242962 0.4735948883160167 0.2703029035594635 -0.8094596369366898 -1.0204765011413264 -0.022280408664755176 0.6087994333760289 0.01562459391113438 0.9191863494405716 0.2279370369987429 0.0730362990613839 -0.5396151610708835 -1.7657017535789785 -0.013241952611570742 1.0758218106808504 0.9793321656925327 -0.5007133417993634 0.3834144733751784 -1.2944311425207642 1.5162615524011371 0.3276498169100486 0.17755601344302968 0.479068252725762 0.0209999992904348 0.44500679226567874 -1.1990265030665093 0.5342220150797702 0.07201711376825017 0.2474853914443157 -0.7357088283067845 -0.1851363968934489 0.6165659646953252 0.1586414359267139 -0.6040855728401274 -0.015581913598657036 0.046906177633235346 -0.1357868999260436 -0.4959984528221974 0.03907202630079722 0.4426971702958956 -1.0469334097812744 0.11394846389471343 -0.2500025014392146 -0.6046864396489199 0.09890493929802967 0.12110795775763014 -0.5742381504613916 -0.2576042250458725 0.605302475966364 -0.4091298758634115 0.8256987245033716 -0.25239182760699763 -0.2772058013268839 0.4555352026008284 -0.9743601663992381 0.3699570623186919 -0.06685690972354938 1.1322310427085145 -0.8943482073509694 0.24974667667466666 -1.1517791400437711 -0.5124067189768917 1.0875375564558818 -0.8620224986350703 0.8696131664981347 -0.9763687121888347 -0.38339339032925585 0.40586200374541714 -0.5679440899225638 -0.38752412466817776 -0.2794740285357703 0.14929239061164612 0.4692332689132112 0.6513807583816652 0.7130856915906301 0.2971699031536366 0.27584105976887335 -0.273345032819897 -0.7991561981281526 -0.12918636389039043 0.9123672696362094 0.10606211916810121 -0.3181925281518907 0.24962197817134432 -0.9543767812987758 -0.7307959643861995 -0.38540425011169754 -0.6737316152730397 -0.3193366690586629 -0.21340927569621312 0.21951487437331874 0.6168351591963118 0.5142625412387078 -0.4381002949538326 -0.3999106712579887 -0.951099910319717 2.5341489526590486 0.2207286921757618 -1.3583143143279703 0.006438813646808266 0.059082150874136964 0.19058122205810404 -0.23862305595767938 0.65683689640023 0.11572098241410392 -0.38198365446592275 0.5535893638627886 0.24128980415656506 0.7229227322857098 0.9708503534737667 -0.7065658881942413 0.0054939332350356996 -0.7530941136627676 -0.9622440998619946 0.4335720680661759 0.17595755860765824 0.08576865902638776 -0.149384178994504 -1.0591268665236726 0.2158641649946089 0.2690664600492011 -0.20346604844057214 0.24982843775519553 0.46203726538540424 -0.39494227150911987 -0.5385538096859047 0.2638658896848681 -0.3117380307757986 -0.1954148960013215 0.37828692234062594 0.13414190812345286 0.6964511683577425 -0.37479844957139324 0.02075882981390618 -0.8413063491336413 0.5703886948083144 -0.037215946928664936 -0.19195316270496618 -0.4131773064599078 -1.1218478997019776 0.30563937407722847 -0.11588938967116816 0.9129192854849375 -0.4905654547320841 -0.6616168342873766 0.9298859952462631 1.2166285324189885 -0.3740911390917235 0.7891399515427312 0.39856418453242326 0.24592267494288614 -0.23233156652201278 -0.7540793603941722 1.9868616197548878 -0.03897329593940385 -0.1941864229108591 0.35952146880766467 0.8022075833599668 0.4487343776289111 -0.6284737718765048 1.286994483737061 -0.6749125229550182 -0.5907351196751504 0.4620750606018752 -0.12195822157306739
-1.073179745072313 -0.5750601321420548 0.5834825518777952 0.41032132506835145 -1.9352585508666158 0.11060448712314501 -0.16592228585884328 -0.34649266064816453 0.8325918520787791 0.11337716477227572 0.05543067016447873 0.7993983960459459 -0.7290604697523314 0.6678512452328627 -1.3581158251639192 -0.42510002603942276 1.1986398091510517 0.08743062010984297 0.04638501502244269 -0.15770272616252842 0.283662355585505 -0.6255483706995937 1.9494628673914554 0.4482381547187829 0.7103919468085508 -0.24858530937671383 0.457490012334354 1.2849656262324902 -0.3222638700077869 0.2728878906778203 0.4170280476645657 0.03293763126828521 -0.21915337726884193 -0.35694882298448205 -0.4915787264879469 0.8251767905616305 -0.16315655018824804 0.7154979005765484 0.695416556445641 0.31442637624123915 -0.20999716469087062 -0.6719444414656299 0.2227009854107842 -0.6070618818596318 -0.2948499967712083 -0.3710227845790449 -0.1303909257214529 0.3749773983514187 0.6142769115508324 0.3288366381292982 -0.2046248446353637 0.30626363792478867 0.4764776091804504 -1.552029968249998 -0.53098242509655 -0.17290437360363126 -0.35187629355758104 -0.2753870029505902 0.5108126350168944 -0.17488643703066653 0.7376063024398136 0.4501256015494829 0.0730517256803516 0.5746816657567134 0.7813165988435705 -0.8192388278106407 -0.4353484432403083 -0.028587581829705604 0.5058234093324192 0.4095366243835269 0.17938663889386525 0.48819052674200436 -0.2731365163535167 0.4361349436973457 -0.7144499189280082 -0.25932352172982437 0.42840723603578473 0.21954367072872513 0.55232875198281 -1.7295831534795503 0.23681968420035343 -0.375453823767205 -1.253758861612383 -0.8231397055269437 -1.2101195276558774 0.20501282410240176 0.42402401936642453 0.417212652871546 1.3362799602357502 -0.05247235886710318 -0.45837678581468155 -1.1872413375061233 -0.6734899315758789 0.40184696904875306 -0.060665179090540686 -1.2738849429382963 1.3277444119609132 -1.5946717141799247 -1.7799677765796895 0.4200323817085282 0.8786585645298544 0.9596603982952182 -0.41460169761126014 0.24514465912628106 0.3880913100255574 -0.3036434266931222 1.4256864731250414 0.7208686779701584 -0.6912930211955707 -0.5106411424360366 -0.6431776537455826 -0.3805746899335381 0.045269927581393005 -0.3871873101540493 -1.1511723596977077 0.4053215578609149 -0.6271090303184942 0.5523961148856358 -0.23372536154574586 -0.5476290325142956 0.2978095936201645 -0.6523287241172313 -0.6216369514603294 -0.8759239392075108 -0.9186641583885147 2.297411543759856 0.21198154211075104 -0.29712233774515284 0.5197009386454597 1.262208792151949 -0.2806317962892973 3.228826831166452 -0.1492455965341107 -0.28038059951043964 -0.2763869049700144 0.969199191023589 -1.0137162995993574 0.8617805578275932 0.7448714686426591 0.7684276586960443 -0.41113610766016284 0.4171303775703848 0.9178146659040258 0.33570688288657025 0.0921712201186219 1.443800666227249 -1.1024437841437529 -0.31212601024283665 -0.25252475364043603 0.4156417088400003 -0.9325599425340004 0.7967367900533827 0.1023605019467979 0.27704999247531 -0.20090137303718952 -0.7740416624487121 -0.2589687094935669 -0.4210569663183007 -0.6147219695080509 -1.0092186688393199 0.7224504206349817 0.5187560582336873 0.4216539764723513 1.0771258742042547 -1.2099315800147872 0.15926107178858379 -1.4655617120534243 0.39767021196324415 -1.4745117221578605 1.2334219498272434 -1.8715170468435962 0.15254509322098891 -1.0156662242368766 0.9328599902729223 -0.23439230570578343 -0.35920573733945876 -0.031721499472996975 0.3030813835420651 0.1550182373518298 -0.41823029550278296 0.0486522137900646 0.3648696204934555 -0.4945270104829935 0.5625563432480892 -0.7288830636342027 0.9626819587303614 -0.14750161725981048 -0.0054221994568358235 -0.01902436362130272 0.3101061515993304 -0.544120762250721 0.6537199480378031
0.1269019387315879 -0.611641016589882 -0.3877992327064353 1.2236964950093634 0.08305691652217953 -1.362961840402311 0.06645581763038877 0.02984176595178086 -0.992301067148375 0.4618176931754305 -0.5514381218477407 1.1532567530305624 -0.06781104610670256 -0.3132891773130024 -0.33741126717218667 -0.47645626902421173 1.2604974658877968 0.257441217105447 -0.899156170262574 1.4373957911421695 0.14156853960482715 0.6833341713598102 -0.5106683961295463 1.174368595308513 1.2019287643149688 -0.34691072202218964 1.470561736371177 -0.1780838609220417 0.4373880993781564 0.48680418791743896 -0.1800942064838511 1.2776456955323092 -1.4793261128273685 -0.006149564541163602 0.9825532437329917 0.3743479922975359 0.2824192272070233 -0.48051526958493374 -0.3762449522099327 0.42489459489683595 -0.40760058370307867 1.199373859103599 0.5701822352244632 -0.21289634061553658 0.03761112548455458 0.26726026007839776 0.7478567765232281 0.6236249284246357 -0.5279577793376133 -0.12132830129855234 -0.6573847984839001 0.16504708234274154 0.7960379642141452 -0.046686091202629273 -0.484582754786088 -0.11000876252067505 -0.11833090923312523 -1.4881935905203272 0.5003536444670996 -1.3467039837825519 0.8332212581326619 -2.0491581638012644 1.1211971534918561 -0.9480706365750897 -0.39314918416443906 0.005071758095952555 -0.9006461245445392 -0.5684035460574856 -0.6720940796696168 0.6236318704031711 0.6933522177174446 0.11338899184681762 0.8039960427189573 -0.0678167025336574 0.0013611420135847525 0.005309328028055373 -0.23732542019217834 -0.9648560835635448 -0.33102233292670735 -0.35911549161849765 0.001620823432874628 -0.948336745752283 -0.15762662150895435 1.9230316697831205 -0.6012200783668743 -0.19200278499597898 0.22229860776604296 -0.756564074489239 -1.0412849532462454 -0.02811784128213867 0.1907923096276456 -0.6473263858066335 2.177890727983688 0.32923721600182654 -0.38635992915674755 0.526041536151507 0.2696794110428517 -0.10365813771229891 0.1597107577314927 0.1223163762434345 -0.17186281971299436 0.08964176882854884 -0.24216089390760873 -0.04681027548531938 0.07342170742526065 -0.09947546708951902 -0.4211947774477456 -0.5777772739629017 -0.6445490801718126 -0.21373863401117382 -0.28290696547671923 0.22323808886117683 -0.19475875047456134 -0.00650180567425977 -0.9782872693677862 0.47840285122762133 0.7939144901132392 -0.3131027723338091 -0.189201568101758 -0.4773289014371522 -1.1071879836969576 0.18156564882305506 -0.6572217905434745 -0.24346341476911623 0.1462644024185997 -0.08732366221833347 -0.17031321583768733 -0.05116263891674415 -0.21426725282113418 -0.062267747690970175 -0.11719422452552074 0.41484158153620815 0.7907916282135413 0.913977808656439 0.25687197486553826 -0.1168358127448375 0.21352677511068388 1.091988907359016 0.9573852291077964 -0.5199122833253175 -0.5353676986484392 0.6694090766382859 0.32157275747803327 -0.49813915331428404 -1.5309420372314473 -0.5604922616302088 -0.04901062557074785 0.17970108481049052 -1.4239633197863475 1.2264822852846167 -0.162608648104578 -0.45146308941398383 -0.6712373880962762 0.4354721133023662 1.2420104628272028 -0.2941771390738998 0.3477800120010204 0.37866616005691556 -0.13650912280404875 0.32139098048453035 1.2851281199522835 -0.008432447038069349 0.029108487330182127 0.5301149348899322 -0.7640904647732712 -0.4496478905821159 0.725490493012886 -1.890901364907479 0.5344446726135377 -0.557131315577776 -0.7318735137210944 1.052612976664555 0.22162549295841832 0.12069349592803083 -0.49839446385819974 0.5629952305577207 0.5704614570277788 -0.5563119050002743 0.4758785421438707 -1.1720360905205944 0.4575175231381798 -1.1110050434502028 -0.07144247221170277 0.6688981984401383 0.20526633487410456 -0.46066481051790986 0.7156184853148128 -0.39766429842597323 0.4822520497703824 -0.0655970691745193 0.16861320242744512 0.0662868961526923
1.0287587957547766 0.7283073936363907 -0.7399709460172482 0.8274295911515491 -0.79717130648764 0.7515663641643313 0.3931874936015422 -1.4094694970455468 0.6137632051392076 -0.28239840127141685 -0.6756640564090622 0.03724602883565198 -0.5130284117212907 0.13014718514176296 -0.13977828047362378 -0.4723224493614962 -0.014438801133149328 -0.1776380316338747 -1.3957539472316671 -1.0294866750597367 -1.0404298043348017 -0.5744631219880043 1.3600202412754834 0.21808534101564378 0.6186555002345022 -0.21932538407033195 0.11384639109921038 0.28489802776481904 0.9466174490683309 0.6578540248108348 -0.14330172024584997 -0.055958774753806846 -0.3555563135123296 0.6380681004331591 0.2105383819063213 -0.07110977146263237 0.023221432421785815 -0.061925790970519146 0.019817034725927163 0.07854360203285828 -0.1454313649943431 0.3501202300984228 0.8784289650175517 0.14627442972092874 -0.37709675868726666 -0.46819042947099365 -0.0801392286547523 -0.886523826210544 -0.4760472065112511 0.4551155985649065 -0.016742766675977613 -0.24173383367251913 0.5912190012901044 0.8386997647487298 -0.6206781870914858 1.3494990300291854 -0.3856053103789101 0.21126343299780387 -0.34835259667503876 -0.6371633292307026 -0.1791539540577689 0.7644586467459673 -0.04330509054553832 0.08878379170362774 0.09708742647331667 0.9266376635122944 0.18357033795790967 -0.07049707757929793 -0.1284703116599723 0.2074934244324104 -0.37864070613561884 0.11421817261633233 0.11116293072977629 -0.33679240264126514 0.4127983258539343 0.1323115397829334 0.2945239808903573 -0.08440186058584818 1.1643888583879818 -0.027902897057855175 0.8800937543144843 -0.4028167891611901 -1.3617097131627645 0.06329387496263938 0.12749894888563848 -0.14567279158118782 0.6030864421516516 0.10784415076918845 0.274132818828515 0.935468631540363 0.24343230442086466 -1.1200445279446516 0.04179868120334092 -0.11518542162560806 0.7062720111029062 0.40997011237651976 0.3935281647704126 1.0668468608757498 0.648688813371799 0.21139558770029399 -0.7869848528729414 0.06964552821228005 0.4795318226257418 -0.2340691180384098 -0.5535572250732725 0.2061518228028514 1.3478836059129495 -0.08905015799113696 -0.15542498587194523 0.07449797120857492 -0.39778025517854715 0.13476925729480663 1.0453341836149543 0.2585848437915869 -0.9681488953822036 -0.3606108452171015 -0.11817638593313196 -0.14427282590986767 -0.13738175521698917 0.3268296350015984 -0.20729313549614622 0.6538752426687449 -0.47554378451227125 -0.4995110939611462 1.092576661541686 0.6156334255787268 -0.5090583713299491 -0.8491045050218214 -0.050389508196145474 -1.38101946923497 0.21838667430614647 -0.6140030890641555 0.1648326523390903 -0.06405543571901227 0.012820291693119856 -0.19695807211872532 0.18036854319116033 -0.04909701463696706 0.7750443926816136 -0.1441111035210228 -0.0723349021189851 0.13423035407220107 -0.05825759809031258 0.46449652555917414 -0.6246456563796662 -0.2191577481442161 -0.0258293023582781 -0.3502973791062354 -1.5288589294501733 2.536149528028845 0.42621357081857564 -0.5096895771560448 -0.1006129231280719 0.37653574397747414 -1.444848904986105 -0.08159241616151108 -0.9989255144434281 -0.7732752165963328 -0.6467242334462604 0.3303474183468698 -1.1547724183441404 -0.11341547420937886 -0.0950894222066814 -1.4429935969449215 -0.08590929836931012 0.48144780870153214 -0.12866982926528808 -0.03628469336364719 0.9879294204432405 0.40093577008839343 -1.3676505041272318 -0.5217565356229079 1.2061152915924906 -1.210041109009458 -0.11042399568122273 0.5421957773138661 -0.9252428400472968 -0.374296056013678 -0.5060936322746703 -0.549979277914027 -0.7128365516943013 0.5875508084098977 -0.32211217492127103 0.8148535542587515 0.291312158821279 0.47547462183723266 0.12080148226080485 0.4496543183400192 -0.1022399172085336 0.3484767809577289 1.4098106824350494 -0.32532836786572356
0.011292799304999906 -0.5756697407015956 -0.5780392693750367 -0.1719157844381168 0.4979416925914973 -0.12198341838404797 -0.38132056696062716 0.552304583613094 0.5188686725521515 -0.17160056719054317 0.3717900017623726 0.40583989225823003 0.4144677431365571 1.1004198117351889 0.791438774879237 -0.24308880503851685 -0.6292013940711486 0.42123925753243585 -0.46816883220443883 0.9080545011934683 0.42072143735575285 -0.9809640448690009 0.43380141046816256 -0.15731140426138068 -0.0035506934657358203 -0.140964330361925 0.24779109561019258 -0.6823039303230829 -1.2935353701793721 -0.7944173978915866 0.16962081775635304 0.29132192901329185 -0.3548999108752533 0.1091862666193797 -0.17787868688977107 0.0382263904710503 0.0035249824341229614 -0.4374878581808143 -0.47012107083480326 0.9532071864707068 -0.3592468749900394 -0.769932525376345 -0.33492423908427477 -0.5213479873305795 0.3804301939358738 -0.29383158280902294 -0.6987217095594741 -1.8701237660404952 -0.508506355481221 0.060849270076888756 0.23277225360385717 -0.18201096389058977 -0.16820928212080707 0.3778377506183493 0.44840527642426653 0.4423310452057285 0.657686388884719 0.5223568882110681 -0.4134362165482493 0.1791819790822269 0.9758336656209708 0.008400565358869403 -0.20518225980073052 0.34213078413504305 0.0030956082061882172 0.8021528188626315 -1.38372246998843 -1.3545594752712284 -1.4655676255906953 -0.22925678425143098 1.0538645896834689 -0.18379042438851573 -0.7621307699437391 0.13367268179651817 -0.27077572943082395 0.3185064598478837 0.2206541301840845 -0.17314682863174052 0.5361770819236121 -0.992303124030904 -0.020816679635035116 -0.5187272618782808 1.04375321228108 -0.18857396182008812 -0.22004015074916944 0.5828032664225834 0.0022247755654606844 -0.41617932651102524 1.1820214838680803 -0.1517184835546355 0.30208508106706683 -0.10908085138976699 0.7986489194744311 0.6371975249027477 -0.28273290179270016 0.43929611503414673 -0.5837054665218786 0.1373403604560925 1.0015040738038816 0.3728562382433579 0.46876532813785715 0.5666235713389274 1.5444387861663016 0.12236754119634408 -0.02125942359940855 0.5861984081470614 0.5934093240732038 -1.4569608577582907 0.005629944592267723 0.6974433570676827 0.17710452772790788 -0.3817293723632716 -0.6862839980167535 0.509030089195175 -0.12211917263096386 0.03153175205969408 0.12807796131756008 0.8842957082109738 -0.8463613950590456 0.03623147152820857 -0.5574195362421561 -0.02163274777842726 -0.833043852014533 0.772906006182372 0.0683563770872113 -0.7598879966561494 2.0061757467024672 -0.2863864393848874 0.6707406509655157 -0.42460071780550096 -0.9008991210956097 -0.4817221454088414 -0.0869739921883986 -0.2519616820481144 -0.19142402967437355 0.9190063722192817 -0.6045031199935202 0.8301593313778864 0.1018694212429923 1.0245056769053775 0.24499733491513934 -0.8241378077741549 -0.4331100408280928 -0.2879488987760009 0.3007743326754433 0.2053918047083753 0.6096545822874726 -0.49727577687272423 0.41944591307743895 -0.3329820277562394 -0.8736354002836502 0.5014273371472525 -0.5281768373269549 -0.6689725033214995 -0.6944907021972619 -1.9994250582421953 0.07456533411140061 0.35846963050438263 -0.23049631308548688 -0.07356723186418944 0.1299890622973439 0.7723329072877215 0.5189499194120483 -0.6503448609179832 0.7299408154747559 -0.25292635995422896 -0.08637466804150286 1.8243910398900707 -0.16917396002692156 0.3809552132014084 -0.008474098909282178 -0.38797535327298344 -0.33668261653627823 -1.6664965094317106 -0.8011346620107622 -0.18244188078042128 1.0385942937879598 0.08657881363250897 0.39283191003433643 0.3968235476922327 0.936418139937826 -0.9773457313901233 -0.3023897567916792 -0.2829943829842029 -0.002655435344976072 -0.3315761485476483 0.2815892751065602 -0.2735496926315354 0.049664714214978985 -0.19565992213259206 0.9700893069380261 0.9084360529026033
-1.876321667321091 -1.633937858769399 -0.039400870395125694 0.44544465113404574 0.3467716253411641 -0.004796392947378836 0.8253282285378303 -0.14514802942596938 -0.19237302385120417 1.5478475547375343 0.42866408924159727 0.5034487384526556 0.30600704182929234 -0.7126133799399018 0.3972076705045288 0.014812382422484168 0.30476365634049446 0.2565583002798613 -0.40028733787111703 -0.35229435493160616 0.07094290686746492 0.6038557162175084 0.50963609821029 0.3772749361363438 0.10474340035667767 0.2417929690452287 0.4508604228329784 0.4816419269902092 -0.5407932405393847 0.8475474449473468 -0.30100444640837837 0.4785159797667177 0.033644427527322704 0.09446927212417923 -0.6334432000666381 0.23518497681040784 0.178444329585254 -0.0003946643352573848 0.3581947795764412 -0.37799587346276836 0.14407150853233897 0.22802188340306537 0.3231820109466821 -0.17416138593918393 -0.6232474904805589 0.15805033930993426 0.4346953830373416 0.3263215850169284 -0.10722631467953146 0.7718762793662771 -0.5464260133451299 0.25367018009878894 -0.18022636118634122 -1.012877605748146 -0.33135477656546164 -0.5830218101912926 0.20512800952402735 -0.13341505725975733 -0.16445187196090386 0.005232452043532924 0.6282840244632019 0.4858479946517568 0.0024415195619570855 0.11303932181688274 -0.3256746954615488 0.5416951835283639 0.16021649372331762 0.20386791186468117 0.16420813138121396 -1.1119494096413431 -0.43606063881598445 -0.4076527770972527 -0.3245770915219958 -0.16721092276327976 -0.9512603471569812 0.2809917507318774 -0.419930051802709 -0.28148900208327005 0.3348319364807847 0.02519963919407918 0.13819859469132975 0.42276957813403315 0.9580920253668338 0.45719022170574813 -0.6595087868054383 -0.17135939771401457 0.1426208921287415 -0.6951496759374995 0.7086729072349149 0.37490952122796073 1.309490607957048 1.701140067647509 1.2583752773384715 0.17414107422420977 0.4523323793928145 -0.23344356863926896 -0.41246022578822517 -0.013889099277266403 -0.09111372538838501 -0.08809113651197731 -0.2686931358701824 -0.9720788265642291 -0.06402561092234134 0.7989106577762499 0.14949705042328446 0.40044700337743294 0.241407560681352 0.6896665413357412 -0.1509890615877787 0.8653621045312645 0.31560625548195326 0.5280382548665615 -0.1753446076140077 -1.1220186209518868 -0.9671093983740956 -1.0468673324300295 -0.1789446662604402 -0.7676807532276908 -0.21780894742580553 -0.10566951171537284 -0.42400370765145046 -0.20270654456672832 0.1680861262793815 0.36693035967722615 -1.1523211285901702 -0.4264305719253882 -0.1457553239926651 -0.407537334565311 0.037229059554787496 1.0031639780048078 -1.0078698681209093 -0.03943403762590628 -0.8993783135757091 -0.07441569590741377 0.23743109253210723 0.4825713807830141 -0.2016966152449752 -0.5379578279731188 -0.6987363648474935 0.13874006901709654 -0.6702562551299295 0.09064655594397937 0.19355264598160213 -0.40134174727756045 -0.2677667674011711 1.175540247019111 -0.3089149595047067 0.7394253579264234 0.264665502768028 0.08785408080050676 -0.30515652090353895 0.4169557996657335 -0.2762439516342468 -0.5088485693119882 0.11400785637773914 0.6807926358848793 0.1712519256018728 -0.33966895285811183 0.02082387872388672 -0.41356451459599747 -0.2827676116853775 -0.32205663909298726 -0.34495565517834786 0.09494029822332681 -0.28060197149262645 0.43250146070981643 -0.03568254100327403 0.5305455946694475 0.06250840294686655 0.4007943594145226 0.046840871612938685 -0.25073860827429073 -0.47016709358139025 -0.4800781820475151 -0.3453644605809923 0.11953058596818124 -0.1688821398181156 0.5348956441080271 0.45594555066536957 -0.10681956615941604 0.26909731328713654 -0.02822942715933848 0.5250323781607023 -0.28444037140211015 0.07172657911102485 -0.12586449860600904 -0.5274039637166723 -0.6357587355736921 0.26042163989000955 0.3425200491536617 -0.345873796117243 -0.21736054703447727