An instance of this daemon is already running

     Program PWSCF v.7.1 starts on  9May2023 at 15:10:21 

     This program is part of the open-source Quantum ESPRESSO suite
     for quantum simulation of materials; please cite
         "P. Giannozzi et al., J. Phys.:Condens. Matter 21 395502 (2009);
         "P. Giannozzi et al., J. Phys.:Condens. Matter 29 465901 (2017);
         "P. Giannozzi et al., J. Chem. Phys. 152 154105 (2020);
          URL http://www.quantum-espresso.org", 
     in publications or presentations arising from this work. More details at
     http://www.quantum-espresso.org/quote

     Parallel version (MPI & OpenMP), running on       4 processor cores
     Number of MPI processes:                 4
     Threads/MPI process:                     1

     MPI processes distributed on     1 nodes
     7861 MiB available memory on the printing compute node when the environment starts
 
     Reading input from pw-si-18.in
Warning: card &CELL ignored
Warning: card / ignored

     Current dimensions of program PWSCF are:
     Max number of different atomic species (ntypx) = 10
     Max number of k-points (npk) =  40000
     Max angular momentum in pseudopotentials (lmaxx) =  4

     IMPORTANT: XC functional enforced from input :
     Exchange-correlation= PBE
                           (   1   4   3   4   0   0   0)
     Any further DFT definition will be discarded
     Please, verify this is what you really want


     gamma-point specific algorithms are used
 
     K-points division:     npool     =       2
     R & G space division:  proc/nbgrp/npool/nimage =       2
     Subspace diagonalization in iterative solution of the eigenvalue problem:
     a serial algorithm will be used

     Message from routine divide_et_impera:
     suboptimal parallelization: some nodes have no k-points
 
     Parallelization info
     --------------------
     sticks:   dense  smooth     PW     G-vecs:    dense   smooth      PW
     Min        1916    1916    502                89532    89532   12150
     Max        1917    1917    503                89537    89537   12153
     Sum        3833    3833   1005               179069   179069   24303
 
     Using Slab Decomposition
 


     bravais-lattice index     =            0
     lattice parameter (alat)  =      20.0565  a.u.
     unit-cell volume          =    8067.9723 (a.u.)^3
     number of atoms/cell      =           64
     number of atomic types    =            1
     number of electrons       =       256.00
     number of Kohn-Sham states=          128
     kinetic-energy cutoff     =      30.0000  Ry
     charge density cutoff     =     120.0000  Ry
     scf convergence threshold =      1.0E-06
     mixing beta               =       0.5000
     number of iterations used =            8  plain     mixing
     Exchange-correlation= PBE
                           (   1   4   3   4   0   0   0)

     GPU acceleration is ACTIVE.
     GPU-aware MPI enabled

     Message from routine print_cuda_info:
     High GPU oversubscription detected. Are you sure this is what you want?

     celldm(1)=  20.056484  celldm(2)=   0.000000  celldm(3)=   0.000000
     celldm(4)=   0.000000  celldm(5)=   0.000000  celldm(6)=   0.000000

     crystal axes: (cart. coord. in units of alat)
               a(1) = (   1.000000   0.000000   0.000000 )  
               a(2) = (   0.000000   1.000000   0.000000 )  
               a(3) = (   0.000000   0.000000   1.000000 )  

     reciprocal axes: (cart. coord. in units 2 pi/alat)
               b(1) = (  1.000000  0.000000  0.000000 )  
               b(2) = (  0.000000  1.000000  0.000000 )  
               b(3) = (  0.000000  0.000000  1.000000 )  


     PseudoPot. # 1 for Si read from file:
     /home/ppiaggi/pseudos/Si_ONCV_PBE_sr.upf
     MD5 check sum: 8553c464762ac42b85b1eed164b4d029
     Pseudo is Norm-conserving, Zval =  4.0
     Generated using ONCVPSP code by D. R. Hamann
     Using radial grid of 1510 points,  4 beta functions with: 
                l(1) =   0
                l(2) =   0
                l(3) =   1
                l(4) =   1

     atomic species   valence    mass     pseudopotential
        Si             4.00    28.08500     Si( 1.00)

     No symmetry found



   Cartesian axes

     site n.     atom                  positions (alat units)
         1           Si  tau(   1) = (   0.8898650   0.5690560   0.3414930  )
         2           Si  tau(   2) = (   0.2351230   0.6758740   0.0216657  )
         3           Si  tau(   3) = (   0.5836340   0.3817250   0.4693480  )
         4           Si  tau(   4) = (   0.5273310   0.8057830   0.3270000  )
         5           Si  tau(   5) = (   0.4884540   0.9462550   0.0311369  )
         6           Si  tau(   6) = (   0.8818070   0.2620250   0.1384920  )
         7           Si  tau(   7) = (   0.5873470   0.7521450   0.6407540  )
         8           Si  tau(   8) = (   0.7371250   0.9486210   0.8940200  )
         9           Si  tau(   9) = (   0.9624430   0.2303790   0.7652010  )
        10           Si  tau(  10) = (   0.3807620   0.2599610   0.7152080  )
        11           Si  tau(  11) = (   0.9560940   0.5173100   0.0220984  )
        12           Si  tau(  12) = (   0.9674990   0.9964000   0.6021180  )
        13           Si  tau(  13) = (   0.1614530   0.5500960   0.8161740  )
        14           Si  tau(  14) = (   0.0818746   0.0965858   0.8927110  )
        15           Si  tau(  15) = (   0.6096760   0.4238770   0.0448418  )
        16           Si  tau(  16) = (   0.7924220   0.6840650   0.5798230  )
        17           Si  tau(  17) = (   0.3883770   0.7150300   0.5002490  )
        18           Si  tau(  18) = (   0.1582820   0.4974620   0.5758030  )
        19           Si  tau(  19) = (   0.3691730   0.8211040   0.1658370  )
        20           Si  tau(  20) = (   0.7600460   0.9989290   0.3885720  )
        21           Si  tau(  21) = (   0.3915740   0.5002600   0.5390190  )
        22           Si  tau(  22) = (   0.2024720   0.8000310   0.6985290  )
        23           Si  tau(  23) = (   0.4382890   0.0453014   0.7968220  )
        24           Si  tau(  24) = (   0.6533680   0.1514410   0.1794580  )
        25           Si  tau(  25) = (   0.0659220   0.6756600   0.1378270  )
        26           Si  tau(  26) = (   0.9701760   0.1711310   0.4439750  )
        27           Si  tau(  27) = (   0.2672020   0.0841681   0.0338562  )
        28           Si  tau(  28) = (   0.4553760   0.2274620   0.0723727  )
        29           Si  tau(  29) = (   0.6371970   0.1817250   0.8869780  )
        30           Si  tau(  30) = (   0.8538190   0.8502770   0.7485520  )
        31           Si  tau(  31) = (   0.2658840   0.0242287   0.4442870  )
        32           Si  tau(  32) = (   0.9606810   0.3898200   0.5766820  )
        33           Si  tau(  33) = (   0.1881030   0.9578990   0.2514620  )
        34           Si  tau(  34) = (   0.6247240   0.9959400   0.6504780  )
        35           Si  tau(  35) = (   0.6361550   0.4996790   0.8317840  )
        36           Si  tau(  36) = (   0.4157880   0.5298990   0.0914127  )
        37           Si  tau(  37) = (   0.5802750   0.3256480   0.6757390  )
        38           Si  tau(  38) = (   0.3352580   0.2473580   0.2926400  )
        39           Si  tau(  39) = (   0.4111400   0.5583010   0.7813700  )
        40           Si  tau(  40) = (   0.7631400   0.7461260   0.0657010  )
        41           Si  tau(  41) = (   0.4865310   0.9875940   0.4605840  )
        42           Si  tau(  42) = (   0.6608250   0.9329600   0.1990880  )
        43           Si  tau(  43) = (   0.2353240   0.2563330   0.5428840  )
        44           Si  tau(  44) = (   0.7635560   0.1645040   0.6689860  )
        45           Si  tau(  45) = (   0.8686100   0.5417890   0.7444400  )
        46           Si  tau(  46) = (   0.9505580   0.7047080   0.8713310  )
        47           Si  tau(  47) = (   0.5661710   0.7115770   0.9777270  )
        48           Si  tau(  48) = (   0.7683920   0.5628810   0.1706340  )
        49           Si  tau(  49) = (   0.4296400   0.7833780   0.7864510  )
        50           Si  tau(  50) = (   0.3268310   0.4582500   0.3202450  )
        51           Si  tau(  51) = (   0.8199710   0.3480620   0.3372320  )
        52           Si  tau(  52) = (   0.8301980   0.3373300   0.9090980  )
        53           Si  tau(  53) = (   0.1188480   0.3134110   0.9950910  )
        54           Si  tau(  54) = (   0.5567920   0.5657670   0.2978650  )
        55           Si  tau(  55) = (   0.1224810   0.5818750   0.3377630  )
        56           Si  tau(  56) = (   0.3274980   0.3776930   0.9301350  )
        57           Si  tau(  57) = (   0.1823990   0.0301877   0.6605500  )
        58           Si  tau(  58) = (   0.9667500   0.8071530   0.4482330  )
        59           Si  tau(  59) = (   0.1256530   0.8684220   0.9166330  )
        60           Si  tau(  60) = (   0.5296800   0.1750640   0.3601520  )
        61           Si  tau(  61) = (   0.9758740   0.8652810   0.2017260  )
        62           Si  tau(  62) = (   0.1038850   0.1996150   0.2370810  )
        63           Si  tau(  63) = (   0.1868870   0.7727680   0.4405600  )
        64           Si  tau(  64) = (   0.8935450   0.0172735   0.0719152  )

     number of k points=     1
                       cart. coord. in units 2pi/alat
        k(    1) = (   0.0000000   0.0000000   0.0000000), wk =   2.0000000

     Dense  grid:    89535 G-vectors     FFT dimensions: (  72,  72,  72)

     Estimated max dynamical RAM per process >     132.05 MB

     Estimated total dynamical RAM >     506.33 MB

     Initial potential from superposition of free atoms

     starting charge     255.9608, renormalised to     256.0000
     Starting wfcs are  256 randomized atomic wfcs

     total cpu time spent up to now is        4.2 secs

     Self-consistent Calculation

     iteration #  1     ecut=    30.00 Ry     beta= 0.50
     Davidson diagonalization with overlap
     ethr =  1.00E-02,  avg # of iterations =  2.0

     Threshold (ethr) on eigenvalues was too large:
     Diagonalizing with lowered threshold

     Davidson diagonalization with overlap
     ethr =  4.03E-04,  avg # of iterations =  6.0

     total cpu time spent up to now is        4.3 secs

     total energy              =    -501.15279156 Ry
     estimated scf accuracy    <       1.29899877 Ry

     iteration #  2     ecut=    30.00 Ry     beta= 0.50
     Davidson diagonalization with overlap
     ethr =  5.07E-04,  avg # of iterations = 15.0

     total cpu time spent up to now is        4.5 secs

     total energy              =    -500.86264157 Ry
     estimated scf accuracy    <       3.44402423 Ry

     iteration #  3     ecut=    30.00 Ry     beta= 0.50
     Davidson diagonalization with overlap
     ethr =  5.07E-04,  avg # of iterations = 14.0

     total cpu time spent up to now is        4.6 secs

     total energy              =    -501.19529283 Ry
     estimated scf accuracy    <       2.26008058 Ry

     iteration #  4     ecut=    30.00 Ry     beta= 0.50
     Davidson diagonalization with overlap
     ethr =  5.07E-04,  avg # of iterations = 11.0

     total cpu time spent up to now is        4.7 secs

     total energy              =    -501.37933357 Ry
     estimated scf accuracy    <       0.30792220 Ry

     iteration #  5     ecut=    30.00 Ry     beta= 0.50
     Davidson diagonalization with overlap
     ethr =  1.20E-04,  avg # of iterations = 10.0

     total cpu time spent up to now is        4.8 secs

     total energy              =    -501.41925705 Ry
     estimated scf accuracy    <       0.09071545 Ry

     iteration #  6     ecut=    30.00 Ry     beta= 0.50
     Davidson diagonalization with overlap
     ethr =  3.54E-05,  avg # of iterations =  8.0

     total cpu time spent up to now is        4.9 secs

     total energy              =    -501.42462017 Ry
     estimated scf accuracy    <       0.13950473 Ry

     iteration #  7     ecut=    30.00 Ry     beta= 0.50
     Davidson diagonalization with overlap
     ethr =  3.54E-05,  avg # of iterations =  7.0

     total cpu time spent up to now is        5.0 secs

     total energy              =    -501.43463036 Ry
     estimated scf accuracy    <       0.01630514 Ry

     iteration #  8     ecut=    30.00 Ry     beta= 0.50
     Davidson diagonalization with overlap
     ethr =  6.37E-06,  avg # of iterations =  8.0

     total cpu time spent up to now is        5.2 secs

     total energy              =    -501.43657335 Ry
     estimated scf accuracy    <       0.01613221 Ry

     iteration #  9     ecut=    30.00 Ry     beta= 0.50
     Davidson diagonalization with overlap
     ethr =  6.30E-06,  avg # of iterations =  3.0

     total cpu time spent up to now is        5.2 secs

     total energy              =    -501.43739925 Ry
     estimated scf accuracy    <       0.00568352 Ry

     iteration # 10     ecut=    30.00 Ry     beta= 0.50
     Davidson diagonalization with overlap
     ethr =  2.22E-06,  avg # of iterations =  6.0

     total cpu time spent up to now is        5.3 secs

     total energy              =    -501.43768067 Ry
     estimated scf accuracy    <       0.00169653 Ry

     iteration # 11     ecut=    30.00 Ry     beta= 0.50
     Davidson diagonalization with overlap
     ethr =  6.63E-07,  avg # of iterations = 10.0

     total cpu time spent up to now is        5.4 secs

     total energy              =    -501.43793034 Ry
     estimated scf accuracy    <       0.00100811 Ry

     iteration # 12     ecut=    30.00 Ry     beta= 0.50
     Davidson diagonalization with overlap
     ethr =  3.94E-07,  avg # of iterations =  3.0

     total cpu time spent up to now is        5.5 secs

     total energy              =    -501.43789046 Ry
     estimated scf accuracy    <       0.00060677 Ry

     iteration # 13     ecut=    30.00 Ry     beta= 0.50
     Davidson diagonalization with overlap
     ethr =  2.37E-07,  avg # of iterations = 10.0

     total cpu time spent up to now is        5.6 secs

     total energy              =    -501.43797173 Ry
     estimated scf accuracy    <       0.00006036 Ry

     iteration # 14     ecut=    30.00 Ry     beta= 0.50
     Davidson diagonalization with overlap
     c_bands:  1 eigenvalues not converged
     ethr =  2.36E-08,  avg # of iterations = 20.0

     total cpu time spent up to now is        5.8 secs

     total energy              =    -501.43797968 Ry
     estimated scf accuracy    <       0.00013198 Ry

     iteration # 15     ecut=    30.00 Ry     beta= 0.50
     Davidson diagonalization with overlap
     ethr =  2.36E-08,  avg # of iterations =  3.0

     total cpu time spent up to now is        5.9 secs

     total energy              =    -501.43797502 Ry
     estimated scf accuracy    <       0.00006180 Ry

     iteration # 16     ecut=    30.00 Ry     beta= 0.50
     Davidson diagonalization with overlap
     ethr =  2.36E-08,  avg # of iterations = 11.0

     total cpu time spent up to now is        6.0 secs

     total energy              =    -501.43798071 Ry
     estimated scf accuracy    <       0.00000596 Ry

     iteration # 17     ecut=    30.00 Ry     beta= 0.50
     Davidson diagonalization with overlap
     ethr =  2.33E-09,  avg # of iterations = 13.0

     total cpu time spent up to now is        6.1 secs

     total energy              =    -501.43798211 Ry
     estimated scf accuracy    <       0.00003645 Ry

     iteration # 18     ecut=    30.00 Ry     beta= 0.50
     Davidson diagonalization with overlap
     ethr =  2.33E-09,  avg # of iterations = 18.0

     total cpu time spent up to now is        6.3 secs

     total energy              =    -501.43798262 Ry
     estimated scf accuracy    <       0.00002430 Ry

     iteration # 19     ecut=    30.00 Ry     beta= 0.50
     Davidson diagonalization with overlap
     ethr =  2.33E-09,  avg # of iterations =  9.0

     total cpu time spent up to now is        6.4 secs

     total energy              =    -501.43798259 Ry
     estimated scf accuracy    <       0.00000979 Ry

     iteration # 20     ecut=    30.00 Ry     beta= 0.50
     Davidson diagonalization with overlap
     ethr =  2.33E-09,  avg # of iterations =  3.0

     total cpu time spent up to now is        6.5 secs

     total energy              =    -501.43798236 Ry
     estimated scf accuracy    <       0.00000302 Ry

     iteration # 21     ecut=    30.00 Ry     beta= 0.50
     Davidson diagonalization with overlap
     ethr =  1.18E-09,  avg # of iterations = 12.0

     total cpu time spent up to now is        6.6 secs

     total energy              =    -501.43798323 Ry
     estimated scf accuracy    <       0.00000317 Ry

     iteration # 22     ecut=    30.00 Ry     beta= 0.50
     Davidson diagonalization with overlap
     ethr =  1.18E-09,  avg # of iterations =  1.0

     total cpu time spent up to now is        6.6 secs

     total energy              =    -501.43798293 Ry
     estimated scf accuracy    <       0.00000278 Ry

     iteration # 23     ecut=    30.00 Ry     beta= 0.50
     Davidson diagonalization with overlap
     ethr =  1.08E-09,  avg # of iterations =  3.0

     total cpu time spent up to now is        6.7 secs

     End of self-consistent calculation

          k = 0.0000 0.0000 0.0000 ( 11168 PWs)   bands (ev):

    -5.3442  -4.4193  -4.2869  -4.2819  -4.1701  -4.0081  -3.8447  -3.3628
    -3.2669  -3.1892  -3.1145  -3.0242  -2.9947  -2.8970  -2.8324  -2.7442
    -2.6490  -2.5541  -2.4639  -2.2510  -1.8819  -1.8421  -1.7269  -1.5076
    -1.4692  -1.2648  -1.2099  -0.8922  -0.8321  -0.7006  -0.4883  -0.4333
    -0.3187  -0.1580  -0.0513  -0.0035   0.0789   0.1794   0.3011   0.3164
     0.4642   0.5216   0.5560   0.6984   0.7722   0.8444   0.9661   1.0475
     1.0913   1.1415   1.2168   1.3194   1.4278   1.5434   1.7238   1.8163
     1.8349   1.9558   2.1259   2.1537   2.2040   2.3098   2.4522   2.5037
     2.6631   2.6651   2.7443   2.8472   2.9283   2.9680   3.0675   3.1204
     3.1350   3.2351   3.3095   3.3780   3.4852   3.5654   3.6352   3.8341
     3.8390   4.1777   4.3243   4.4347   4.4677   4.5698   4.6094   4.7069
     4.7874   4.8792   4.9537   4.9777   5.0684   5.1190   5.1282   5.2693
     5.3300   5.3772   5.4761   5.5053   5.5900   5.6150   5.6993   5.7132
     5.7584   5.8210   5.8850   5.9748   6.0388   6.1119   6.1264   6.2090
     6.2700   6.2971   6.3534   6.4373   6.5097   6.5513   6.6381   6.7366
     6.7791   6.8278   6.9090   7.0004   7.0676   7.1006   7.1929   7.2320

     highest occupied level (ev):     7.2320

!    total energy              =    -501.43798242 Ry
     estimated scf accuracy    <       0.00000068 Ry

     The total energy is the sum of the following terms:
     one-electron contribution =     189.28269983 Ry
     hartree contribution      =      24.40006813 Ry
     xc contribution           =    -151.34705606 Ry
     ewald contribution        =    -563.77369432 Ry

     convergence has been achieved in  23 iterations

     Forces acting on atoms (cartesian axes, Ry/au):

     atom    1 type  1   force =     0.02979786   -0.00520210    0.06134071
     atom    2 type  1   force =     0.07591868    0.03341856   -0.03106119
     atom    3 type  1   force =     0.01590098    0.00718675   -0.06833205
     atom    4 type  1   force =    -0.02406530   -0.01369400    0.00954443
     atom    5 type  1   force =     0.02670847    0.01859791   -0.05049305
     atom    6 type  1   force =    -0.00989830   -0.02602774   -0.02466341
     atom    7 type  1   force =     0.01597120    0.03633878   -0.03259764
     atom    8 type  1   force =    -0.02829624    0.04408102    0.07752708
     atom    9 type  1   force =    -0.00647146    0.01839344   -0.03577457
     atom   10 type  1   force =    -0.03756026   -0.02748273    0.02712716
     atom   11 type  1   force =    -0.01929330   -0.01568935   -0.01938931
     atom   12 type  1   force =    -0.00954110   -0.00554138   -0.02120503
     atom   13 type  1   force =     0.01074948    0.02473806    0.00176501
     atom   14 type  1   force =     0.00126748   -0.01974065    0.00326649
     atom   15 type  1   force =     0.02495041   -0.01578044    0.01228978
     atom   16 type  1   force =     0.01307777    0.00014403    0.00218029
     atom   17 type  1   force =     0.04877526   -0.00054676    0.01066587
     atom   18 type  1   force =    -0.00036772   -0.01216764   -0.00055670
     atom   19 type  1   force =    -0.04924484   -0.00164162   -0.00295616
     atom   20 type  1   force =     0.03793804    0.00676611    0.03752687
     atom   21 type  1   force =    -0.00600401   -0.00937580    0.04314414
     atom   22 type  1   force =     0.02386782   -0.01142731    0.01051416
     atom   23 type  1   force =     0.01157123   -0.00770727    0.01804865
     atom   24 type  1   force =     0.02668231    0.02225768   -0.03227140
     atom   25 type  1   force =    -0.03323716   -0.02354691    0.05091754
     atom   26 type  1   force =    -0.01517342    0.01743606   -0.01165596
     atom   27 type  1   force =     0.00825223    0.00536553    0.01468927
     atom   28 type  1   force =     0.01097957   -0.00211891   -0.01743450
     atom   29 type  1   force =     0.01726173   -0.01052478   -0.01480208
     atom   30 type  1   force =     0.00268345    0.00346840   -0.06933217
     atom   31 type  1   force =     0.01255697    0.01747122    0.01990582
     atom   32 type  1   force =     0.01479496   -0.04289634    0.02936042
     atom   33 type  1   force =    -0.00891168   -0.00641496   -0.04072149
     atom   34 type  1   force =    -0.05928296   -0.03878501   -0.02068513
     atom   35 type  1   force =     0.00996379   -0.01378297   -0.03341533
     atom   36 type  1   force =     0.00293394    0.02899875    0.01599860
     atom   37 type  1   force =     0.07199523    0.00592015    0.06565423
     atom   38 type  1   force =    -0.04662165   -0.02423969   -0.00543602
     atom   39 type  1   force =    -0.00831089   -0.02194798   -0.01589003
     atom   40 type  1   force =     0.01366294    0.08104741   -0.02569488
     atom   41 type  1   force =     0.01421305   -0.02263447    0.01775095
     atom   42 type  1   force =     0.01896439   -0.03959823   -0.04199883
     atom   43 type  1   force =    -0.00904858    0.00892563   -0.00505845
     atom   44 type  1   force =    -0.01025758    0.01050977    0.00841585
     atom   45 type  1   force =    -0.03874093   -0.01282786   -0.02502989
     atom   46 type  1   force =     0.03051520   -0.02376812    0.05842794
     atom   47 type  1   force =    -0.04096599   -0.00623934   -0.03105387
     atom   48 type  1   force =    -0.04323053   -0.05190231   -0.02838898
     atom   49 type  1   force =    -0.02126049    0.02646486    0.03077285
     atom   50 type  1   force =    -0.00109998    0.05003137   -0.02027466
     atom   51 type  1   force =    -0.00792609   -0.01029921    0.02184759
     atom   52 type  1   force =    -0.01485616    0.01913011    0.05062506
     atom   53 type  1   force =    -0.00623203   -0.00701389    0.01230118
     atom   54 type  1   force =    -0.00839909    0.00394702   -0.00853514
     atom   55 type  1   force =     0.02015522    0.00555000    0.02837410
     atom   56 type  1   force =    -0.00029125   -0.02036702   -0.01835991
     atom   57 type  1   force =    -0.00797159   -0.00906317    0.01889025
     atom   58 type  1   force =    -0.05732766    0.03464214   -0.00342425
     atom   59 type  1   force =     0.00071048   -0.02340533   -0.02453780
     atom   60 type  1   force =     0.01188398    0.04254265    0.02436860
     atom   61 type  1   force =     0.02027281   -0.01122632    0.05574846
     atom   62 type  1   force =     0.01393070   -0.01893129   -0.01320313
     atom   63 type  1   force =    -0.00563746    0.00196263   -0.00246418
     atom   64 type  1   force =    -0.02338195    0.03822290   -0.04229221

     Total force =     0.387894     Total SCF correction =     0.001720


     Computing stress (Cartesian axis) and pressure

          total   stress  (Ry/bohr**3)                   (kbar)     P=      -21.93
  -0.00015906  -0.00001599   0.00003796          -23.40       -2.35        5.58
  -0.00001599  -0.00017627  -0.00004446           -2.35      -25.93       -6.54
   0.00003796  -0.00004446  -0.00011200            5.58       -6.54      -16.48

 
     init_run     :      0.93s CPU      4.10s WALL (       1 calls)
     electrons    :      2.41s CPU      2.56s WALL (       1 calls)
     forces       :      0.03s CPU      0.03s WALL (       1 calls)
     stress       :      0.12s CPU      0.12s WALL (       1 calls)

     Called by init_run:
     wfcinit      :      0.43s CPU      3.45s WALL (       1 calls)
                                        3.45s GPU  (       1 calls)
     potinit      :      0.04s CPU      0.11s WALL (       1 calls)
     hinit0       :      0.45s CPU      0.48s WALL (       1 calls)

     Called by electrons:
     c_bands      :      1.72s CPU      1.80s WALL (      24 calls)
     sum_band     :      0.32s CPU      0.38s WALL (      24 calls)
     v_of_rho     :      0.15s CPU      0.24s WALL (      24 calls)
     mix_rho      :      0.18s CPU      0.19s WALL (      24 calls)

     Called by c_bands:
     init_us_2    :      0.06s CPU      0.07s WALL (      49 calls)
     init_us_2:gp :      0.06s CPU      0.06s WALL (      49 calls)
     regterg      :      1.56s CPU      1.62s WALL (      24 calls)

     Called by *egterg:
     rdiaghg      :      0.78s CPU      1.39s WALL (     229 calls)
                                        1.36s GPU  (     229 calls)
     h_psi        :      0.97s CPU      3.42s WALL (     231 calls)
                                        3.41s GPU  (     231 calls)
     g_psi        :      0.00s CPU      0.01s WALL (     206 calls)
                                        0.00s GPU  (     206 calls)

     Called by h_psi:
     h_psi:calbec :      0.43s CPU      2.81s WALL (     231 calls)
                                        2.81s GPU  (     231 calls)
     vloc_psi     :      0.42s CPU      0.48s WALL (     231 calls)
                                        0.48s GPU  (     231 calls)
     add_vuspsi   :      0.08s CPU      0.11s WALL (     231 calls)
                                        0.11s GPU  (     231 calls)

     General routines
     calbec       :      0.44s CPU      2.82s WALL (     236 calls)
     fft          :      0.56s CPU      0.67s WALL (     199 calls)
                                        0.11s GPU  (     126 calls)
     ffts         :      0.03s CPU      0.04s WALL (      24 calls)
     fftw         :      0.49s CPU      0.63s WALL (    2366 calls)
                                        0.55s GPU  (    2366 calls)
 
     Parallel routines
 
     PWSCF        :      3.53s CPU      6.88s WALL

 
   This run was terminated on:  15:10:28   9May2023            

=------------------------------------------------------------------------------=
   JOB DONE.
=------------------------------------------------------------------------------=
