An instance of this daemon is already running

     Program PWSCF v.7.1 starts on  9May2023 at 15:17:44 

     This program is part of the open-source Quantum ESPRESSO suite
     for quantum simulation of materials; please cite
         "P. Giannozzi et al., J. Phys.:Condens. Matter 21 395502 (2009);
         "P. Giannozzi et al., J. Phys.:Condens. Matter 29 465901 (2017);
         "P. Giannozzi et al., J. Chem. Phys. 152 154105 (2020);
          URL http://www.quantum-espresso.org", 
     in publications or presentations arising from this work. More details at
     http://www.quantum-espresso.org/quote

     Parallel version (MPI & OpenMP), running on       4 processor cores
     Number of MPI processes:                 4
     Threads/MPI process:                     1

     MPI processes distributed on     1 nodes
     10618 MiB available memory on the printing compute node when the environment starts
 
     Reading input from pw-si-53.in
Warning: card &CELL ignored
Warning: card / ignored

     Current dimensions of program PWSCF are:
     Max number of different atomic species (ntypx) = 10
     Max number of k-points (npk) =  40000
     Max angular momentum in pseudopotentials (lmaxx) =  4

     IMPORTANT: XC functional enforced from input :
     Exchange-correlation= PBE
                           (   1   4   3   4   0   0   0)
     Any further DFT definition will be discarded
     Please, verify this is what you really want


     gamma-point specific algorithms are used
 
     K-points division:     npool     =       2
     R & G space division:  proc/nbgrp/npool/nimage =       2
     Subspace diagonalization in iterative solution of the eigenvalue problem:
     a serial algorithm will be used

     Message from routine divide_et_impera:
     suboptimal parallelization: some nodes have no k-points
 
     Parallelization info
     --------------------
     sticks:   dense  smooth     PW     G-vecs:    dense   smooth      PW
     Min        1942    1942    516                90833    90833   12416
     Max        1943    1943    517                90834    90834   12421
     Sum        3885    3885   1033               181667   181667   24837
 
     Using Slab Decomposition
 


     bravais-lattice index     =            0
     lattice parameter (alat)  =      20.1510  a.u.
     unit-cell volume          =    8182.6196 (a.u.)^3
     number of atoms/cell      =           64
     number of atomic types    =            1
     number of electrons       =       256.00
     number of Kohn-Sham states=          128
     kinetic-energy cutoff     =      30.0000  Ry
     charge density cutoff     =     120.0000  Ry
     scf convergence threshold =      1.0E-06
     mixing beta               =       0.5000
     number of iterations used =            8  plain     mixing
     Exchange-correlation= PBE
                           (   1   4   3   4   0   0   0)

     GPU acceleration is ACTIVE.
     GPU-aware MPI enabled

     Message from routine print_cuda_info:
     High GPU oversubscription detected. Are you sure this is what you want?

     celldm(1)=  20.151040  celldm(2)=   0.000000  celldm(3)=   0.000000
     celldm(4)=   0.000000  celldm(5)=   0.000000  celldm(6)=   0.000000

     crystal axes: (cart. coord. in units of alat)
               a(1) = (   1.000000   0.000000   0.000000 )  
               a(2) = (   0.000000   1.000000   0.000000 )  
               a(3) = (   0.000000   0.000000   1.000000 )  

     reciprocal axes: (cart. coord. in units 2 pi/alat)
               b(1) = (  1.000000  0.000000  0.000000 )  
               b(2) = (  0.000000  1.000000  0.000000 )  
               b(3) = (  0.000000  0.000000  1.000000 )  


     PseudoPot. # 1 for Si read from file:
     /home/ppiaggi/pseudos/Si_ONCV_PBE_sr.upf
     MD5 check sum: 8553c464762ac42b85b1eed164b4d029
     Pseudo is Norm-conserving, Zval =  4.0
     Generated using ONCVPSP code by D. R. Hamann
     Using radial grid of 1510 points,  4 beta functions with: 
                l(1) =   0
                l(2) =   0
                l(3) =   1
                l(4) =   1

     atomic species   valence    mass     pseudopotential
        Si             4.00    28.08500     Si( 1.00)

     No symmetry found



   Cartesian axes

     site n.     atom                  positions (alat units)
         1           Si  tau(   1) = (   0.1885840   0.7978440   0.2946910  )
         2           Si  tau(   2) = (   0.0620474   0.6083600   0.7109260  )
         3           Si  tau(   3) = (   0.4384480   0.0790510   0.7453140  )
         4           Si  tau(   4) = (   0.2008280   0.2884000   0.2813970  )
         5           Si  tau(   5) = (   0.1572410   0.1148220   0.4845480  )
         6           Si  tau(   6) = (   0.3268560   0.0949854   0.9681100  )
         7           Si  tau(   7) = (   0.9227750   0.3537810   0.9968260  )
         8           Si  tau(   8) = (   0.6545570   0.7690620   0.7725560  )
         9           Si  tau(   9) = (   0.7408530   0.9190070   0.4775410  )
        10           Si  tau(  10) = (   0.6979240   0.3732310   0.3805690  )
        11           Si  tau(  11) = (   0.8868880   0.1974110   0.6755200  )
        12           Si  tau(  12) = (   0.5467940   0.9012760   0.0435078  )
        13           Si  tau(  13) = (   0.2640440   0.5041960   0.1642660  )
        14           Si  tau(  14) = (   0.5265380   0.6136560   0.8661300  )
        15           Si  tau(  15) = (   0.7706400   0.1705560   0.9978570  )
        16           Si  tau(  16) = (   0.9088760   0.4219910   0.4560340  )
        17           Si  tau(  17) = (   0.0219889   0.8901400   0.8531110  )
        18           Si  tau(  18) = (   0.1476040   0.8987920   0.5115860  )
        19           Si  tau(  19) = (   0.0228162   0.5625560   0.9323010  )
        20           Si  tau(  20) = (   0.8988210   0.6420770   0.2222950  )
        21           Si  tau(  21) = (   0.4784470   0.3467910   0.3649980  )
        22           Si  tau(  22) = (   0.5135120   0.0722831   0.4495310  )
        23           Si  tau(  23) = (   0.6773060   0.1912080   0.1851200  )
        24           Si  tau(  24) = (   0.8648920   0.4906010   0.6481920  )
        25           Si  tau(  25) = (   0.9138170   0.9982320   0.0396604  )
        26           Si  tau(  26) = (   0.4229120   0.7164240   0.0238222  )
        27           Si  tau(  27) = (   0.4065970   0.4812720   0.7085510  )
        28           Si  tau(  28) = (   0.1971510   0.3958720   0.6605640  )
        29           Si  tau(  29) = (   0.9662570   0.7928980   0.6182710  )
        30           Si  tau(  30) = (   0.8260990   0.4530700   0.1886740  )
        31           Si  tau(  31) = (   0.6143060   0.5803970   0.4441630  )
        32           Si  tau(  32) = (   0.4319120   0.9844920   0.2276270  )
        33           Si  tau(  33) = (   0.7635070   0.6907550   0.5856930  )
        34           Si  tau(  34) = (   0.2113990   0.8100650   0.9905280  )
        35           Si  tau(  35) = (   0.1924400   0.9877910   0.7531440  )
        36           Si  tau(  36) = (   0.7081610   0.1914840   0.5111650  )
        37           Si  tau(  37) = (   0.6774510   0.7714480   0.3156440  )
        38           Si  tau(  38) = (   0.5932420   0.4114800   0.1084570  )
        39           Si  tau(  39) = (   0.1973440   0.4673220   0.4538120  )
        40           Si  tau(  40) = (   0.0988828   0.1974830   0.7128110  )
        41           Si  tau(  41) = (   0.7173500   0.5082890   0.9401190  )
        42           Si  tau(  42) = (   0.6427410   0.0363012   0.8502920  )
        43           Si  tau(  43) = (   0.3915730   0.2132220   0.1835740  )
        44           Si  tau(  44) = (   0.0355365   0.6402530   0.4196580  )
        45           Si  tau(  45) = (   0.4834400   0.5786930   0.2058820  )
        46           Si  tau(  46) = (   0.2625990   0.4763330   0.9297970  )
        47           Si  tau(  47) = (   0.4142930   0.7625840   0.3340630  )
        48           Si  tau(  48) = (   0.8322160   0.0564848   0.2777080  )
        49           Si  tau(  49) = (   0.4007640   0.5746590   0.5006060  )
        50           Si  tau(  50) = (   0.8388790   0.9912830   0.7394940  )
        51           Si  tau(  51) = (   0.5215840   0.9125420   0.6157780  )
        52           Si  tau(  52) = (   0.0549413   0.1403650   0.1558340  )
        53           Si  tau(  53) = (   0.2069650   0.9835010   0.1473190  )
        54           Si  tau(  54) = (   0.2573370   0.7128330   0.7832000  )
        55           Si  tau(  55) = (   0.3524020   0.2456490   0.5252520  )
        56           Si  tau(  56) = (   0.8253890   0.7171310   0.9100370  )
        57           Si  tau(  57) = (   0.4471260   0.3257150   0.9574520  )
        58           Si  tau(  58) = (   0.1402970   0.2446250   0.9350030  )
        59           Si  tau(  59) = (   0.3253130   0.7770690   0.5948380  )
        60           Si  tau(  60) = (   0.5338240   0.2866830   0.7386570  )
        61           Si  tau(  61) = (   0.7639830   0.8362300   0.1082780  )
        62           Si  tau(  62) = (   0.7538500   0.3357840   0.7934990  )
        63           Si  tau(  63) = (   0.9786010   0.2094690   0.4123460  )
        64           Si  tau(  64) = (   0.1104640   0.6606550   0.1336970  )

     number of k points=     1
                       cart. coord. in units 2pi/alat
        k(    1) = (   0.0000000   0.0000000   0.0000000), wk =   2.0000000

     Dense  grid:    90834 G-vectors     FFT dimensions: (  72,  72,  72)

     Estimated max dynamical RAM per process >     133.72 MB

     Estimated total dynamical RAM >     512.72 MB

     Initial potential from superposition of free atoms

     starting charge     255.9608, renormalised to     256.0000
     Starting wfcs are  256 randomized atomic wfcs

     total cpu time spent up to now is        4.2 secs

     Self-consistent Calculation

     iteration #  1     ecut=    30.00 Ry     beta= 0.50
     Davidson diagonalization with overlap
     ethr =  1.00E-02,  avg # of iterations =  2.0

     Threshold (ethr) on eigenvalues was too large:
     Diagonalizing with lowered threshold

     Davidson diagonalization with overlap
     ethr =  3.85E-04,  avg # of iterations =  6.0

     total cpu time spent up to now is        4.4 secs

     total energy              =    -501.48058333 Ry
     estimated scf accuracy    <       1.19600161 Ry

     iteration #  2     ecut=    30.00 Ry     beta= 0.50
     Davidson diagonalization with overlap
     ethr =  4.67E-04,  avg # of iterations =  9.0

     total cpu time spent up to now is        4.5 secs

     total energy              =    -501.13113183 Ry
     estimated scf accuracy    <       3.71134207 Ry

     iteration #  3     ecut=    30.00 Ry     beta= 0.50
     Davidson diagonalization with overlap
     ethr =  4.67E-04,  avg # of iterations = 10.0

     total cpu time spent up to now is        4.7 secs

     total energy              =    -501.52071068 Ry
     estimated scf accuracy    <       1.77089445 Ry

     iteration #  4     ecut=    30.00 Ry     beta= 0.50
     Davidson diagonalization with overlap
     ethr =  4.67E-04,  avg # of iterations =  9.0

     total cpu time spent up to now is        4.8 secs

     total energy              =    -501.61742164 Ry
     estimated scf accuracy    <       0.54579370 Ry

     iteration #  5     ecut=    30.00 Ry     beta= 0.50
     Davidson diagonalization with overlap
     ethr =  2.13E-04,  avg # of iterations = 10.0

     total cpu time spent up to now is        4.9 secs

     total energy              =    -501.66725903 Ry
     estimated scf accuracy    <       0.27942758 Ry

     iteration #  6     ecut=    30.00 Ry     beta= 0.50
     Davidson diagonalization with overlap
     ethr =  1.09E-04,  avg # of iterations =  8.0

     total cpu time spent up to now is        5.0 secs

     total energy              =    -501.69965708 Ry
     estimated scf accuracy    <       0.02736213 Ry

     iteration #  7     ecut=    30.00 Ry     beta= 0.50
     Davidson diagonalization with overlap
     ethr =  1.07E-05,  avg # of iterations =  6.0

     total cpu time spent up to now is        5.1 secs

     total energy              =    -501.70422837 Ry
     estimated scf accuracy    <       0.01973260 Ry

     iteration #  8     ecut=    30.00 Ry     beta= 0.50
     Davidson diagonalization with overlap
     c_bands:  1 eigenvalues not converged
     ethr =  7.71E-06,  avg # of iterations = 20.0

     total cpu time spent up to now is        5.3 secs

     total energy              =    -501.70714479 Ry
     estimated scf accuracy    <       0.04896217 Ry

     iteration #  9     ecut=    30.00 Ry     beta= 0.50
     Davidson diagonalization with overlap
     ethr =  7.71E-06,  avg # of iterations =  2.0

     total cpu time spent up to now is        5.4 secs

     total energy              =    -501.70467101 Ry
     estimated scf accuracy    <       0.03122382 Ry

     iteration # 10     ecut=    30.00 Ry     beta= 0.50
     Davidson diagonalization with overlap
     ethr =  7.71E-06,  avg # of iterations = 12.0

     total cpu time spent up to now is        5.5 secs

     total energy              =    -501.70502045 Ry
     estimated scf accuracy    <       0.01016202 Ry

     iteration # 11     ecut=    30.00 Ry     beta= 0.50
     Davidson diagonalization with overlap
     c_bands:  2 eigenvalues not converged
     ethr =  3.97E-06,  avg # of iterations = 20.0

     total cpu time spent up to now is        5.6 secs

     total energy              =    -501.70808654 Ry
     estimated scf accuracy    <       0.02756242 Ry

     iteration # 12     ecut=    30.00 Ry     beta= 0.50
     Davidson diagonalization with overlap
     ethr =  3.97E-06,  avg # of iterations = 15.0

     total cpu time spent up to now is        5.8 secs

     total energy              =    -501.70800692 Ry
     estimated scf accuracy    <       0.02392233 Ry

     iteration # 13     ecut=    30.00 Ry     beta= 0.50
     Davidson diagonalization with overlap
     ethr =  3.97E-06,  avg # of iterations =  2.0

     total cpu time spent up to now is        5.8 secs

     total energy              =    -501.70666397 Ry
     estimated scf accuracy    <       0.01956656 Ry

     iteration # 14     ecut=    30.00 Ry     beta= 0.50
     Davidson diagonalization with overlap
     c_bands:  1 eigenvalues not converged
     ethr =  3.97E-06,  avg # of iterations = 20.0

     total cpu time spent up to now is        6.0 secs

     total energy              =    -501.70742977 Ry
     estimated scf accuracy    <       0.00457011 Ry

     iteration # 15     ecut=    30.00 Ry     beta= 0.50
     Davidson diagonalization with overlap
     ethr =  1.79E-06,  avg # of iterations = 17.0

     total cpu time spent up to now is        6.1 secs

     total energy              =    -501.70774338 Ry
     estimated scf accuracy    <       0.00356527 Ry

     iteration # 16     ecut=    30.00 Ry     beta= 0.50
     Davidson diagonalization with overlap
     ethr =  1.39E-06,  avg # of iterations =  1.0

     total cpu time spent up to now is        6.2 secs

     total energy              =    -501.70762779 Ry
     estimated scf accuracy    <       0.00298725 Ry

     iteration # 17     ecut=    30.00 Ry     beta= 0.50
     Davidson diagonalization with overlap
     ethr =  1.17E-06,  avg # of iterations =  2.0

     total cpu time spent up to now is        6.2 secs

     total energy              =    -501.70756197 Ry
     estimated scf accuracy    <       0.00257982 Ry

     iteration # 18     ecut=    30.00 Ry     beta= 0.50
     Davidson diagonalization with overlap
     ethr =  1.01E-06,  avg # of iterations =  2.0

     total cpu time spent up to now is        6.3 secs

     total energy              =    -501.70746369 Ry
     estimated scf accuracy    <       0.00221428 Ry

     iteration # 19     ecut=    30.00 Ry     beta= 0.50
     Davidson diagonalization with overlap
     c_bands:  1 eigenvalues not converged
     ethr =  8.65E-07,  avg # of iterations = 20.0

     total cpu time spent up to now is        6.5 secs

     total energy              =    -501.70978284 Ry
     estimated scf accuracy    <       0.04261206 Ry

     iteration # 20     ecut=    30.00 Ry     beta= 0.50
     Davidson diagonalization with overlap
     ethr =  8.65E-07,  avg # of iterations = 10.0

     total cpu time spent up to now is        6.6 secs

     total energy              =    -501.70801198 Ry
     estimated scf accuracy    <       0.04411256 Ry

     iteration # 21     ecut=    30.00 Ry     beta= 0.50
     Davidson diagonalization with overlap
     ethr =  8.65E-07,  avg # of iterations =  2.0

     total cpu time spent up to now is        6.7 secs

     total energy              =    -501.70770699 Ry
     estimated scf accuracy    <       0.03623069 Ry

     iteration # 22     ecut=    30.00 Ry     beta= 0.50
     Davidson diagonalization with overlap
     ethr =  8.65E-07,  avg # of iterations =  1.0

     total cpu time spent up to now is        6.7 secs

     total energy              =    -501.70541890 Ry
     estimated scf accuracy    <       0.03339745 Ry

     iteration # 23     ecut=    30.00 Ry     beta= 0.50
     Davidson diagonalization with overlap
     c_bands:  2 eigenvalues not converged
     ethr =  8.65E-07,  avg # of iterations = 20.0

     total cpu time spent up to now is        6.9 secs

     total energy              =    -501.70551686 Ry
     estimated scf accuracy    <       0.01972739 Ry

     iteration # 24     ecut=    30.00 Ry     beta= 0.50
     Davidson diagonalization with overlap
     c_bands:  1 eigenvalues not converged
     ethr =  8.65E-07,  avg # of iterations = 20.0

     total cpu time spent up to now is        7.1 secs

     total energy              =    -501.70735452 Ry
     estimated scf accuracy    <       0.01892385 Ry

     iteration # 25     ecut=    30.00 Ry     beta= 0.50
     Davidson diagonalization with overlap
     c_bands:  1 eigenvalues not converged
     ethr =  8.65E-07,  avg # of iterations = 20.0

     total cpu time spent up to now is        7.2 secs

     total energy              =    -501.70806185 Ry
     estimated scf accuracy    <       0.01501065 Ry

     iteration # 26     ecut=    30.00 Ry     beta= 0.50
     Davidson diagonalization with overlap
     c_bands:  1 eigenvalues not converged
     ethr =  8.65E-07,  avg # of iterations = 20.0

     total cpu time spent up to now is        7.4 secs

     total energy              =    -501.70819046 Ry
     estimated scf accuracy    <       0.01203068 Ry

     iteration # 27     ecut=    30.00 Ry     beta= 0.50
     Davidson diagonalization with overlap
     ethr =  8.65E-07,  avg # of iterations =  2.0

     total cpu time spent up to now is        7.4 secs

     total energy              =    -501.70633958 Ry
     estimated scf accuracy    <       0.01185356 Ry

     iteration # 28     ecut=    30.00 Ry     beta= 0.50
     Davidson diagonalization with overlap
     ethr =  8.65E-07,  avg # of iterations = 18.0

     total cpu time spent up to now is        7.6 secs

     total energy              =    -501.70699371 Ry
     estimated scf accuracy    <       0.00677340 Ry

     iteration # 29     ecut=    30.00 Ry     beta= 0.50
     Davidson diagonalization with overlap
     ethr =  8.65E-07,  avg # of iterations =  3.0

     total cpu time spent up to now is        7.7 secs

     total energy              =    -501.70715904 Ry
     estimated scf accuracy    <       0.00489004 Ry

     iteration # 30     ecut=    30.00 Ry     beta= 0.50
     Davidson diagonalization with overlap
     ethr =  8.65E-07,  avg # of iterations =  2.0

     total cpu time spent up to now is        7.7 secs

     total energy              =    -501.70735126 Ry
     estimated scf accuracy    <       0.00518036 Ry

     iteration # 31     ecut=    30.00 Ry     beta= 0.50
     Davidson diagonalization with overlap
     ethr =  8.65E-07,  avg # of iterations =  2.0

     total cpu time spent up to now is        7.8 secs

     total energy              =    -501.70812824 Ry
     estimated scf accuracy    <       0.00629845 Ry

     iteration # 32     ecut=    30.00 Ry     beta= 0.50
     Davidson diagonalization with overlap
     c_bands:  2 eigenvalues not converged
     ethr =  8.65E-07,  avg # of iterations = 20.0

     total cpu time spent up to now is        8.0 secs

     total energy              =    -501.71394479 Ry
     estimated scf accuracy    <       0.10640611 Ry

     iteration # 33     ecut=    30.00 Ry     beta= 0.50
     Davidson diagonalization with overlap
     ethr =  8.65E-07,  avg # of iterations = 14.0

     total cpu time spent up to now is        8.1 secs

     total energy              =    -501.70524606 Ry
     estimated scf accuracy    <       0.08736540 Ry

     iteration # 34     ecut=    30.00 Ry     beta= 0.50
     Davidson diagonalization with overlap
     c_bands:  1 eigenvalues not converged
     ethr =  8.65E-07,  avg # of iterations = 20.0

     total cpu time spent up to now is        8.3 secs

     total energy              =    -501.70724968 Ry
     estimated scf accuracy    <       0.00550136 Ry

     iteration # 35     ecut=    30.00 Ry     beta= 0.50
     Davidson diagonalization with overlap
     c_bands:  1 eigenvalues not converged
     ethr =  8.65E-07,  avg # of iterations = 20.0

     total cpu time spent up to now is        8.5 secs

     total energy              =    -501.70744783 Ry
     estimated scf accuracy    <       0.00856067 Ry

     iteration # 36     ecut=    30.00 Ry     beta= 0.50
     Davidson diagonalization with overlap
     ethr =  8.65E-07,  avg # of iterations =  8.0

     total cpu time spent up to now is        8.6 secs

     total energy              =    -501.70741144 Ry
     estimated scf accuracy    <       0.00350695 Ry

     iteration # 37     ecut=    30.00 Ry     beta= 0.50
     Davidson diagonalization with overlap
     c_bands:  1 eigenvalues not converged
     ethr =  8.65E-07,  avg # of iterations = 20.0

     total cpu time spent up to now is        8.7 secs

     total energy              =    -501.70750896 Ry
     estimated scf accuracy    <       0.00343210 Ry

     iteration # 38     ecut=    30.00 Ry     beta= 0.50
     Davidson diagonalization with overlap
     ethr =  8.65E-07,  avg # of iterations = 11.0

     total cpu time spent up to now is        8.9 secs

     total energy              =    -501.70767204 Ry
     estimated scf accuracy    <       0.00183921 Ry

     iteration # 39     ecut=    30.00 Ry     beta= 0.50
     Davidson diagonalization with overlap
     c_bands:  1 eigenvalues not converged
     ethr =  7.18E-07,  avg # of iterations = 20.0

     total cpu time spent up to now is        9.0 secs

     total energy              =    -501.70832284 Ry
     estimated scf accuracy    <       0.02919423 Ry

     iteration # 40     ecut=    30.00 Ry     beta= 0.50
     Davidson diagonalization with overlap
     ethr =  7.18E-07,  avg # of iterations = 18.0

     total cpu time spent up to now is        9.1 secs

     total energy              =    -501.70971399 Ry
     estimated scf accuracy    <       0.02912540 Ry

     iteration # 41     ecut=    30.00 Ry     beta= 0.50
     Davidson diagonalization with overlap
     c_bands:  1 eigenvalues not converged
     ethr =  7.18E-07,  avg # of iterations = 20.0

     total cpu time spent up to now is        9.3 secs

     total energy              =    -501.70726987 Ry
     estimated scf accuracy    <       0.05170692 Ry

     iteration # 42     ecut=    30.00 Ry     beta= 0.50
     Davidson diagonalization with overlap
     c_bands:  1 eigenvalues not converged
     ethr =  7.18E-07,  avg # of iterations = 20.0

     total cpu time spent up to now is        9.5 secs

     total energy              =    -501.70724069 Ry
     estimated scf accuracy    <       0.02987742 Ry

     iteration # 43     ecut=    30.00 Ry     beta= 0.50
     Davidson diagonalization with overlap
     ethr =  7.18E-07,  avg # of iterations =  3.0

     total cpu time spent up to now is        9.5 secs

     total energy              =    -501.70694393 Ry
     estimated scf accuracy    <       0.02604615 Ry

     iteration # 44     ecut=    30.00 Ry     beta= 0.50
     Davidson diagonalization with overlap
     ethr =  7.18E-07,  avg # of iterations =  1.0

     total cpu time spent up to now is        9.6 secs

     total energy              =    -501.70670081 Ry
     estimated scf accuracy    <       0.02354066 Ry

     iteration # 45     ecut=    30.00 Ry     beta= 0.50
     Davidson diagonalization with overlap
     ethr =  7.18E-07,  avg # of iterations =  1.0

     total cpu time spent up to now is        9.7 secs

     total energy              =    -501.70556174 Ry
     estimated scf accuracy    <       0.02197369 Ry

     iteration # 46     ecut=    30.00 Ry     beta= 0.50
     Davidson diagonalization with overlap
     ethr =  7.18E-07,  avg # of iterations = 13.0

     total cpu time spent up to now is        9.8 secs

     total energy              =    -501.70612560 Ry
     estimated scf accuracy    <       0.01882076 Ry

     iteration # 47     ecut=    30.00 Ry     beta= 0.50
     Davidson diagonalization with overlap
     ethr =  7.18E-07,  avg # of iterations = 12.0

     total cpu time spent up to now is        9.9 secs

     total energy              =    -501.70065156 Ry
     estimated scf accuracy    <       0.01731881 Ry

     iteration # 48     ecut=    30.00 Ry     beta= 0.50
     Davidson diagonalization with overlap
     c_bands:  2 eigenvalues not converged
     ethr =  7.18E-07,  avg # of iterations = 20.0

     total cpu time spent up to now is       10.1 secs

     total energy              =    -501.70850305 Ry
     estimated scf accuracy    <       0.11360362 Ry

     iteration # 49     ecut=    30.00 Ry     beta= 0.50
     Davidson diagonalization with overlap
     ethr =  7.18E-07,  avg # of iterations = 19.0

     total cpu time spent up to now is       10.3 secs

     total energy              =    -501.71029684 Ry
     estimated scf accuracy    <       0.03524584 Ry

     iteration # 50     ecut=    30.00 Ry     beta= 0.50
     Davidson diagonalization with overlap
     ethr =  7.18E-07,  avg # of iterations = 13.0

     total cpu time spent up to now is       10.4 secs

     total energy              =    -501.70774934 Ry
     estimated scf accuracy    <       0.02265889 Ry

     iteration # 51     ecut=    30.00 Ry     beta= 0.50
     Davidson diagonalization with overlap
     ethr =  7.18E-07,  avg # of iterations =  5.0

     total cpu time spent up to now is       10.5 secs

     total energy              =    -501.70835953 Ry
     estimated scf accuracy    <       0.00838202 Ry

     iteration # 52     ecut=    30.00 Ry     beta= 0.50
     Davidson diagonalization with overlap
     ethr =  7.18E-07,  avg # of iterations =  2.0

     total cpu time spent up to now is       10.6 secs

     total energy              =    -501.70820053 Ry
     estimated scf accuracy    <       0.00759985 Ry

     iteration # 53     ecut=    30.00 Ry     beta= 0.50
     Davidson diagonalization with overlap
     ethr =  7.18E-07,  avg # of iterations =  1.0

     total cpu time spent up to now is       10.7 secs

     total energy              =    -501.70789212 Ry
     estimated scf accuracy    <       0.00666310 Ry

     iteration # 54     ecut=    30.00 Ry     beta= 0.50
     Davidson diagonalization with overlap
     ethr =  7.18E-07,  avg # of iterations =  2.0

     total cpu time spent up to now is       10.7 secs

     total energy              =    -501.70690028 Ry
     estimated scf accuracy    <       0.00505920 Ry

     iteration # 55     ecut=    30.00 Ry     beta= 0.50
     Davidson diagonalization with overlap
     c_bands:  2 eigenvalues not converged
     ethr =  7.18E-07,  avg # of iterations = 20.0

     total cpu time spent up to now is       10.9 secs

     total energy              =    -501.70753510 Ry
     estimated scf accuracy    <       0.00087502 Ry

     iteration # 56     ecut=    30.00 Ry     beta= 0.50
     Davidson diagonalization with overlap
     c_bands:  1 eigenvalues not converged
     ethr =  3.42E-07,  avg # of iterations = 20.0

     total cpu time spent up to now is       11.1 secs

     total energy              =    -501.70756363 Ry
     estimated scf accuracy    <       0.00085997 Ry

     iteration # 57     ecut=    30.00 Ry     beta= 0.50
     Davidson diagonalization with overlap
     c_bands:  1 eigenvalues not converged
     ethr =  3.36E-07,  avg # of iterations = 20.0

     total cpu time spent up to now is       11.2 secs

     total energy              =    -501.70848711 Ry
     estimated scf accuracy    <       0.03650519 Ry

     iteration # 58     ecut=    30.00 Ry     beta= 0.50
     Davidson diagonalization with overlap
     c_bands:  1 eigenvalues not converged
     ethr =  3.36E-07,  avg # of iterations = 20.0

     total cpu time spent up to now is       11.4 secs

     total energy              =    -501.70960415 Ry
     estimated scf accuracy    <       0.04001687 Ry

     iteration # 59     ecut=    30.00 Ry     beta= 0.50
     Davidson diagonalization with overlap
     c_bands:  1 eigenvalues not converged
     ethr =  3.36E-07,  avg # of iterations = 20.0

     total cpu time spent up to now is       11.5 secs

     total energy              =    -501.70663885 Ry
     estimated scf accuracy    <       0.04179901 Ry

     iteration # 60     ecut=    30.00 Ry     beta= 0.50
     Davidson diagonalization with overlap
     c_bands:  1 eigenvalues not converged
     ethr =  3.36E-07,  avg # of iterations = 20.0

     total cpu time spent up to now is       11.7 secs

     total energy              =    -501.70725612 Ry
     estimated scf accuracy    <       0.01685692 Ry

     iteration # 61     ecut=    30.00 Ry     beta= 0.50
     Davidson diagonalization with overlap
     c_bands:  1 eigenvalues not converged
     ethr =  3.36E-07,  avg # of iterations = 20.0

     total cpu time spent up to now is       11.9 secs

     total energy              =    -501.70759928 Ry
     estimated scf accuracy    <       0.01368044 Ry

     iteration # 62     ecut=    30.00 Ry     beta= 0.50
     Davidson diagonalization with overlap
     c_bands:  1 eigenvalues not converged
     ethr =  3.36E-07,  avg # of iterations = 20.0

     total cpu time spent up to now is       12.0 secs

     total energy              =    -501.70774294 Ry
     estimated scf accuracy    <       0.00543420 Ry

     iteration # 63     ecut=    30.00 Ry     beta= 0.50
     Davidson diagonalization with overlap
     ethr =  3.36E-07,  avg # of iterations = 15.0

     total cpu time spent up to now is       12.1 secs

     total energy              =    -501.70764361 Ry
     estimated scf accuracy    <       0.00525528 Ry

     iteration # 64     ecut=    30.00 Ry     beta= 0.50
     Davidson diagonalization with overlap
     c_bands:  2 eigenvalues not converged
     ethr =  3.36E-07,  avg # of iterations = 20.0

     total cpu time spent up to now is       12.3 secs

     total energy              =    -501.70780234 Ry
     estimated scf accuracy    <       0.01018913 Ry

     iteration # 65     ecut=    30.00 Ry     beta= 0.50
     Davidson diagonalization with overlap
     c_bands:  1 eigenvalues not converged
     ethr =  3.36E-07,  avg # of iterations = 20.0

     total cpu time spent up to now is       12.5 secs

     total energy              =    -501.70812272 Ry
     estimated scf accuracy    <       0.02424814 Ry

     iteration # 66     ecut=    30.00 Ry     beta= 0.50
     Davidson diagonalization with overlap
     c_bands:  1 eigenvalues not converged
     ethr =  3.36E-07,  avg # of iterations = 20.0

     total cpu time spent up to now is       12.6 secs

     total energy              =    -501.70858688 Ry
     estimated scf accuracy    <       0.02636012 Ry

     iteration # 67     ecut=    30.00 Ry     beta= 0.50
     Davidson diagonalization with overlap
     c_bands:  1 eigenvalues not converged
     ethr =  3.36E-07,  avg # of iterations = 20.0

     total cpu time spent up to now is       12.8 secs

     total energy              =    -501.70895592 Ry
     estimated scf accuracy    <       0.03296883 Ry

     iteration # 68     ecut=    30.00 Ry     beta= 0.50
     Davidson diagonalization with overlap
     c_bands:  1 eigenvalues not converged
     ethr =  3.36E-07,  avg # of iterations = 20.0

     total cpu time spent up to now is       12.9 secs

     total energy              =    -501.70898464 Ry
     estimated scf accuracy    <       0.03544182 Ry

     iteration # 69     ecut=    30.00 Ry     beta= 0.50
     Davidson diagonalization with overlap
     ethr =  3.36E-07,  avg # of iterations =  3.0

     total cpu time spent up to now is       13.0 secs

     total energy              =    -501.70880972 Ry
     estimated scf accuracy    <       0.03582321 Ry

     iteration # 70     ecut=    30.00 Ry     beta= 0.50
     Davidson diagonalization with overlap
     ethr =  3.36E-07,  avg # of iterations =  2.0

     total cpu time spent up to now is       13.1 secs

     total energy              =    -501.70577932 Ry
     estimated scf accuracy    <       0.03514024 Ry

     iteration # 71     ecut=    30.00 Ry     beta= 0.50
     Davidson diagonalization with overlap
     c_bands:  1 eigenvalues not converged
     ethr =  3.36E-07,  avg # of iterations = 20.0

     total cpu time spent up to now is       13.2 secs

     total energy              =    -501.70663597 Ry
     estimated scf accuracy    <       0.01674571 Ry

     iteration # 72     ecut=    30.00 Ry     beta= 0.50
     Davidson diagonalization with overlap
     c_bands:  1 eigenvalues not converged
     ethr =  3.36E-07,  avg # of iterations = 20.0

     total cpu time spent up to now is       13.4 secs

     total energy              =    -501.70636467 Ry
     estimated scf accuracy    <       0.00531760 Ry

     iteration # 73     ecut=    30.00 Ry     beta= 0.50
     Davidson diagonalization with overlap
     c_bands:  3 eigenvalues not converged
     ethr =  3.36E-07,  avg # of iterations = 20.0

     total cpu time spent up to now is       13.6 secs

     total energy              =    -501.70426139 Ry
     estimated scf accuracy    <       0.06708887 Ry

     iteration # 74     ecut=    30.00 Ry     beta= 0.50
     Davidson diagonalization with overlap
     ethr =  3.36E-07,  avg # of iterations = 17.0

     total cpu time spent up to now is       13.8 secs

     total energy              =    -501.70761002 Ry
     estimated scf accuracy    <       0.00232823 Ry

     iteration # 75     ecut=    30.00 Ry     beta= 0.50
     Davidson diagonalization with overlap
     ethr =  3.36E-07,  avg # of iterations = 20.0

     total cpu time spent up to now is       14.0 secs

     total energy              =    -501.70760055 Ry
     estimated scf accuracy    <       0.00200130 Ry

     iteration # 76     ecut=    30.00 Ry     beta= 0.50
     Davidson diagonalization with overlap
     c_bands:  1 eigenvalues not converged
     ethr =  3.36E-07,  avg # of iterations = 20.0

     total cpu time spent up to now is       14.1 secs

     total energy              =    -501.70755178 Ry
     estimated scf accuracy    <       0.00483571 Ry

     iteration # 77     ecut=    30.00 Ry     beta= 0.50
     Davidson diagonalization with overlap
     ethr =  3.36E-07,  avg # of iterations = 14.0

     total cpu time spent up to now is       14.3 secs

     total energy              =    -501.70761221 Ry
     estimated scf accuracy    <       0.00329685 Ry

     iteration # 78     ecut=    30.00 Ry     beta= 0.50
     Davidson diagonalization with overlap
     ethr =  3.36E-07,  avg # of iterations =  2.0

     total cpu time spent up to now is       14.3 secs

     total energy              =    -501.70759475 Ry
     estimated scf accuracy    <       0.00314446 Ry

     iteration # 79     ecut=    30.00 Ry     beta= 0.50
     Davidson diagonalization with overlap
     ethr =  3.36E-07,  avg # of iterations =  1.0

     total cpu time spent up to now is       14.4 secs

     total energy              =    -501.70754740 Ry
     estimated scf accuracy    <       0.00299761 Ry

     iteration # 80     ecut=    30.00 Ry     beta= 0.50
     Davidson diagonalization with overlap
     ethr =  3.36E-07,  avg # of iterations = 11.0

     total cpu time spent up to now is       14.5 secs

     total energy              =    -501.70778517 Ry
     estimated scf accuracy    <       0.00578333 Ry

     iteration # 81     ecut=    30.00 Ry     beta= 0.50
     Davidson diagonalization with overlap
     c_bands:  1 eigenvalues not converged
     ethr =  3.36E-07,  avg # of iterations = 20.0

     total cpu time spent up to now is       14.7 secs

     total energy              =    -501.70808842 Ry
     estimated scf accuracy    <       0.04080651 Ry

     iteration # 82     ecut=    30.00 Ry     beta= 0.50
     Davidson diagonalization with overlap
     ethr =  3.36E-07,  avg # of iterations = 13.0

     total cpu time spent up to now is       14.9 secs

     total energy              =    -501.70649961 Ry
     estimated scf accuracy    <       0.03482422 Ry

     iteration # 83     ecut=    30.00 Ry     beta= 0.50
     Davidson diagonalization with overlap
     ethr =  3.36E-07,  avg # of iterations = 12.0

     total cpu time spent up to now is       15.0 secs

     total energy              =    -501.70646007 Ry
     estimated scf accuracy    <       0.02052517 Ry

     iteration # 84     ecut=    30.00 Ry     beta= 0.50
     Davidson diagonalization with overlap
     ethr =  3.36E-07,  avg # of iterations =  3.0

     total cpu time spent up to now is       15.1 secs

     total energy              =    -501.70533113 Ry
     estimated scf accuracy    <       0.01768145 Ry

     iteration # 85     ecut=    30.00 Ry     beta= 0.50
     Davidson diagonalization with overlap
     c_bands:  1 eigenvalues not converged
     ethr =  3.36E-07,  avg # of iterations = 20.0

     total cpu time spent up to now is       15.2 secs

     total energy              =    -501.70807231 Ry
     estimated scf accuracy    <       0.01559318 Ry

     iteration # 86     ecut=    30.00 Ry     beta= 0.50
     Davidson diagonalization with overlap
     ethr =  3.36E-07,  avg # of iterations = 19.0

     total cpu time spent up to now is       15.4 secs

     total energy              =    -501.70794042 Ry
     estimated scf accuracy    <       0.01194459 Ry

     iteration # 87     ecut=    30.00 Ry     beta= 0.50
     Davidson diagonalization with overlap
     ethr =  3.36E-07,  avg # of iterations =  3.0

     total cpu time spent up to now is       15.5 secs

     total energy              =    -501.70766254 Ry
     estimated scf accuracy    <       0.00900528 Ry

     iteration # 88     ecut=    30.00 Ry     beta= 0.50
     Davidson diagonalization with overlap
     ethr =  3.36E-07,  avg # of iterations =  9.0

     total cpu time spent up to now is       15.6 secs

     total energy              =    -501.70671445 Ry
     estimated scf accuracy    <       0.00713743 Ry

     iteration # 89     ecut=    30.00 Ry     beta= 0.50
     Davidson diagonalization with overlap
     c_bands:  1 eigenvalues not converged
     ethr =  3.36E-07,  avg # of iterations = 20.0

     total cpu time spent up to now is       15.8 secs

     total energy              =    -501.70679604 Ry
     estimated scf accuracy    <       0.04093264 Ry

     iteration # 90     ecut=    30.00 Ry     beta= 0.50
     Davidson diagonalization with overlap
     c_bands:  1 eigenvalues not converged
     ethr =  3.36E-07,  avg # of iterations = 20.0

     total cpu time spent up to now is       16.0 secs

     total energy              =    -501.70740391 Ry
     estimated scf accuracy    <       0.04213432 Ry

     iteration # 91     ecut=    30.00 Ry     beta= 0.50
     Davidson diagonalization with overlap
     ethr =  3.36E-07,  avg # of iterations = 10.0

     total cpu time spent up to now is       16.1 secs

     total energy              =    -501.70764176 Ry
     estimated scf accuracy    <       0.01893072 Ry

     iteration # 92     ecut=    30.00 Ry     beta= 0.50
     Davidson diagonalization with overlap
     c_bands:  1 eigenvalues not converged
     ethr =  3.36E-07,  avg # of iterations = 20.0

     total cpu time spent up to now is       16.3 secs

     total energy              =    -501.70754627 Ry
     estimated scf accuracy    <       0.01202649 Ry

     iteration # 93     ecut=    30.00 Ry     beta= 0.50
     Davidson diagonalization with overlap
     c_bands:  1 eigenvalues not converged
     ethr =  3.36E-07,  avg # of iterations = 20.0

     total cpu time spent up to now is       16.4 secs

     total energy              =    -501.70720373 Ry
     estimated scf accuracy    <       0.01004795 Ry

     iteration # 94     ecut=    30.00 Ry     beta= 0.50
     Davidson diagonalization with overlap
     c_bands:  1 eigenvalues not converged
     ethr =  3.36E-07,  avg # of iterations = 20.0

     total cpu time spent up to now is       16.6 secs

     total energy              =    -501.70753958 Ry
     estimated scf accuracy    <       0.00437810 Ry

     iteration # 95     ecut=    30.00 Ry     beta= 0.50
     Davidson diagonalization with overlap
     ethr =  3.36E-07,  avg # of iterations = 19.0

     total cpu time spent up to now is       16.7 secs

     total energy              =    -501.70769394 Ry
     estimated scf accuracy    <       0.00455419 Ry

     iteration # 96     ecut=    30.00 Ry     beta= 0.50
     Davidson diagonalization with overlap
     ethr =  3.36E-07,  avg # of iterations =  1.0

     total cpu time spent up to now is       16.8 secs

     total energy              =    -501.70770126 Ry
     estimated scf accuracy    <       0.00451068 Ry

     iteration # 97     ecut=    30.00 Ry     beta= 0.50
     Davidson diagonalization with overlap
     ethr =  3.36E-07,  avg # of iterations =  1.0

     total cpu time spent up to now is       16.8 secs

     total energy              =    -501.70752409 Ry
     estimated scf accuracy    <       0.00448754 Ry

     iteration # 98     ecut=    30.00 Ry     beta= 0.50
     Davidson diagonalization with overlap
     c_bands:  1 eigenvalues not converged
     ethr =  3.36E-07,  avg # of iterations = 20.0

     total cpu time spent up to now is       17.0 secs

     total energy              =    -501.70802987 Ry
     estimated scf accuracy    <       0.07091812 Ry

     iteration # 99     ecut=    30.00 Ry     beta= 0.50
     Davidson diagonalization with overlap
     c_bands:  1 eigenvalues not converged
     ethr =  3.36E-07,  avg # of iterations = 20.0

     total cpu time spent up to now is       17.2 secs

     total energy              =    -501.70808731 Ry
     estimated scf accuracy    <       0.03849217 Ry

     iteration #100     ecut=    30.00 Ry     beta= 0.50
     Davidson diagonalization with overlap
     ethr =  3.36E-07,  avg # of iterations =  8.0

     total cpu time spent up to now is       17.3 secs

     total energy              =    -501.70760405 Ry
     estimated scf accuracy    <       0.02806478 Ry

     End of self-consistent calculation

     convergence NOT achieved after 100 iterations: stopping

     Writing config to output data dir ./pwscf.save/
     Message from routine punch:
     wavefunctions written to file
 
     init_run     :      0.90s CPU      4.19s WALL (       1 calls)
     electrons    :     12.40s CPU     13.09s WALL (       1 calls)

     Called by init_run:
     wfcinit      :      0.40s CPU      3.55s WALL (       1 calls)
                                        3.55s GPU  (       1 calls)
     potinit      :      0.04s CPU      0.12s WALL (       1 calls)
     hinit0       :      0.45s CPU      0.47s WALL (       1 calls)

     Called by electrons:
     c_bands      :      9.34s CPU      9.75s WALL (     101 calls)
     sum_band     :      1.40s CPU      1.59s WALL (     101 calls)
     v_of_rho     :      0.60s CPU      0.69s WALL (     101 calls)
     mix_rho      :      0.89s CPU      0.92s WALL (     101 calls)

     Called by c_bands:
     init_us_2    :      0.25s CPU      0.27s WALL (     203 calls)
     init_us_2:gp :      0.25s CPU      0.27s WALL (     203 calls)
     regterg      :      8.61s CPU      8.99s WALL (     101 calls)

     Called by *egterg:
     rdiaghg      :      4.54s CPU      5.38s WALL (    1399 calls)
                                        5.16s GPU  (    1399 calls)
     h_psi        :      3.26s CPU      5.89s WALL (    1401 calls)
                                        5.87s GPU  (    1401 calls)
     g_psi        :      0.00s CPU      0.03s WALL (    1299 calls)
                                        0.02s GPU  (    1299 calls)

     Called by h_psi:
     h_psi:calbec :      0.71s CPU      3.19s WALL (    1401 calls)
                                        3.18s GPU  (    1401 calls)
     vloc_psi     :      1.83s CPU      1.97s WALL (    1401 calls)
                                        1.95s GPU  (    1401 calls)
     add_vuspsi   :      0.55s CPU      0.67s WALL (    1401 calls)
                                        0.66s GPU  (    1401 calls)

     General routines
     calbec       :      0.69s CPU      3.16s WALL (    1401 calls)
     fft          :      0.93s CPU      1.07s WALL (     809 calls)
                                        0.17s GPU  (     505 calls)
     ffts         :      0.14s CPU      0.16s WALL (     101 calls)
     fftw         :      2.09s CPU      2.59s WALL (   10784 calls)
                                        2.26s GPU  (   10784 calls)
     davcio       :      0.00s CPU      0.00s WALL (      19 calls)
 
     Parallel routines
 
     PWSCF        :     13.34s CPU     17.36s WALL

 
   This run was terminated on:  15:18: 2   9May2023            

=------------------------------------------------------------------------------=
   JOB DONE.
=------------------------------------------------------------------------------=
