An instance of this daemon is already running

     Program PWSCF v.7.1 starts on  9May2023 at 15:13:59 

     This program is part of the open-source Quantum ESPRESSO suite
     for quantum simulation of materials; please cite
         "P. Giannozzi et al., J. Phys.:Condens. Matter 21 395502 (2009);
         "P. Giannozzi et al., J. Phys.:Condens. Matter 29 465901 (2017);
         "P. Giannozzi et al., J. Chem. Phys. 152 154105 (2020);
          URL http://www.quantum-espresso.org", 
     in publications or presentations arising from this work. More details at
     http://www.quantum-espresso.org/quote

     Parallel version (MPI & OpenMP), running on       4 processor cores
     Number of MPI processes:                 4
     Threads/MPI process:                     1

     MPI processes distributed on     1 nodes
     9346 MiB available memory on the printing compute node when the environment starts
 
     Reading input from pw-si-35.in
Warning: card &CELL ignored
Warning: card / ignored

     Current dimensions of program PWSCF are:
     Max number of different atomic species (ntypx) = 10
     Max number of k-points (npk) =  40000
     Max angular momentum in pseudopotentials (lmaxx) =  4

     IMPORTANT: XC functional enforced from input :
     Exchange-correlation= PBE
                           (   1   4   3   4   0   0   0)
     Any further DFT definition will be discarded
     Please, verify this is what you really want


     gamma-point specific algorithms are used
 
     K-points division:     npool     =       2
     R & G space division:  proc/nbgrp/npool/nimage =       2
     Subspace diagonalization in iterative solution of the eigenvalue problem:
     a serial algorithm will be used

     Message from routine divide_et_impera:
     suboptimal parallelization: some nodes have no k-points
 
     Parallelization info
     --------------------
     sticks:   dense  smooth     PW     G-vecs:    dense   smooth      PW
     Min        1945    1945    519                91431    91431   12442
     Max        1948    1948    522                91436    91436   12443
     Sum        3893    3893   1041               182867   182867   24885
 
     Using Slab Decomposition
 


     bravais-lattice index     =            0
     lattice parameter (alat)  =      20.2026  a.u.
     unit-cell volume          =    8245.6062 (a.u.)^3
     number of atoms/cell      =           64
     number of atomic types    =            1
     number of electrons       =       256.00
     number of Kohn-Sham states=          128
     kinetic-energy cutoff     =      30.0000  Ry
     charge density cutoff     =     120.0000  Ry
     scf convergence threshold =      1.0E-06
     mixing beta               =       0.5000
     number of iterations used =            8  plain     mixing
     Exchange-correlation= PBE
                           (   1   4   3   4   0   0   0)

     GPU acceleration is ACTIVE.
     GPU-aware MPI enabled

     Message from routine print_cuda_info:
     High GPU oversubscription detected. Are you sure this is what you want?

     celldm(1)=  20.202612  celldm(2)=   0.000000  celldm(3)=   0.000000
     celldm(4)=   0.000000  celldm(5)=   0.000000  celldm(6)=   0.000000

     crystal axes: (cart. coord. in units of alat)
               a(1) = (   1.000000   0.000000   0.000000 )  
               a(2) = (   0.000000   1.000000   0.000000 )  
               a(3) = (   0.000000   0.000000   1.000000 )  

     reciprocal axes: (cart. coord. in units 2 pi/alat)
               b(1) = (  1.000000  0.000000  0.000000 )  
               b(2) = (  0.000000  1.000000  0.000000 )  
               b(3) = (  0.000000  0.000000  1.000000 )  


     PseudoPot. # 1 for Si read from file:
     /home/ppiaggi/pseudos/Si_ONCV_PBE_sr.upf
     MD5 check sum: 8553c464762ac42b85b1eed164b4d029
     Pseudo is Norm-conserving, Zval =  4.0
     Generated using ONCVPSP code by D. R. Hamann
     Using radial grid of 1510 points,  4 beta functions with: 
                l(1) =   0
                l(2) =   0
                l(3) =   1
                l(4) =   1

     atomic species   valence    mass     pseudopotential
        Si             4.00    28.08500     Si( 1.00)

     No symmetry found



   Cartesian axes

     site n.     atom                  positions (alat units)
         1           Si  tau(   1) = (   0.9482580   0.3239810   0.8260290  )
         2           Si  tau(   2) = (   0.5214230   0.4684010   0.2258780  )
         3           Si  tau(   3) = (   0.2235720   0.4412320   0.6685950  )
         4           Si  tau(   4) = (   0.4572740   0.7204470   0.9390960  )
         5           Si  tau(   5) = (   0.0643195   0.2862080   0.6144030  )
         6           Si  tau(   6) = (   0.1513330   0.4907960   0.9149720  )
         7           Si  tau(   7) = (   0.3769070   0.6960620   0.4156310  )
         8           Si  tau(   8) = (   0.4082170   0.9112390   0.3472940  )
         9           Si  tau(   9) = (   0.7903400   0.7574090   0.7423470  )
        10           Si  tau(  10) = (   0.8140950   0.8330200   0.3396630  )
        11           Si  tau(  11) = (   0.3066680   0.5745800   0.0492416  )
        12           Si  tau(  12) = (   0.7739850   0.4222960   0.5303390  )
        13           Si  tau(  13) = (   0.6852030   0.6599360   0.0146518  )
        14           Si  tau(  14) = (   0.8089970   0.5454960   0.7432750  )
        15           Si  tau(  15) = (   0.1331500   0.0779978   0.3108580  )
        16           Si  tau(  16) = (   0.5509700   0.9949970   0.5616320  )
        17           Si  tau(  17) = (   0.3167800   0.2867980   0.8070300  )
        18           Si  tau(  18) = (   0.2483540   0.1162470   0.9168350  )
        19           Si  tau(  19) = (   0.5452900   0.1586910   0.2188960  )
        20           Si  tau(  20) = (   0.7791500   0.2050440   0.7115080  )
        21           Si  tau(  21) = (   0.3807160   0.2780060   0.3716690  )
        22           Si  tau(  22) = (   0.8314010   0.2312260   0.2580910  )
        23           Si  tau(  23) = (   0.5851860   0.3653150   0.6503290  )
        24           Si  tau(  24) = (   0.4467850   0.4018010   0.9612490  )
        25           Si  tau(  25) = (   0.3487090   0.0929782   0.4906020  )
        26           Si  tau(  26) = (   0.8591550   0.1088560   0.4774590  )
        27           Si  tau(  27) = (   0.9770160   0.9643210   0.6055110  )
        28           Si  tau(  28) = (   0.1755440   0.3654470   0.2798260  )
        29           Si  tau(  29) = (   0.5027240   0.1760020   0.7147310  )
        30           Si  tau(  30) = (   0.6077350   0.5304120   0.8361120  )
        31           Si  tau(  31) = (   0.5389610   0.9812360   0.0271285  )
        32           Si  tau(  32) = (   0.6401620   0.3290530   0.3631610  )
        33           Si  tau(  33) = (   0.9072390   0.5903350   0.2811230  )
        34           Si  tau(  34) = (   0.0579502   0.3397330   0.0813186  )
        35           Si  tau(  35) = (   0.9960900   0.0856291   0.1367200  )
        36           Si  tau(  36) = (   0.3164860   0.2413500   0.1099110  )
        37           Si  tau(  37) = (   0.0615935   0.5685920   0.4777080  )
        38           Si  tau(  38) = (   0.0200768   0.7346370   0.9104300  )
        39           Si  tau(  39) = (   0.2178820   0.5917090   0.2829840  )
        40           Si  tau(  40) = (   0.0260086   0.1251710   0.9247520  )
        41           Si  tau(  41) = (   0.8773540   0.4221260   0.1267360  )
        42           Si  tau(  42) = (   0.5984760   0.6014830   0.4696820  )
        43           Si  tau(  43) = (   0.6700690   0.0239047   0.3828030  )
        44           Si  tau(  44) = (   0.1510190   0.8377160   0.4200420  )
        45           Si  tau(  45) = (   0.9029290   0.5512130   0.9426890  )
        46           Si  tau(  46) = (   0.2987080   0.0140176   0.1765330  )
        47           Si  tau(  47) = (   0.9185970   0.7578940   0.5327610  )
        48           Si  tau(  48) = (   0.1970610   0.7129940   0.6390980  )
        49           Si  tau(  49) = (   0.3726300   0.9229350   0.8968940  )
        50           Si  tau(  50) = (   0.7416350   0.8897480   0.9501670  )
        51           Si  tau(  51) = (   0.2025480   0.8019490   0.0489231  )
        52           Si  tau(  52) = (   0.9801660   0.3382480   0.4138750  )
        53           Si  tau(  53) = (   0.6404710   0.1442500   0.9038780  )
        54           Si  tau(  54) = (   0.6685960   0.6524130   0.2481510  )
        55           Si  tau(  55) = (   0.5781040   0.8581280   0.2178950  )
        56           Si  tau(  56) = (   0.8872860   0.8913090   0.1333630  )
        57           Si  tau(  57) = (   0.6292460   0.3080680   0.0751634  )
        58           Si  tau(  58) = (   0.4295810   0.4524230   0.5302940  )
        59           Si  tau(  59) = (   0.1482190   0.8963430   0.7756910  )
        60           Si  tau(  60) = (   0.4162480   0.6625400   0.7058590  )
        61           Si  tau(  61) = (   0.0819518   0.7575430   0.2279180  )
        62           Si  tau(  62) = (   0.1802050   0.1099160   0.6282890  )
        63           Si  tau(  63) = (   0.8843240   0.0039916   0.8009140  )
        64           Si  tau(  64) = (   0.5750940   0.7750790   0.6312850  )

     number of k points=     1
                       cart. coord. in units 2pi/alat
        k(    1) = (   0.0000000   0.0000000   0.0000000), wk =   2.0000000

     Dense  grid:    91434 G-vectors     FFT dimensions: (  72,  72,  72)

     Estimated max dynamical RAM per process >     134.62 MB

     Estimated total dynamical RAM >     516.16 MB

     Initial potential from superposition of free atoms

     starting charge     255.9608, renormalised to     256.0000
     Starting wfcs are  256 randomized atomic wfcs

     total cpu time spent up to now is        4.2 secs

     Self-consistent Calculation

     iteration #  1     ecut=    30.00 Ry     beta= 0.50
     Davidson diagonalization with overlap
     ethr =  1.00E-02,  avg # of iterations =  2.0

     Threshold (ethr) on eigenvalues was too large:
     Diagonalizing with lowered threshold

     Davidson diagonalization with overlap
     ethr =  3.92E-04,  avg # of iterations =  6.0

     total cpu time spent up to now is        4.3 secs

     total energy              =    -501.36793911 Ry
     estimated scf accuracy    <       1.23676124 Ry

     iteration #  2     ecut=    30.00 Ry     beta= 0.50
     Davidson diagonalization with overlap
     ethr =  4.83E-04,  avg # of iterations = 15.0

     total cpu time spent up to now is        4.5 secs

     total energy              =    -501.12178120 Ry
     estimated scf accuracy    <       2.76578481 Ry

     iteration #  3     ecut=    30.00 Ry     beta= 0.50
     Davidson diagonalization with overlap
     ethr =  4.83E-04,  avg # of iterations = 15.0

     total cpu time spent up to now is        4.6 secs

     total energy              =    -501.39315169 Ry
     estimated scf accuracy    <       2.11465927 Ry

     iteration #  4     ecut=    30.00 Ry     beta= 0.50
     Davidson diagonalization with overlap
     ethr =  4.83E-04,  avg # of iterations =  6.0

     total cpu time spent up to now is        4.7 secs

     total energy              =    -501.55565625 Ry
     estimated scf accuracy    <       0.27745520 Ry

     iteration #  5     ecut=    30.00 Ry     beta= 0.50
     Davidson diagonalization with overlap
     ethr =  1.08E-04,  avg # of iterations = 14.0

     total cpu time spent up to now is        4.8 secs

     total energy              =    -501.58669683 Ry
     estimated scf accuracy    <       0.19275930 Ry

     iteration #  6     ecut=    30.00 Ry     beta= 0.50
     Davidson diagonalization with overlap
     ethr =  7.53E-05,  avg # of iterations = 14.0

     total cpu time spent up to now is        5.0 secs

     total energy              =    -501.60739816 Ry
     estimated scf accuracy    <       0.07952277 Ry

     iteration #  7     ecut=    30.00 Ry     beta= 0.50
     Davidson diagonalization with overlap
     ethr =  3.11E-05,  avg # of iterations =  8.0

     total cpu time spent up to now is        5.1 secs

     total energy              =    -501.61186094 Ry
     estimated scf accuracy    <       0.01992154 Ry

     iteration #  8     ecut=    30.00 Ry     beta= 0.50
     Davidson diagonalization with overlap
     ethr =  7.78E-06,  avg # of iterations = 12.0

     total cpu time spent up to now is        5.2 secs

     total energy              =    -501.61467533 Ry
     estimated scf accuracy    <       0.00879299 Ry

     iteration #  9     ecut=    30.00 Ry     beta= 0.50
     Davidson diagonalization with overlap
     ethr =  3.43E-06,  avg # of iterations = 18.0

     total cpu time spent up to now is        5.4 secs

     total energy              =    -501.61537497 Ry
     estimated scf accuracy    <       0.00745449 Ry

     iteration # 10     ecut=    30.00 Ry     beta= 0.50
     Davidson diagonalization with overlap
     ethr =  2.91E-06,  avg # of iterations =  3.0

     total cpu time spent up to now is        5.4 secs

     total energy              =    -501.61516252 Ry
     estimated scf accuracy    <       0.00330068 Ry

     iteration # 11     ecut=    30.00 Ry     beta= 0.50
     Davidson diagonalization with overlap
     c_bands:  1 eigenvalues not converged
     ethr =  1.29E-06,  avg # of iterations = 20.0

     total cpu time spent up to now is        5.6 secs

     total energy              =    -501.61592252 Ry
     estimated scf accuracy    <       0.00410754 Ry

     iteration # 12     ecut=    30.00 Ry     beta= 0.50
     Davidson diagonalization with overlap
     ethr =  1.29E-06,  avg # of iterations = 17.0

     total cpu time spent up to now is        5.7 secs

     total energy              =    -501.61575812 Ry
     estimated scf accuracy    <       0.00292496 Ry

     iteration # 13     ecut=    30.00 Ry     beta= 0.50
     Davidson diagonalization with overlap
     ethr =  1.14E-06,  avg # of iterations =  2.0

     total cpu time spent up to now is        5.8 secs

     total energy              =    -501.61570931 Ry
     estimated scf accuracy    <       0.00160176 Ry

     iteration # 14     ecut=    30.00 Ry     beta= 0.50
     Davidson diagonalization with overlap
     c_bands:  1 eigenvalues not converged
     ethr =  6.26E-07,  avg # of iterations = 20.0

     total cpu time spent up to now is        6.0 secs

     total energy              =    -501.61588242 Ry
     estimated scf accuracy    <       0.00076944 Ry

     iteration # 15     ecut=    30.00 Ry     beta= 0.50
     Davidson diagonalization with overlap
     ethr =  3.01E-07,  avg # of iterations = 16.0

     total cpu time spent up to now is        6.1 secs

     total energy              =    -501.61588892 Ry
     estimated scf accuracy    <       0.00071114 Ry

     iteration # 16     ecut=    30.00 Ry     beta= 0.50
     Davidson diagonalization with overlap
     ethr =  2.78E-07,  avg # of iterations =  2.0

     total cpu time spent up to now is        6.2 secs

     total energy              =    -501.61583557 Ry
     estimated scf accuracy    <       0.00046649 Ry

     iteration # 17     ecut=    30.00 Ry     beta= 0.50
     Davidson diagonalization with overlap
     c_bands:  1 eigenvalues not converged
     ethr =  1.82E-07,  avg # of iterations = 20.0

     total cpu time spent up to now is        6.3 secs

     total energy              =    -501.61592404 Ry
     estimated scf accuracy    <       0.00049686 Ry

     iteration # 18     ecut=    30.00 Ry     beta= 0.50
     Davidson diagonalization with overlap
     ethr =  1.82E-07,  avg # of iterations = 11.0

     total cpu time spent up to now is        6.4 secs

     total energy              =    -501.61592341 Ry
     estimated scf accuracy    <       0.00048664 Ry

     iteration # 19     ecut=    30.00 Ry     beta= 0.50
     Davidson diagonalization with overlap
     ethr =  1.82E-07,  avg # of iterations =  2.0

     total cpu time spent up to now is        6.5 secs

     total energy              =    -501.61589591 Ry
     estimated scf accuracy    <       0.00041749 Ry

     iteration # 20     ecut=    30.00 Ry     beta= 0.50
     Davidson diagonalization with overlap
     ethr =  1.63E-07,  avg # of iterations =  2.0

     total cpu time spent up to now is        6.6 secs

     total energy              =    -501.61588770 Ry
     estimated scf accuracy    <       0.00025057 Ry

     iteration # 21     ecut=    30.00 Ry     beta= 0.50
     Davidson diagonalization with overlap
     c_bands:  1 eigenvalues not converged
     ethr =  9.79E-08,  avg # of iterations = 20.0

     total cpu time spent up to now is        6.7 secs

     total energy              =    -501.61592372 Ry
     estimated scf accuracy    <       0.00009648 Ry

     iteration # 22     ecut=    30.00 Ry     beta= 0.50
     Davidson diagonalization with overlap
     ethr =  3.77E-08,  avg # of iterations = 13.0

     total cpu time spent up to now is        6.8 secs

     total energy              =    -501.61593021 Ry
     estimated scf accuracy    <       0.00008293 Ry

     iteration # 23     ecut=    30.00 Ry     beta= 0.50
     Davidson diagonalization with overlap
     ethr =  3.24E-08,  avg # of iterations =  1.0

     total cpu time spent up to now is        6.9 secs

     total energy              =    -501.61592872 Ry
     estimated scf accuracy    <       0.00010241 Ry

     iteration # 24     ecut=    30.00 Ry     beta= 0.50
     Davidson diagonalization with overlap
     ethr =  3.24E-08,  avg # of iterations =  1.0

     total cpu time spent up to now is        6.9 secs

     total energy              =    -501.61592608 Ry
     estimated scf accuracy    <       0.00009895 Ry

     iteration # 25     ecut=    30.00 Ry     beta= 0.50
     Davidson diagonalization with overlap
     ethr =  3.24E-08,  avg # of iterations =  1.0

     total cpu time spent up to now is        7.0 secs

     total energy              =    -501.61592368 Ry
     estimated scf accuracy    <       0.00008404 Ry

     iteration # 26     ecut=    30.00 Ry     beta= 0.50
     Davidson diagonalization with overlap
     ethr =  3.24E-08,  avg # of iterations =  1.0

     total cpu time spent up to now is        7.1 secs

     total energy              =    -501.61592231 Ry
     estimated scf accuracy    <       0.00006695 Ry

     iteration # 27     ecut=    30.00 Ry     beta= 0.50
     Davidson diagonalization with overlap
     ethr =  2.62E-08,  avg # of iterations =  2.0

     total cpu time spent up to now is        7.2 secs

     total energy              =    -501.61592279 Ry
     estimated scf accuracy    <       0.00005577 Ry

     iteration # 28     ecut=    30.00 Ry     beta= 0.50
     Davidson diagonalization with overlap
     ethr =  2.18E-08,  avg # of iterations =  1.0

     total cpu time spent up to now is        7.2 secs

     total energy              =    -501.61592416 Ry
     estimated scf accuracy    <       0.00005329 Ry

     iteration # 29     ecut=    30.00 Ry     beta= 0.50
     Davidson diagonalization with overlap
     ethr =  2.08E-08,  avg # of iterations =  1.0

     total cpu time spent up to now is        7.3 secs

     total energy              =    -501.61590590 Ry
     estimated scf accuracy    <       0.00005839 Ry

     iteration # 30     ecut=    30.00 Ry     beta= 0.50
     Davidson diagonalization with overlap
     c_bands:  1 eigenvalues not converged
     ethr =  2.08E-08,  avg # of iterations = 20.0

     total cpu time spent up to now is        7.5 secs

     total energy              =    -501.61587606 Ry
     estimated scf accuracy    <       0.00116759 Ry

     iteration # 31     ecut=    30.00 Ry     beta= 0.50
     Davidson diagonalization with overlap
     c_bands:  1 eigenvalues not converged
     ethr =  2.08E-08,  avg # of iterations = 20.0

     total cpu time spent up to now is        7.6 secs

     total energy              =    -501.61591701 Ry
     estimated scf accuracy    <       0.00017658 Ry

     iteration # 32     ecut=    30.00 Ry     beta= 0.50
     Davidson diagonalization with overlap
     c_bands:  1 eigenvalues not converged
     ethr =  2.08E-08,  avg # of iterations = 20.0

     total cpu time spent up to now is        7.8 secs

     total energy              =    -501.61592217 Ry
     estimated scf accuracy    <       0.00005304 Ry

     iteration # 33     ecut=    30.00 Ry     beta= 0.50
     Davidson diagonalization with overlap
     ethr =  2.07E-08,  avg # of iterations =  2.0

     total cpu time spent up to now is        7.8 secs

     total energy              =    -501.61592097 Ry
     estimated scf accuracy    <       0.00004559 Ry

     iteration # 34     ecut=    30.00 Ry     beta= 0.50
     Davidson diagonalization with overlap
     ethr =  1.78E-08,  avg # of iterations =  2.0

     total cpu time spent up to now is        7.9 secs

     total energy              =    -501.61591942 Ry
     estimated scf accuracy    <       0.00003625 Ry

     iteration # 35     ecut=    30.00 Ry     beta= 0.50
     Davidson diagonalization with overlap
     c_bands:  1 eigenvalues not converged
     ethr =  1.42E-08,  avg # of iterations = 20.0

     total cpu time spent up to now is        8.1 secs

     total energy              =    -501.61592497 Ry
     estimated scf accuracy    <       0.00001036 Ry

     iteration # 36     ecut=    30.00 Ry     beta= 0.50
     Davidson diagonalization with overlap
     c_bands:  1 eigenvalues not converged
     ethr =  4.05E-09,  avg # of iterations = 20.0

     total cpu time spent up to now is        8.2 secs

     total energy              =    -501.61592555 Ry
     estimated scf accuracy    <       0.00001423 Ry

     iteration # 37     ecut=    30.00 Ry     beta= 0.50
     Davidson diagonalization with overlap
     ethr =  4.05E-09,  avg # of iterations =  1.0

     total cpu time spent up to now is        8.3 secs

     total energy              =    -501.61592507 Ry
     estimated scf accuracy    <       0.00001362 Ry

     iteration # 38     ecut=    30.00 Ry     beta= 0.50
     Davidson diagonalization with overlap
     ethr =  4.05E-09,  avg # of iterations =  1.0

     total cpu time spent up to now is        8.3 secs

     total energy              =    -501.61592367 Ry
     estimated scf accuracy    <       0.00001131 Ry

     iteration # 39     ecut=    30.00 Ry     beta= 0.50
     Davidson diagonalization with overlap
     c_bands:  1 eigenvalues not converged
     ethr =  4.05E-09,  avg # of iterations = 20.0

     total cpu time spent up to now is        8.5 secs

     total energy              =    -501.61592455 Ry
     estimated scf accuracy    <       0.00000296 Ry

     iteration # 40     ecut=    30.00 Ry     beta= 0.50
     Davidson diagonalization with overlap
     c_bands:  1 eigenvalues not converged
     ethr =  1.16E-09,  avg # of iterations = 20.0

     total cpu time spent up to now is        8.6 secs

     End of self-consistent calculation

          k = 0.0000 0.0000 0.0000 ( 11492 PWs)   bands (ev):

    -5.4290  -4.4898  -4.3906  -4.3416  -4.2818  -4.1675  -4.0913  -3.6292
    -3.4166  -3.3445  -3.2844  -3.2514  -3.0986  -3.0086  -2.9925  -2.8457
    -2.7459  -2.6338  -2.6227  -2.3432  -2.1321  -2.0709  -1.9422  -1.8145
    -1.6371  -1.5893  -1.3568  -1.1469  -1.0125  -0.8844  -0.7353  -0.5935
    -0.5377  -0.3644  -0.1498  -0.0664  -0.0335  -0.0136   0.0446   0.1100
     0.1762   0.1994   0.3391   0.3651   0.5422   0.6843   0.7293   0.7693
     0.8864   1.0099   1.1616   1.1786   1.2927   1.4039   1.4223   1.5448
     1.6294   1.6771   1.7784   1.9820   2.1048   2.1494   2.1691   2.2826
     2.4327   2.5362   2.6098   2.6596   2.7622   2.7955   2.8319   2.9259
     2.9922   3.0473   3.1823   3.2448   3.2873   3.4080   3.4360   3.5234
     3.6768   4.0009   4.0339   4.2324   4.3019   4.3288   4.3927   4.5025
     4.5482   4.6821   4.7225   4.7506   4.8433   4.8799   4.9282   5.0135
     5.1213   5.1484   5.2415   5.2549   5.3052   5.3767   5.4007   5.5058
     5.5563   5.6181   5.6780   5.7018   5.7140   5.8364   5.8600   5.9280
     6.0074   6.0692   6.0822   6.1093   6.2517   6.3328   6.3963   6.4640
     6.5090   6.5675   6.6896   6.7011   6.7288   6.7836   6.8385   6.9191

     highest occupied level (ev):     6.9191

!    total energy              =    -501.61592446 Ry
     estimated scf accuracy    <       0.00000053 Ry

     The total energy is the sum of the following terms:
     one-electron contribution =     182.98878343 Ry
     hartree contribution      =      25.27404221 Ry
     xc contribution           =    -150.89226475 Ry
     ewald contribution        =    -558.98648536 Ry

     convergence has been achieved in  40 iterations

     Forces acting on atoms (cartesian axes, Ry/au):

     atom    1 type  1   force =     0.01427625   -0.01926069   -0.02609751
     atom    2 type  1   force =     0.01524004    0.01384378   -0.02054406
     atom    3 type  1   force =     0.00783407    0.01489687    0.00389907
     atom    4 type  1   force =     0.01312086   -0.04991767   -0.01001538
     atom    5 type  1   force =    -0.02219915    0.02666253    0.02730998
     atom    6 type  1   force =    -0.03016521   -0.01425093   -0.00433181
     atom    7 type  1   force =    -0.02105861    0.00441277    0.02239990
     atom    8 type  1   force =    -0.02525809   -0.00379026    0.00568994
     atom    9 type  1   force =    -0.02465364    0.04534387   -0.02570900
     atom   10 type  1   force =    -0.05020172   -0.00490557   -0.01196786
     atom   11 type  1   force =     0.02672350    0.01033816    0.00689052
     atom   12 type  1   force =    -0.03799205    0.00772459    0.03552784
     atom   13 type  1   force =    -0.02024235    0.01942603   -0.00338487
     atom   14 type  1   force =    -0.02725975   -0.04490561   -0.03192281
     atom   15 type  1   force =    -0.00029305   -0.02161770    0.01125569
     atom   16 type  1   force =    -0.01560194    0.00392115    0.03279879
     atom   17 type  1   force =     0.03523733    0.01513206   -0.00744315
     atom   18 type  1   force =    -0.01999225   -0.01865581    0.01952279
     atom   19 type  1   force =    -0.03278159   -0.00909967    0.02021770
     atom   20 type  1   force =     0.00903791   -0.00148284   -0.02363399
     atom   21 type  1   force =     0.01682544    0.02010321   -0.03010216
     atom   22 type  1   force =    -0.00086362   -0.00743025    0.01641375
     atom   23 type  1   force =     0.04399494    0.00897039    0.01189411
     atom   24 type  1   force =     0.00652144    0.00999441    0.00548648
     atom   25 type  1   force =     0.01499212   -0.02753448   -0.01871409
     atom   26 type  1   force =    -0.01567690    0.03981856    0.01042024
     atom   27 type  1   force =     0.03771747   -0.01259708   -0.00439022
     atom   28 type  1   force =     0.01101643   -0.01838040   -0.01144599
     atom   29 type  1   force =     0.01500331   -0.02371852    0.01115197
     atom   30 type  1   force =    -0.03714729   -0.00906660   -0.01826181
     atom   31 type  1   force =     0.03066698    0.00735779    0.03054423
     atom   32 type  1   force =     0.00405720   -0.01428665    0.00223650
     atom   33 type  1   force =     0.00967229   -0.01260769   -0.01080470
     atom   34 type  1   force =     0.11226073   -0.02339650   -0.02546244
     atom   35 type  1   force =    -0.02679409    0.02498882    0.02609895
     atom   36 type  1   force =     0.00446167   -0.01505870    0.02353153
     atom   37 type  1   force =    -0.01483419    0.01374544   -0.02661444
     atom   38 type  1   force =     0.01520190    0.01694668   -0.00654838
     atom   39 type  1   force =     0.02219317   -0.01895916   -0.00668076
     atom   40 type  1   force =     0.00734592    0.02628444   -0.00817710
     atom   41 type  1   force =    -0.08168083    0.04941185    0.02670079
     atom   42 type  1   force =     0.00229537   -0.00263528    0.00070466
     atom   43 type  1   force =     0.01066194   -0.01185780   -0.03892411
     atom   44 type  1   force =     0.00804016    0.03371544    0.02317514
     atom   45 type  1   force =     0.00552838   -0.02368624    0.01833016
     atom   46 type  1   force =    -0.00116507   -0.00206908   -0.01581234
     atom   47 type  1   force =     0.01481570    0.00744601    0.00970508
     atom   48 type  1   force =     0.02502719   -0.01893941   -0.03906487
     atom   49 type  1   force =    -0.04373630    0.00227670    0.00152765
     atom   50 type  1   force =     0.01239128   -0.02419752    0.00744286
     atom   51 type  1   force =     0.02947507    0.00886370   -0.02111022
     atom   52 type  1   force =    -0.00889505    0.02433809    0.00224750
     atom   53 type  1   force =     0.00535682    0.01278605   -0.01103743
     atom   54 type  1   force =     0.01687103    0.01513491    0.00218125
     atom   55 type  1   force =     0.03158172    0.00090670    0.00086373
     atom   56 type  1   force =     0.00423622   -0.01404395   -0.00322070
     atom   57 type  1   force =     0.01229200    0.01309636   -0.00870510
     atom   58 type  1   force =    -0.02701363    0.03280755    0.00524280
     atom   59 type  1   force =    -0.01996949    0.02129303    0.00054845
     atom   60 type  1   force =    -0.02521350   -0.03750749    0.03853153
     atom   61 type  1   force =    -0.04913438   -0.02386872   -0.00440450
     atom   62 type  1   force =    -0.01711446   -0.06288914    0.03455084
     atom   63 type  1   force =    -0.02193307    0.00327948    0.00623011
     atom   64 type  1   force =     0.06689741    0.03735003   -0.02674073

     Total force =     0.335092     Total SCF correction =     0.001398


     Computing stress (Cartesian axis) and pressure

          total   stress  (Ry/bohr**3)                   (kbar)     P=      -31.79
  -0.00018877   0.00006824  -0.00000893          -27.77       10.04       -1.31
   0.00006824  -0.00020377  -0.00004030           10.04      -29.98       -5.93
  -0.00000893  -0.00004030  -0.00025582           -1.31       -5.93      -37.63

 
     init_run     :      0.95s CPU      4.09s WALL (       1 calls)
     electrons    :      4.21s CPU      4.46s WALL (       1 calls)
     forces       :      0.03s CPU      0.03s WALL (       1 calls)
     stress       :      0.12s CPU      0.12s WALL (       1 calls)

     Called by init_run:
     wfcinit      :      0.42s CPU      3.43s WALL (       1 calls)
                                        3.43s GPU  (       1 calls)
     potinit      :      0.06s CPU      0.13s WALL (       1 calls)
     hinit0       :      0.45s CPU      0.48s WALL (       1 calls)

     Called by electrons:
     c_bands      :      3.00s CPU      3.12s WALL (      41 calls)
     sum_band     :      0.56s CPU      0.65s WALL (      41 calls)
     v_of_rho     :      0.25s CPU      0.33s WALL (      41 calls)
     mix_rho      :      0.34s CPU      0.36s WALL (      41 calls)

     Called by c_bands:
     init_us_2    :      0.10s CPU      0.11s WALL (      83 calls)
     init_us_2:gp :      0.10s CPU      0.11s WALL (      83 calls)
     regterg      :      2.71s CPU      2.82s WALL (      41 calls)

     Called by *egterg:
     rdiaghg      :      1.36s CPU      2.00s WALL (     452 calls)
                                        1.94s GPU  (     452 calls)
     h_psi        :      1.37s CPU      3.83s WALL (     454 calls)
                                        3.82s GPU  (     454 calls)
     g_psi        :      0.00s CPU      0.01s WALL (     412 calls)
                                        0.01s GPU  (     412 calls)

     Called by h_psi:
     h_psi:calbec :      0.50s CPU      2.86s WALL (     454 calls)
                                        2.85s GPU  (     454 calls)
     vloc_psi     :      0.63s CPU      0.72s WALL (     454 calls)
                                        0.71s GPU  (     454 calls)
     add_vuspsi   :      0.19s CPU      0.23s WALL (     454 calls)
                                        0.23s GPU  (     454 calls)

     General routines
     calbec       :      0.50s CPU      2.85s WALL (     459 calls)
     fft          :      0.64s CPU      0.76s WALL (     335 calls)
                                        0.12s GPU  (     211 calls)
     ffts         :      0.06s CPU      0.07s WALL (      41 calls)
     fftw         :      0.75s CPU      0.97s WALL (    4084 calls)
                                        0.84s GPU  (    4084 calls)
 
     Parallel routines
 
     PWSCF        :      5.35s CPU      8.78s WALL

 
   This run was terminated on:  15:14: 7   9May2023            

=------------------------------------------------------------------------------=
   JOB DONE.
=------------------------------------------------------------------------------=
