An instance of this daemon is already running

     Program PWSCF v.7.1 starts on  9May2023 at 15:17:12 

     This program is part of the open-source Quantum ESPRESSO suite
     for quantum simulation of materials; please cite
         "P. Giannozzi et al., J. Phys.:Condens. Matter 21 395502 (2009);
         "P. Giannozzi et al., J. Phys.:Condens. Matter 29 465901 (2017);
         "P. Giannozzi et al., J. Chem. Phys. 152 154105 (2020);
          URL http://www.quantum-espresso.org", 
     in publications or presentations arising from this work. More details at
     http://www.quantum-espresso.org/quote

     Parallel version (MPI & OpenMP), running on       4 processor cores
     Number of MPI processes:                 4
     Threads/MPI process:                     1

     MPI processes distributed on     1 nodes
     13707 MiB available memory on the printing compute node when the environment starts
 
     Reading input from pw-si-51.in
Warning: card &CELL ignored
Warning: card / ignored

     Current dimensions of program PWSCF are:
     Max number of different atomic species (ntypx) = 10
     Max number of k-points (npk) =  40000
     Max angular momentum in pseudopotentials (lmaxx) =  4

     IMPORTANT: XC functional enforced from input :
     Exchange-correlation= PBE
                           (   1   4   3   4   0   0   0)
     Any further DFT definition will be discarded
     Please, verify this is what you really want


     gamma-point specific algorithms are used
 
     K-points division:     npool     =       2
     R & G space division:  proc/nbgrp/npool/nimage =       2
     Subspace diagonalization in iterative solution of the eigenvalue problem:
     a serial algorithm will be used

     Message from routine divide_et_impera:
     suboptimal parallelization: some nodes have no k-points
 
     Parallelization info
     --------------------
     sticks:   dense  smooth     PW     G-vecs:    dense   smooth      PW
     Min        1933    1933    516                90543    90543   12416
     Max        1936    1936    517                90548    90548   12421
     Sum        3869    3869   1033               181091   181091   24837
 
     Using Slab Decomposition
 


     bravais-lattice index     =            0
     lattice parameter (alat)  =      20.1396  a.u.
     unit-cell volume          =    8168.7033 (a.u.)^3
     number of atoms/cell      =           64
     number of atomic types    =            1
     number of electrons       =       256.00
     number of Kohn-Sham states=          128
     kinetic-energy cutoff     =      30.0000  Ry
     charge density cutoff     =     120.0000  Ry
     scf convergence threshold =      1.0E-06
     mixing beta               =       0.5000
     number of iterations used =            8  plain     mixing
     Exchange-correlation= PBE
                           (   1   4   3   4   0   0   0)

     GPU acceleration is ACTIVE.
     GPU-aware MPI enabled

     Message from routine print_cuda_info:
     High GPU oversubscription detected. Are you sure this is what you want?

     celldm(1)=  20.139609  celldm(2)=   0.000000  celldm(3)=   0.000000
     celldm(4)=   0.000000  celldm(5)=   0.000000  celldm(6)=   0.000000

     crystal axes: (cart. coord. in units of alat)
               a(1) = (   1.000000   0.000000   0.000000 )  
               a(2) = (   0.000000   1.000000   0.000000 )  
               a(3) = (   0.000000   0.000000   1.000000 )  

     reciprocal axes: (cart. coord. in units 2 pi/alat)
               b(1) = (  1.000000  0.000000  0.000000 )  
               b(2) = (  0.000000  1.000000  0.000000 )  
               b(3) = (  0.000000  0.000000  1.000000 )  


     PseudoPot. # 1 for Si read from file:
     /home/ppiaggi/pseudos/Si_ONCV_PBE_sr.upf
     MD5 check sum: 8553c464762ac42b85b1eed164b4d029
     Pseudo is Norm-conserving, Zval =  4.0
     Generated using ONCVPSP code by D. R. Hamann
     Using radial grid of 1510 points,  4 beta functions with: 
                l(1) =   0
                l(2) =   0
                l(3) =   1
                l(4) =   1

     atomic species   valence    mass     pseudopotential
        Si             4.00    28.08500     Si( 1.00)

     No symmetry found



   Cartesian axes

     site n.     atom                  positions (alat units)
         1           Si  tau(   1) = (   0.8913350   0.6922930   0.0149720  )
         2           Si  tau(   2) = (   0.9251120   0.7935880   0.3139540  )
         3           Si  tau(   3) = (   0.1682710   0.5771370   0.0098615  )
         4           Si  tau(   4) = (   0.4370240   0.3722130   0.8337720  )
         5           Si  tau(   5) = (   0.2246860   0.1231550   0.7891160  )
         6           Si  tau(   6) = (   0.3008770   0.7869500   0.1550600  )
         7           Si  tau(   7) = (   0.4932820   0.0674759   0.5655250  )
         8           Si  tau(   8) = (   0.0623937   0.7841480   0.1318890  )
         9           Si  tau(   9) = (   0.0055434   0.4153450   0.7378610  )
        10           Si  tau(  10) = (   0.9329260   0.0918000   0.6790900  )
        11           Si  tau(  11) = (   0.6959920   0.1197070   0.4371620  )
        12           Si  tau(  12) = (   0.0292461   0.9927840   0.0362385  )
        13           Si  tau(  13) = (   0.4751550   0.0273879   0.0462515  )
        14           Si  tau(  14) = (   0.8701020   0.3189540   0.3765860  )
        15           Si  tau(  15) = (   0.2665250   0.9629500   0.4401480  )
        16           Si  tau(  16) = (   0.7192700   0.5847750   0.4903530  )
        17           Si  tau(  17) = (   0.4224560   0.8945590   0.7359060  )
        18           Si  tau(  18) = (   0.8790350   0.3371740   0.0350356  )
        19           Si  tau(  19) = (   0.8797340   0.9787480   0.4929870  )
        20           Si  tau(  20) = (   0.6898890   0.3143150   0.9014720  )
        21           Si  tau(  21) = (   0.0650933   0.0972498   0.4055710  )
        22           Si  tau(  22) = (   0.6086400   0.1905030   0.0887919  )
        23           Si  tau(  23) = (   0.1140940   0.5378970   0.5898330  )
        24           Si  tau(  24) = (   0.0954853   0.4054840   0.4082700  )
        25           Si  tau(  25) = (   0.4412660   0.4235130   0.0949413  )
        26           Si  tau(  26) = (   0.6174190   0.6076890   0.1552710  )
        27           Si  tau(  27) = (   0.6536190   0.5610980   0.9102810  )
        28           Si  tau(  28) = (   0.5399350   0.5114530   0.3620980  )
        29           Si  tau(  29) = (   0.7992530   0.9115350   0.7852600  )
        30           Si  tau(  30) = (   0.3302710   0.2397110   0.5428530  )
        31           Si  tau(  31) = (   0.5369020   0.2840160   0.2798520  )
        32           Si  tau(  32) = (   0.1917450   0.1248810   0.1562430  )
        33           Si  tau(  33) = (   0.4438350   0.6590030   0.5229530  )
        34           Si  tau(  34) = (   0.9545170   0.1927950   0.2080300  )
        35           Si  tau(  35) = (   0.3479290   0.0005059   0.2460350  )
        36           Si  tau(  36) = (   0.5942870   0.7647890   0.7285610  )
        37           Si  tau(  37) = (   0.0669154   0.3925750   0.9590100  )
        38           Si  tau(  38) = (   0.4781430   0.8085620   0.9862290  )
        39           Si  tau(  39) = (   0.1367050   0.7514910   0.4086040  )
        40           Si  tau(  40) = (   0.4563140   0.4053480   0.6050370  )
        41           Si  tau(  41) = (   0.0505372   0.7018560   0.8423850  )
        42           Si  tau(  42) = (   0.8281360   0.5350850   0.1471840  )
        43           Si  tau(  43) = (   0.2145720   0.8376020   0.6573610  )
        44           Si  tau(  44) = (   0.2518260   0.4721440   0.2053830  )
        45           Si  tau(  45) = (   0.8064830   0.2845820   0.6982110  )
        46           Si  tau(  46) = (   0.3035690   0.6257100   0.3380960  )
        47           Si  tau(  47) = (   0.7196930   0.8192380   0.5372370  )
        48           Si  tau(  48) = (   0.7032060   0.8327450   0.2540290  )
        49           Si  tau(  49) = (   0.9093330   0.5648630   0.3299150  )
        50           Si  tau(  50) = (   0.2981100   0.2710550   0.3389830  )
        51           Si  tau(  51) = (   0.3943880   0.6058650   0.8869090  )
        52           Si  tau(  52) = (   0.7256070   0.8261160   0.0054782  )
        53           Si  tau(  53) = (   0.8301610   0.0745016   0.9691910  )
        54           Si  tau(  54) = (   0.4310270   0.1037540   0.8557250  )
        55           Si  tau(  55) = (   0.1110270   0.2348410   0.6333950  )
        56           Si  tau(  56) = (   0.2985520   0.6253280   0.6692640  )
        57           Si  tau(  57) = (   0.8146100   0.5715800   0.7164930  )
        58           Si  tau(  58) = (   0.6875890   0.3512950   0.5319010  )
        59           Si  tau(  59) = (   0.9537590   0.7591510   0.6038260  )
        60           Si  tau(  60) = (   0.2495730   0.2785360   0.9646980  )
        61           Si  tau(  61) = (   0.5095270   0.8787250   0.4094160  )
        62           Si  tau(  62) = (   0.7668890   0.0519048   0.2130830  )
        63           Si  tau(  63) = (   0.0869649   0.9541430   0.8192510  )
        64           Si  tau(  64) = (   0.6458690   0.0927419   0.7235200  )

     number of k points=     1
                       cart. coord. in units 2pi/alat
        k(    1) = (   0.0000000   0.0000000   0.0000000), wk =   2.0000000

     Dense  grid:    90546 G-vectors     FFT dimensions: (  72,  72,  72)

     Estimated max dynamical RAM per process >     133.49 MB

     Estimated total dynamical RAM >     511.85 MB

     Initial potential from superposition of free atoms

     starting charge     255.9608, renormalised to     256.0000
     Starting wfcs are  256 randomized atomic wfcs

     total cpu time spent up to now is        4.2 secs

     Self-consistent Calculation

     iteration #  1     ecut=    30.00 Ry     beta= 0.50
     Davidson diagonalization with overlap
     ethr =  1.00E-02,  avg # of iterations =  2.0

     Threshold (ethr) on eigenvalues was too large:
     Diagonalizing with lowered threshold

     Davidson diagonalization with overlap
     ethr =  3.82E-04,  avg # of iterations =  6.0

     total cpu time spent up to now is        4.3 secs

     total energy              =    -501.25710548 Ry
     estimated scf accuracy    <       1.19933674 Ry

     iteration #  2     ecut=    30.00 Ry     beta= 0.50
     Davidson diagonalization with overlap
     ethr =  4.68E-04,  avg # of iterations =  8.0

     total cpu time spent up to now is        4.4 secs

     total energy              =    -501.11171454 Ry
     estimated scf accuracy    <       1.81857585 Ry

     iteration #  3     ecut=    30.00 Ry     beta= 0.50
     Davidson diagonalization with overlap
     ethr =  4.68E-04,  avg # of iterations = 11.0

     total cpu time spent up to now is        4.6 secs

     total energy              =    -501.27394852 Ry
     estimated scf accuracy    <       1.79057895 Ry

     iteration #  4     ecut=    30.00 Ry     beta= 0.50
     Davidson diagonalization with overlap
     ethr =  4.68E-04,  avg # of iterations =  7.0

     total cpu time spent up to now is        4.7 secs

     total energy              =    -501.43029584 Ry
     estimated scf accuracy    <       0.27556540 Ry

     iteration #  5     ecut=    30.00 Ry     beta= 0.50
     Davidson diagonalization with overlap
     ethr =  1.08E-04,  avg # of iterations = 10.0

     total cpu time spent up to now is        4.8 secs

     total energy              =    -501.46289882 Ry
     estimated scf accuracy    <       0.11706744 Ry

     iteration #  6     ecut=    30.00 Ry     beta= 0.50
     Davidson diagonalization with overlap
     ethr =  4.57E-05,  avg # of iterations = 16.0

     total cpu time spent up to now is        4.9 secs

     total energy              =    -501.47078830 Ry
     estimated scf accuracy    <       0.16277745 Ry

     iteration #  7     ecut=    30.00 Ry     beta= 0.50
     Davidson diagonalization with overlap
     ethr =  4.57E-05,  avg # of iterations =  3.0

     total cpu time spent up to now is        5.0 secs

     total energy              =    -501.47542484 Ry
     estimated scf accuracy    <       0.03468886 Ry

     iteration #  8     ecut=    30.00 Ry     beta= 0.50
     Davidson diagonalization with overlap
     ethr =  1.36E-05,  avg # of iterations = 17.0

     total cpu time spent up to now is        5.2 secs

     total energy              =    -501.48291774 Ry
     estimated scf accuracy    <       0.02774490 Ry

     iteration #  9     ecut=    30.00 Ry     beta= 0.50
     Davidson diagonalization with overlap
     ethr =  1.08E-05,  avg # of iterations =  2.0

     total cpu time spent up to now is        5.3 secs

     total energy              =    -501.48193884 Ry
     estimated scf accuracy    <       0.01916860 Ry

     iteration # 10     ecut=    30.00 Ry     beta= 0.50
     Davidson diagonalization with overlap
     ethr =  7.49E-06,  avg # of iterations =  3.0

     total cpu time spent up to now is        5.3 secs

     total energy              =    -501.48134160 Ry
     estimated scf accuracy    <       0.00927461 Ry

     iteration # 11     ecut=    30.00 Ry     beta= 0.50
     Davidson diagonalization with overlap
     c_bands:  1 eigenvalues not converged
     ethr =  3.62E-06,  avg # of iterations = 20.0

     total cpu time spent up to now is        5.5 secs

     total energy              =    -501.48431483 Ry
     estimated scf accuracy    <       0.01652922 Ry

     iteration # 12     ecut=    30.00 Ry     beta= 0.50
     Davidson diagonalization with overlap
     ethr =  3.62E-06,  avg # of iterations =  2.0

     total cpu time spent up to now is        5.6 secs

     total energy              =    -501.48371107 Ry
     estimated scf accuracy    <       0.01376270 Ry

     iteration # 13     ecut=    30.00 Ry     beta= 0.50
     Davidson diagonalization with overlap
     ethr =  3.62E-06,  avg # of iterations =  1.0

     total cpu time spent up to now is        5.6 secs

     total energy              =    -501.48301984 Ry
     estimated scf accuracy    <       0.01029160 Ry

     iteration # 14     ecut=    30.00 Ry     beta= 0.50
     Davidson diagonalization with overlap
     ethr =  3.62E-06,  avg # of iterations =  2.0

     total cpu time spent up to now is        5.7 secs

     total energy              =    -501.48288136 Ry
     estimated scf accuracy    <       0.00599128 Ry

     iteration # 15     ecut=    30.00 Ry     beta= 0.50
     Davidson diagonalization with overlap
     c_bands:  1 eigenvalues not converged
     ethr =  2.34E-06,  avg # of iterations = 20.0

     total cpu time spent up to now is        5.9 secs

     total energy              =    -501.48385241 Ry
     estimated scf accuracy    <       0.00310515 Ry

     iteration # 16     ecut=    30.00 Ry     beta= 0.50
     Davidson diagonalization with overlap
     c_bands:  1 eigenvalues not converged
     ethr =  1.21E-06,  avg # of iterations = 20.0

     total cpu time spent up to now is        6.0 secs

     total energy              =    -501.48373992 Ry
     estimated scf accuracy    <       0.00477632 Ry

     iteration # 17     ecut=    30.00 Ry     beta= 0.50
     Davidson diagonalization with overlap
     ethr =  1.21E-06,  avg # of iterations =  2.0

     total cpu time spent up to now is        6.1 secs

     total energy              =    -501.48331748 Ry
     estimated scf accuracy    <       0.00359253 Ry

     iteration # 18     ecut=    30.00 Ry     beta= 0.50
     Davidson diagonalization with overlap
     c_bands:  1 eigenvalues not converged
     ethr =  1.21E-06,  avg # of iterations = 20.0

     total cpu time spent up to now is        6.2 secs

     total energy              =    -501.48382826 Ry
     estimated scf accuracy    <       0.00160295 Ry

     iteration # 19     ecut=    30.00 Ry     beta= 0.50
     Davidson diagonalization with overlap
     ethr =  6.26E-07,  avg # of iterations = 11.0

     total cpu time spent up to now is        6.4 secs

     total energy              =    -501.48390657 Ry
     estimated scf accuracy    <       0.00152909 Ry

     iteration # 20     ecut=    30.00 Ry     beta= 0.50
     Davidson diagonalization with overlap
     ethr =  5.97E-07,  avg # of iterations =  2.0

     total cpu time spent up to now is        6.4 secs

     total energy              =    -501.48367190 Ry
     estimated scf accuracy    <       0.00185237 Ry

     iteration # 21     ecut=    30.00 Ry     beta= 0.50
     Davidson diagonalization with overlap
     ethr =  5.97E-07,  avg # of iterations =  3.0

     total cpu time spent up to now is        6.5 secs

     total energy              =    -501.48369608 Ry
     estimated scf accuracy    <       0.00112584 Ry

     iteration # 22     ecut=    30.00 Ry     beta= 0.50
     Davidson diagonalization with overlap
     ethr =  4.40E-07,  avg # of iterations =  2.0

     total cpu time spent up to now is        6.6 secs

     total energy              =    -501.48369993 Ry
     estimated scf accuracy    <       0.00090549 Ry

     iteration # 23     ecut=    30.00 Ry     beta= 0.50
     Davidson diagonalization with overlap
     ethr =  3.54E-07,  avg # of iterations =  1.0

     total cpu time spent up to now is        6.6 secs

     total energy              =    -501.48348188 Ry
     estimated scf accuracy    <       0.00077217 Ry

     iteration # 24     ecut=    30.00 Ry     beta= 0.50
     Davidson diagonalization with overlap
     c_bands:  1 eigenvalues not converged
     ethr =  3.02E-07,  avg # of iterations = 20.0

     total cpu time spent up to now is        6.8 secs

     total energy              =    -501.48373779 Ry
     estimated scf accuracy    <       0.00218367 Ry

     iteration # 25     ecut=    30.00 Ry     beta= 0.50
     Davidson diagonalization with overlap
     c_bands:  1 eigenvalues not converged
     ethr =  3.02E-07,  avg # of iterations = 20.0

     total cpu time spent up to now is        7.0 secs

     total energy              =    -501.48372359 Ry
     estimated scf accuracy    <       0.00344197 Ry

     iteration # 26     ecut=    30.00 Ry     beta= 0.50
     Davidson diagonalization with overlap
     ethr =  3.02E-07,  avg # of iterations = 14.0

     total cpu time spent up to now is        7.1 secs

     total energy              =    -501.48377768 Ry
     estimated scf accuracy    <       0.00228521 Ry

     iteration # 27     ecut=    30.00 Ry     beta= 0.50
     Davidson diagonalization with overlap
     ethr =  3.02E-07,  avg # of iterations =  1.0

     total cpu time spent up to now is        7.1 secs

     total energy              =    -501.48362544 Ry
     estimated scf accuracy    <       0.00205362 Ry

     iteration # 28     ecut=    30.00 Ry     beta= 0.50
     Davidson diagonalization with overlap
     c_bands:  1 eigenvalues not converged
     ethr =  3.02E-07,  avg # of iterations = 20.0

     total cpu time spent up to now is        7.3 secs

     total energy              =    -501.48370620 Ry
     estimated scf accuracy    <       0.00038909 Ry

     iteration # 29     ecut=    30.00 Ry     beta= 0.50
     Davidson diagonalization with overlap
     c_bands:  1 eigenvalues not converged
     ethr =  1.52E-07,  avg # of iterations = 20.0

     total cpu time spent up to now is        7.5 secs

     total energy              =    -501.48375553 Ry
     estimated scf accuracy    <       0.00022020 Ry

     iteration # 30     ecut=    30.00 Ry     beta= 0.50
     Davidson diagonalization with overlap
     c_bands:  1 eigenvalues not converged
     ethr =  8.60E-08,  avg # of iterations = 20.0

     total cpu time spent up to now is        7.6 secs

     total energy              =    -501.48374922 Ry
     estimated scf accuracy    <       0.00033906 Ry

     iteration # 31     ecut=    30.00 Ry     beta= 0.50
     Davidson diagonalization with overlap
     ethr =  8.60E-08,  avg # of iterations = 12.0

     total cpu time spent up to now is        7.7 secs

     total energy              =    -501.48376847 Ry
     estimated scf accuracy    <       0.00030512 Ry

     iteration # 32     ecut=    30.00 Ry     beta= 0.50
     Davidson diagonalization with overlap
     ethr =  8.60E-08,  avg # of iterations =  1.0

     total cpu time spent up to now is        7.8 secs

     total energy              =    -501.48376066 Ry
     estimated scf accuracy    <       0.00028202 Ry

     iteration # 33     ecut=    30.00 Ry     beta= 0.50
     Davidson diagonalization with overlap
     ethr =  8.60E-08,  avg # of iterations =  1.0

     total cpu time spent up to now is        7.9 secs

     total energy              =    -501.48372579 Ry
     estimated scf accuracy    <       0.00024285 Ry

     iteration # 34     ecut=    30.00 Ry     beta= 0.50
     Davidson diagonalization with overlap
     ethr =  8.60E-08,  avg # of iterations =  3.0

     total cpu time spent up to now is        7.9 secs

     total energy              =    -501.48373223 Ry
     estimated scf accuracy    <       0.00008669 Ry

     iteration # 35     ecut=    30.00 Ry     beta= 0.50
     Davidson diagonalization with overlap
     c_bands:  1 eigenvalues not converged
     ethr =  3.39E-08,  avg # of iterations = 20.0

     total cpu time spent up to now is        8.1 secs

     total energy              =    -501.48375419 Ry
     estimated scf accuracy    <       0.00013106 Ry

     iteration # 36     ecut=    30.00 Ry     beta= 0.50
     Davidson diagonalization with overlap
     ethr =  3.39E-08,  avg # of iterations = 13.0

     total cpu time spent up to now is        8.2 secs

     total energy              =    -501.48375769 Ry
     estimated scf accuracy    <       0.00013545 Ry

     iteration # 37     ecut=    30.00 Ry     beta= 0.50
     Davidson diagonalization with overlap
     ethr =  3.39E-08,  avg # of iterations =  2.0

     total cpu time spent up to now is        8.3 secs

     total energy              =    -501.48375930 Ry
     estimated scf accuracy    <       0.00014039 Ry

     iteration # 38     ecut=    30.00 Ry     beta= 0.50
     Davidson diagonalization with overlap
     ethr =  3.39E-08,  avg # of iterations =  1.0

     total cpu time spent up to now is        8.3 secs

     total energy              =    -501.48375647 Ry
     estimated scf accuracy    <       0.00014626 Ry

     iteration # 39     ecut=    30.00 Ry     beta= 0.50
     Davidson diagonalization with overlap
     ethr =  3.39E-08,  avg # of iterations =  1.0

     total cpu time spent up to now is        8.4 secs

     total energy              =    -501.48375851 Ry
     estimated scf accuracy    <       0.00013205 Ry

     iteration # 40     ecut=    30.00 Ry     beta= 0.50
     Davidson diagonalization with overlap
     ethr =  3.39E-08,  avg # of iterations =  1.0

     total cpu time spent up to now is        8.5 secs

     total energy              =    -501.48375889 Ry
     estimated scf accuracy    <       0.00013469 Ry

     iteration # 41     ecut=    30.00 Ry     beta= 0.50
     Davidson diagonalization with overlap
     ethr =  3.39E-08,  avg # of iterations =  1.0

     total cpu time spent up to now is        8.5 secs

     total energy              =    -501.48375502 Ry
     estimated scf accuracy    <       0.00013701 Ry

     iteration # 42     ecut=    30.00 Ry     beta= 0.50
     Davidson diagonalization with overlap
     ethr =  3.39E-08,  avg # of iterations =  1.0

     total cpu time spent up to now is        8.6 secs

     total energy              =    -501.48375795 Ry
     estimated scf accuracy    <       0.00012241 Ry

     iteration # 43     ecut=    30.00 Ry     beta= 0.50
     Davidson diagonalization with overlap
     ethr =  3.39E-08,  avg # of iterations =  1.0

     total cpu time spent up to now is        8.7 secs

     total energy              =    -501.48370085 Ry
     estimated scf accuracy    <       0.00012920 Ry

     iteration # 44     ecut=    30.00 Ry     beta= 0.50
     Davidson diagonalization with overlap
     c_bands:  1 eigenvalues not converged
     ethr =  3.39E-08,  avg # of iterations = 20.0

     total cpu time spent up to now is        8.9 secs

     total energy              =    -501.48362666 Ry
     estimated scf accuracy    <       0.00504062 Ry

     iteration # 45     ecut=    30.00 Ry     beta= 0.50
     Davidson diagonalization with overlap
     c_bands:  1 eigenvalues not converged
     ethr =  3.39E-08,  avg # of iterations = 20.0

     total cpu time spent up to now is        9.0 secs

     total energy              =    -501.48374448 Ry
     estimated scf accuracy    <       0.00020429 Ry

     iteration # 46     ecut=    30.00 Ry     beta= 0.50
     Davidson diagonalization with overlap
     c_bands:  1 eigenvalues not converged
     ethr =  3.39E-08,  avg # of iterations = 20.0

     total cpu time spent up to now is        9.2 secs

     total energy              =    -501.48374759 Ry
     estimated scf accuracy    <       0.00011963 Ry

     iteration # 47     ecut=    30.00 Ry     beta= 0.50
     Davidson diagonalization with overlap
     ethr =  3.39E-08,  avg # of iterations =  2.0

     total cpu time spent up to now is        9.2 secs

     total energy              =    -501.48374441 Ry
     estimated scf accuracy    <       0.00010783 Ry

     iteration # 48     ecut=    30.00 Ry     beta= 0.50
     Davidson diagonalization with overlap
     ethr =  3.39E-08,  avg # of iterations =  1.0

     total cpu time spent up to now is        9.3 secs

     total energy              =    -501.48374239 Ry
     estimated scf accuracy    <       0.00008828 Ry

     iteration # 49     ecut=    30.00 Ry     beta= 0.50
     Davidson diagonalization with overlap
     ethr =  3.39E-08,  avg # of iterations =  2.0

     total cpu time spent up to now is        9.4 secs

     total energy              =    -501.48374551 Ry
     estimated scf accuracy    <       0.00007487 Ry

     iteration # 50     ecut=    30.00 Ry     beta= 0.50
     Davidson diagonalization with overlap
     ethr =  2.92E-08,  avg # of iterations =  1.0

     total cpu time spent up to now is        9.5 secs

     total energy              =    -501.48374805 Ry
     estimated scf accuracy    <       0.00007905 Ry

     iteration # 51     ecut=    30.00 Ry     beta= 0.50
     Davidson diagonalization with overlap
     ethr =  2.92E-08,  avg # of iterations =  1.0

     total cpu time spent up to now is        9.5 secs

     total energy              =    -501.48374793 Ry
     estimated scf accuracy    <       0.00008666 Ry

     iteration # 52     ecut=    30.00 Ry     beta= 0.50
     Davidson diagonalization with overlap
     ethr =  2.92E-08,  avg # of iterations =  1.0

     total cpu time spent up to now is        9.6 secs

     total energy              =    -501.48371951 Ry
     estimated scf accuracy    <       0.00008581 Ry

     iteration # 53     ecut=    30.00 Ry     beta= 0.50
     Davidson diagonalization with overlap
     c_bands:  1 eigenvalues not converged
     ethr =  2.92E-08,  avg # of iterations = 20.0

     total cpu time spent up to now is        9.8 secs

     total energy              =    -501.48373043 Ry
     estimated scf accuracy    <       0.00294784 Ry

     iteration # 54     ecut=    30.00 Ry     beta= 0.50
     Davidson diagonalization with overlap
     c_bands:  1 eigenvalues not converged
     ethr =  2.92E-08,  avg # of iterations = 20.0

     total cpu time spent up to now is        9.9 secs

     total energy              =    -501.48372827 Ry
     estimated scf accuracy    <       0.00166596 Ry

     iteration # 55     ecut=    30.00 Ry     beta= 0.50
     Davidson diagonalization with overlap
     c_bands:  1 eigenvalues not converged
     ethr =  2.92E-08,  avg # of iterations = 20.0

     total cpu time spent up to now is       10.1 secs

     total energy              =    -501.48372425 Ry
     estimated scf accuracy    <       0.00098491 Ry

     iteration # 56     ecut=    30.00 Ry     beta= 0.50
     Davidson diagonalization with overlap
     c_bands:  1 eigenvalues not converged
     ethr =  2.92E-08,  avg # of iterations = 20.0

     total cpu time spent up to now is       10.2 secs

     total energy              =    -501.48374365 Ry
     estimated scf accuracy    <       0.00057656 Ry

     iteration # 57     ecut=    30.00 Ry     beta= 0.50
     Davidson diagonalization with overlap
     c_bands:  1 eigenvalues not converged
     ethr =  2.92E-08,  avg # of iterations = 20.0

     total cpu time spent up to now is       10.4 secs

     total energy              =    -501.48374322 Ry
     estimated scf accuracy    <       0.00049403 Ry

     iteration # 58     ecut=    30.00 Ry     beta= 0.50
     Davidson diagonalization with overlap
     ethr =  2.92E-08,  avg # of iterations =  2.0

     total cpu time spent up to now is       10.4 secs

     total energy              =    -501.48374260 Ry
     estimated scf accuracy    <       0.00047076 Ry

     iteration # 59     ecut=    30.00 Ry     beta= 0.50
     Davidson diagonalization with overlap
     ethr =  2.92E-08,  avg # of iterations =  1.0

     total cpu time spent up to now is       10.5 secs

     total energy              =    -501.48373263 Ry
     estimated scf accuracy    <       0.00046184 Ry

     iteration # 60     ecut=    30.00 Ry     beta= 0.50
     Davidson diagonalization with overlap
     ethr =  2.92E-08,  avg # of iterations =  2.0

     total cpu time spent up to now is       10.6 secs

     total energy              =    -501.48372982 Ry
     estimated scf accuracy    <       0.00040974 Ry

     iteration # 61     ecut=    30.00 Ry     beta= 0.50
     Davidson diagonalization with overlap
     ethr =  2.92E-08,  avg # of iterations =  1.0

     total cpu time spent up to now is       10.6 secs

     total energy              =    -501.48367242 Ry
     estimated scf accuracy    <       0.00039120 Ry

     iteration # 62     ecut=    30.00 Ry     beta= 0.50
     Davidson diagonalization with overlap
     c_bands:  1 eigenvalues not converged
     ethr =  2.92E-08,  avg # of iterations = 20.0

     total cpu time spent up to now is       10.8 secs

     total energy              =    -501.48377030 Ry
     estimated scf accuracy    <       0.00220749 Ry

     iteration # 63     ecut=    30.00 Ry     beta= 0.50
     Davidson diagonalization with overlap
     c_bands:  1 eigenvalues not converged
     ethr =  2.92E-08,  avg # of iterations = 20.0

     total cpu time spent up to now is       11.0 secs

     total energy              =    -501.48368267 Ry
     estimated scf accuracy    <       0.00187015 Ry

     iteration # 64     ecut=    30.00 Ry     beta= 0.50
     Davidson diagonalization with overlap
     c_bands:  1 eigenvalues not converged
     ethr =  2.92E-08,  avg # of iterations = 20.0

     total cpu time spent up to now is       11.1 secs

     total energy              =    -501.48374384 Ry
     estimated scf accuracy    <       0.00003575 Ry

     iteration # 65     ecut=    30.00 Ry     beta= 0.50
     Davidson diagonalization with overlap
     c_bands:  1 eigenvalues not converged
     ethr =  1.40E-08,  avg # of iterations = 20.0

     total cpu time spent up to now is       11.3 secs

     total energy              =    -501.48375187 Ry
     estimated scf accuracy    <       0.00001932 Ry

     iteration # 66     ecut=    30.00 Ry     beta= 0.50
     Davidson diagonalization with overlap
     c_bands:  1 eigenvalues not converged
     ethr =  7.55E-09,  avg # of iterations = 20.0

     total cpu time spent up to now is       11.4 secs

     total energy              =    -501.48375563 Ry
     estimated scf accuracy    <       0.00002006 Ry

     iteration # 67     ecut=    30.00 Ry     beta= 0.50
     Davidson diagonalization with overlap
     c_bands:  1 eigenvalues not converged
     ethr =  7.55E-09,  avg # of iterations = 20.0

     total cpu time spent up to now is       11.6 secs

     total energy              =    -501.48376328 Ry
     estimated scf accuracy    <       0.00021227 Ry

     iteration # 68     ecut=    30.00 Ry     beta= 0.50
     Davidson diagonalization with overlap
     ethr =  7.55E-09,  avg # of iterations = 18.0

     total cpu time spent up to now is       11.7 secs

     total energy              =    -501.48375600 Ry
     estimated scf accuracy    <       0.00023930 Ry

     iteration # 69     ecut=    30.00 Ry     beta= 0.50
     Davidson diagonalization with overlap
     ethr =  7.55E-09,  avg # of iterations =  1.0

     total cpu time spent up to now is       11.8 secs

     total energy              =    -501.48375426 Ry
     estimated scf accuracy    <       0.00021231 Ry

     iteration # 70     ecut=    30.00 Ry     beta= 0.50
     Davidson diagonalization with overlap
     ethr =  7.55E-09,  avg # of iterations =  1.0

     total cpu time spent up to now is       11.9 secs

     total energy              =    -501.48371251 Ry
     estimated scf accuracy    <       0.00020181 Ry

     iteration # 71     ecut=    30.00 Ry     beta= 0.50
     Davidson diagonalization with overlap
     c_bands:  1 eigenvalues not converged
     ethr =  7.55E-09,  avg # of iterations = 20.0

     total cpu time spent up to now is       12.0 secs

     total energy              =    -501.48376930 Ry
     estimated scf accuracy    <       0.00141997 Ry

     iteration # 72     ecut=    30.00 Ry     beta= 0.50
     Davidson diagonalization with overlap
     c_bands:  1 eigenvalues not converged
     ethr =  7.55E-09,  avg # of iterations = 20.0

     total cpu time spent up to now is       12.2 secs

     total energy              =    -501.48371254 Ry
     estimated scf accuracy    <       0.00109776 Ry

     iteration # 73     ecut=    30.00 Ry     beta= 0.50
     Davidson diagonalization with overlap
     c_bands:  1 eigenvalues not converged
     ethr =  7.55E-09,  avg # of iterations = 20.0

     total cpu time spent up to now is       12.4 secs

     total energy              =    -501.48374947 Ry
     estimated scf accuracy    <       0.00001428 Ry

     iteration # 74     ecut=    30.00 Ry     beta= 0.50
     Davidson diagonalization with overlap
     c_bands:  1 eigenvalues not converged
     ethr =  5.58E-09,  avg # of iterations = 20.0

     total cpu time spent up to now is       12.5 secs

     total energy              =    -501.48375163 Ry
     estimated scf accuracy    <       0.00000650 Ry

     iteration # 75     ecut=    30.00 Ry     beta= 0.50
     Davidson diagonalization with overlap
     ethr =  2.54E-09,  avg # of iterations =  9.0

     total cpu time spent up to now is       12.6 secs

     total energy              =    -501.48375156 Ry
     estimated scf accuracy    <       0.00000381 Ry

     iteration # 76     ecut=    30.00 Ry     beta= 0.50
     Davidson diagonalization with overlap
     ethr =  1.49E-09,  avg # of iterations =  8.0

     total cpu time spent up to now is       12.7 secs

     total energy              =    -501.48375185 Ry
     estimated scf accuracy    <       0.00000136 Ry

     iteration # 77     ecut=    30.00 Ry     beta= 0.50
     Davidson diagonalization with overlap
     ethr =  5.31E-10,  avg # of iterations =  8.0

     total cpu time spent up to now is       12.8 secs

     End of self-consistent calculation

          k = 0.0000 0.0000 0.0000 ( 11372 PWs)   bands (ev):

    -5.3419  -4.4143  -4.3336  -4.2185  -4.1028  -4.0148  -3.9865  -3.4560
    -3.3329  -3.2251  -3.1673  -3.0970  -3.0652  -2.9510  -2.8419  -2.8112
    -2.7615  -2.6741  -2.6137  -2.1594  -2.0640  -1.9366  -1.8370  -1.8227
    -1.6400  -1.5476  -1.3922  -0.9444  -0.7582  -0.7296  -0.6433  -0.5490
    -0.4310  -0.2707  -0.1759  -0.0794   0.0129   0.0731   0.1820   0.2331
     0.3628   0.4147   0.5757   0.6561   0.6991   0.7558   0.7698   0.9014
     1.0127   1.0877   1.1653   1.2237   1.3055   1.3440   1.4433   1.6626
     1.7202   1.9133   1.9185   2.0156   2.1433   2.1972   2.2489   2.3055
     2.5398   2.5747   2.6448   2.7470   2.8477   2.8956   2.9473   2.9586
     3.0563   3.0854   3.1635   3.2893   3.3211   3.4569   3.4973   3.6895
     3.7924   4.2239   4.2394   4.3528   4.3908   4.4305   4.5155   4.5634
     4.6354   4.7190   4.7387   4.8424   4.9670   5.0903   5.1167   5.1448
     5.2227   5.2666   5.3170   5.4018   5.4498   5.5230   5.5624   5.6558
     5.6895   5.7233   5.7345   5.8018   5.8519   5.9335   5.9675   6.0197
     6.0785   6.1440   6.2882   6.3055   6.3756   6.4567   6.4922   6.5552
     6.6832   6.7260   6.7653   6.8010   6.8970   6.9190   6.9300   7.0022

     highest occupied level (ev):     7.0022

!    total energy              =    -501.48375124 Ry
     estimated scf accuracy    <       0.00000098 Ry

     The total energy is the sum of the following terms:
     one-electron contribution =     190.43220126 Ry
     hartree contribution      =      22.56495695 Ry
     xc contribution           =    -151.01899169 Ry
     ewald contribution        =    -563.46191775 Ry

     convergence has been achieved in  77 iterations

     Forces acting on atoms (cartesian axes, Ry/au):

     atom    1 type  1   force =     0.04218063    0.00286758   -0.04215579
     atom    2 type  1   force =     0.01153230   -0.00596443    0.01522471
     atom    3 type  1   force =     0.02905918    0.03003992    0.00080150
     atom    4 type  1   force =     0.00965487   -0.00037728    0.01049687
     atom    5 type  1   force =    -0.00463494    0.03363628    0.02664650
     atom    6 type  1   force =     0.00216069    0.01269630    0.02705149
     atom    7 type  1   force =    -0.01360535   -0.03125563   -0.00572434
     atom    8 type  1   force =     0.00979887    0.03795162   -0.00004420
     atom    9 type  1   force =    -0.02296902    0.00832046    0.02817966
     atom   10 type  1   force =     0.01998245   -0.00318780    0.01844633
     atom   11 type  1   force =    -0.02043501    0.03903526   -0.01630812
     atom   12 type  1   force =     0.01706343   -0.01486261    0.01219524
     atom   13 type  1   force =    -0.01994931   -0.01674956    0.05321859
     atom   14 type  1   force =     0.02712703    0.02557620    0.01328844
     atom   15 type  1   force =    -0.03904337   -0.01059657    0.06334748
     atom   16 type  1   force =     0.03789104   -0.00187606   -0.00342379
     atom   17 type  1   force =    -0.01125499    0.04241013    0.00300480
     atom   18 type  1   force =    -0.03519868   -0.01080381    0.05333084
     atom   19 type  1   force =     0.00697735   -0.01515763   -0.00535354
     atom   20 type  1   force =     0.00190460   -0.00165540    0.00202729
     atom   21 type  1   force =     0.02526891    0.01185506    0.00887664
     atom   22 type  1   force =     0.04471067   -0.00146415   -0.00166350
     atom   23 type  1   force =    -0.00633739    0.01457138   -0.02022067
     atom   24 type  1   force =    -0.01456094   -0.00021312   -0.02121945
     atom   25 type  1   force =     0.01520260   -0.01478716    0.00186242
     atom   26 type  1   force =    -0.01954521   -0.00379312    0.00457942
     atom   27 type  1   force =    -0.02256767   -0.00274974   -0.02208477
     atom   28 type  1   force =     0.01639777   -0.01627718   -0.02608306
     atom   29 type  1   force =    -0.02810276    0.00575376    0.02163549
     atom   30 type  1   force =    -0.01418511   -0.04304569    0.04089585
     atom   31 type  1   force =    -0.02365370    0.02758837    0.00974015
     atom   32 type  1   force =    -0.03656523    0.04726344   -0.01524817
     atom   33 type  1   force =     0.04742412    0.00652548   -0.05186331
     atom   34 type  1   force =    -0.00287832   -0.00911322   -0.00892102
     atom   35 type  1   force =     0.02183448   -0.04170617   -0.06072211
     atom   36 type  1   force =     0.03846544   -0.01414187   -0.00334242
     atom   37 type  1   force =     0.00554459    0.01687860   -0.06485067
     atom   38 type  1   force =     0.01185104   -0.01060948    0.00752417
     atom   39 type  1   force =    -0.01934976    0.02072072    0.02551196
     atom   40 type  1   force =     0.04291486    0.03759751    0.01946728
     atom   41 type  1   force =    -0.02397402    0.00333100   -0.00875296
     atom   42 type  1   force =    -0.03989548   -0.07240847   -0.07300993
     atom   43 type  1   force =     0.00568786    0.01950534   -0.00784786
     atom   44 type  1   force =    -0.02551455   -0.04604843   -0.00945080
     atom   45 type  1   force =     0.00149657   -0.01376941    0.05811268
     atom   46 type  1   force =     0.03215563    0.04368710    0.00174180
     atom   47 type  1   force =    -0.01236735   -0.03136401    0.00173523
     atom   48 type  1   force =    -0.00909360    0.00278566   -0.00703955
     atom   49 type  1   force =     0.02541810   -0.00593148    0.11071397
     atom   50 type  1   force =    -0.01324057    0.00438230   -0.08928579
     atom   51 type  1   force =    -0.00623003   -0.01694977   -0.01486098
     atom   52 type  1   force =    -0.04803930    0.03351602   -0.03688173
     atom   53 type  1   force =     0.00132948   -0.00812311   -0.00062183
     atom   54 type  1   force =     0.01414430    0.01640232   -0.06503732
     atom   55 type  1   force =     0.01146999   -0.01401563   -0.03029625
     atom   56 type  1   force =    -0.01624093   -0.00784518    0.05307537
     atom   57 type  1   force =     0.02655174   -0.00186235   -0.01846293
     atom   58 type  1   force =    -0.02708442   -0.00882035   -0.02063235
     atom   59 type  1   force =    -0.01456491   -0.03221697    0.02396200
     atom   60 type  1   force =     0.02914515   -0.03640508    0.01982273
     atom   61 type  1   force =     0.01754366   -0.00139247    0.00724540
     atom   62 type  1   force =    -0.01844549    0.03281416   -0.00204739
     atom   63 type  1   force =    -0.03113488   -0.00439038   -0.01899744
     atom   64 type  1   force =    -0.00922708   -0.00578124    0.02869170

     Total force =     0.381487     Total SCF correction =     0.001400


     Computing stress (Cartesian axis) and pressure

          total   stress  (Ry/bohr**3)                   (kbar)     P=      -26.37
  -0.00024186   0.00003561   0.00003739          -35.58        5.24        5.50
   0.00003561  -0.00018487   0.00008619            5.24      -27.20       12.68
   0.00003739   0.00008619  -0.00011099            5.50       12.68      -16.33

 
     init_run     :      0.95s CPU      4.10s WALL (       1 calls)
     electrons    :      8.27s CPU      8.67s WALL (       1 calls)
     forces       :      0.03s CPU      0.03s WALL (       1 calls)
     stress       :      0.12s CPU      0.12s WALL (       1 calls)

     Called by init_run:
     wfcinit      :      0.44s CPU      3.45s WALL (       1 calls)
                                        3.45s GPU  (       1 calls)
     potinit      :      0.04s CPU      0.12s WALL (       1 calls)
     hinit0       :      0.45s CPU      0.48s WALL (       1 calls)

     Called by electrons:
     c_bands      :      5.90s CPU      6.09s WALL (      78 calls)
     sum_band     :      1.11s CPU      1.26s WALL (      78 calls)
     v_of_rho     :      0.45s CPU      0.54s WALL (      78 calls)
     mix_rho      :      0.65s CPU      0.68s WALL (      78 calls)

     Called by c_bands:
     init_us_2    :      0.19s CPU      0.21s WALL (     157 calls)
     init_us_2:gp :      0.19s CPU      0.21s WALL (     157 calls)
     regterg      :      5.33s CPU      5.49s WALL (      78 calls)

     Called by *egterg:
     rdiaghg      :      2.68s CPU      3.32s WALL (     860 calls)
                                        3.20s GPU  (     860 calls)
     h_psi        :      2.33s CPU      4.83s WALL (     862 calls)
                                        4.82s GPU  (     862 calls)
     g_psi        :      0.00s CPU      0.02s WALL (     783 calls)
                                        0.01s GPU  (     783 calls)

     Called by h_psi:
     h_psi:calbec :      0.60s CPU      2.98s WALL (     862 calls)
                                        2.98s GPU  (     862 calls)
     vloc_psi     :      1.20s CPU      1.32s WALL (     862 calls)
                                        1.30s GPU  (     862 calls)
     add_vuspsi   :      0.41s CPU      0.49s WALL (     862 calls)
                                        0.48s GPU  (     862 calls)

     General routines
     calbec       :      0.60s CPU      2.97s WALL (     867 calls)
     fft          :      0.80s CPU      0.93s WALL (     631 calls)
                                        0.16s GPU  (     396 calls)
     ffts         :      0.11s CPU      0.12s WALL (      78 calls)
     fftw         :      1.45s CPU      1.83s WALL (    7744 calls)
                                        1.58s GPU  (    7744 calls)
 
     Parallel routines
 
     PWSCF        :      9.40s CPU     13.00s WALL

 
   This run was terminated on:  15:17:25   9May2023            

=------------------------------------------------------------------------------=
   JOB DONE.
=------------------------------------------------------------------------------=
