An instance of this daemon is already running
An instance of this daemon is already running

     Program PWSCF v.7.1 starts on  9May2023 at 15:22:53 

     This program is part of the open-source Quantum ESPRESSO suite
     for quantum simulation of materials; please cite
         "P. Giannozzi et al., J. Phys.:Condens. Matter 21 395502 (2009);
         "P. Giannozzi et al., J. Phys.:Condens. Matter 29 465901 (2017);
         "P. Giannozzi et al., J. Chem. Phys. 152 154105 (2020);
          URL http://www.quantum-espresso.org", 
     in publications or presentations arising from this work. More details at
     http://www.quantum-espresso.org/quote

     Parallel version (MPI & OpenMP), running on       4 processor cores
     Number of MPI processes:                 4
     Threads/MPI process:                     1

     MPI processes distributed on     1 nodes
     8113 MiB available memory on the printing compute node when the environment starts
 
     Reading input from pw-si-77.in
Warning: card &CELL ignored
Warning: card / ignored

     Current dimensions of program PWSCF are:
     Max number of different atomic species (ntypx) = 10
     Max number of k-points (npk) =  40000
     Max angular momentum in pseudopotentials (lmaxx) =  4

     IMPORTANT: XC functional enforced from input :
     Exchange-correlation= PBE
                           (   1   4   3   4   0   0   0)
     Any further DFT definition will be discarded
     Please, verify this is what you really want


     gamma-point specific algorithms are used
 
     K-points division:     npool     =       2
     R & G space division:  proc/nbgrp/npool/nimage =       2
     Subspace diagonalization in iterative solution of the eigenvalue problem:
     a serial algorithm will be used

     Message from routine divide_et_impera:
     suboptimal parallelization: some nodes have no k-points
 
     Parallelization info
     --------------------
     sticks:   dense  smooth     PW     G-vecs:    dense   smooth      PW
     Min        1971    1971    520                93009    93009   12668
     Max        1974    1974    521                93014    93014   12673
     Sum        3945    3945   1041               186023   186023   25341
 
     Using Slab Decomposition
 


     bravais-lattice index     =            0
     lattice parameter (alat)  =      20.3065  a.u.
     unit-cell volume          =    8373.4352 (a.u.)^3
     number of atoms/cell      =           64
     number of atomic types    =            1
     number of electrons       =       256.00
     number of Kohn-Sham states=          128
     kinetic-energy cutoff     =      30.0000  Ry
     charge density cutoff     =     120.0000  Ry
     scf convergence threshold =      1.0E-06
     mixing beta               =       0.5000
     number of iterations used =            8  plain     mixing
     Exchange-correlation= PBE
                           (   1   4   3   4   0   0   0)

     GPU acceleration is ACTIVE.
     GPU-aware MPI enabled

     Message from routine print_cuda_info:
     High GPU oversubscription detected. Are you sure this is what you want?

     celldm(1)=  20.306476  celldm(2)=   0.000000  celldm(3)=   0.000000
     celldm(4)=   0.000000  celldm(5)=   0.000000  celldm(6)=   0.000000

     crystal axes: (cart. coord. in units of alat)
               a(1) = (   1.000000   0.000000   0.000000 )  
               a(2) = (   0.000000   1.000000   0.000000 )  
               a(3) = (   0.000000   0.000000   1.000000 )  

     reciprocal axes: (cart. coord. in units 2 pi/alat)
               b(1) = (  1.000000  0.000000  0.000000 )  
               b(2) = (  0.000000  1.000000  0.000000 )  
               b(3) = (  0.000000  0.000000  1.000000 )  


     PseudoPot. # 1 for Si read from file:
     /home/ppiaggi/pseudos/Si_ONCV_PBE_sr.upf
     MD5 check sum: 8553c464762ac42b85b1eed164b4d029
     Pseudo is Norm-conserving, Zval =  4.0
     Generated using ONCVPSP code by D. R. Hamann
     Using radial grid of 1510 points,  4 beta functions with: 
                l(1) =   0
                l(2) =   0
                l(3) =   1
                l(4) =   1

     atomic species   valence    mass     pseudopotential
        Si             4.00    28.08500     Si( 1.00)

     No symmetry found



   Cartesian axes

     site n.     atom                  positions (alat units)
         1           Si  tau(   1) = (   0.4185060   0.5069450   0.3809560  )
         2           Si  tau(   2) = (   0.3337000   0.5594430   0.1764980  )
         3           Si  tau(   3) = (   0.0294607   0.1115330   0.4161440  )
         4           Si  tau(   4) = (   0.9934810   0.4968560   0.0661591  )
         5           Si  tau(   5) = (   0.6458170   0.2922270   0.8942770  )
         6           Si  tau(   6) = (   0.1153900   0.0311426   0.9254620  )
         7           Si  tau(   7) = (   0.1404940   0.0154432   0.5794670  )
         8           Si  tau(   8) = (   0.1162820   0.2243730   0.0672850  )
         9           Si  tau(   9) = (   0.9732430   0.9052400   0.3359850  )
        10           Si  tau(  10) = (   0.5303690   0.6134380   0.5763300  )
        11           Si  tau(  11) = (   0.7439510   0.8869620   0.4429870  )
        12           Si  tau(  12) = (   0.1277780   0.1640210   0.7315200  )
        13           Si  tau(  13) = (   0.5148670   0.7549810   0.0438565  )
        14           Si  tau(  14) = (   0.7724230   0.0694972   0.0728450  )
        15           Si  tau(  15) = (   0.7216960   0.7265530   0.1484110  )
        16           Si  tau(  16) = (   0.2151210   0.8618770   0.7835320  )
        17           Si  tau(  17) = (   0.2480840   0.7758370   0.0335423  )
        18           Si  tau(  18) = (   0.8423670   0.2428850   0.4712960  )
        19           Si  tau(  19) = (   0.7483540   0.9612550   0.6638930  )
        20           Si  tau(  20) = (   0.1720390   0.4183050   0.9237390  )
        21           Si  tau(  21) = (   0.6373590   0.6926680   0.3779180  )
        22           Si  tau(  22) = (   0.5398370   0.0213406   0.2547230  )
        23           Si  tau(  23) = (   0.4692370   0.1273380   0.8682400  )
        24           Si  tau(  24) = (   0.9624970   0.8942650   0.6826190  )
        25           Si  tau(  25) = (   0.5618550   0.4080520   0.6846110  )
        26           Si  tau(  26) = (   0.4794200   0.1998370   0.6179970  )
        27           Si  tau(  27) = (   0.3172940   0.4973870   0.7677990  )
        28           Si  tau(  28) = (   0.4365520   0.6989290   0.8060400  )
        29           Si  tau(  29) = (   0.5774070   0.9812610   0.0054738  )
        30           Si  tau(  30) = (   0.2162650   0.4516750   0.5126770  )
        31           Si  tau(  31) = (   0.4415050   0.7993290   0.2546740  )
        32           Si  tau(  32) = (   0.5409880   0.2404460   0.2487000  )
        33           Si  tau(  33) = (   0.7525440   0.0853167   0.3365130  )
        34           Si  tau(  34) = (   0.5921830   0.5491390   0.8715500  )
        35           Si  tau(  35) = (   0.3014720   0.9506510   0.4356670  )
        36           Si  tau(  36) = (   0.8975420   0.6805280   0.5071360  )
        37           Si  tau(  37) = (   0.9551800   0.5498460   0.7198700  )
        38           Si  tau(  38) = (   0.7778770   0.6337400   0.8762980  )
        39           Si  tau(  39) = (   0.1394800   0.9357380   0.1405860  )
        40           Si  tau(  40) = (   0.5039320   0.9962860   0.5259700  )
        41           Si  tau(  41) = (   0.1126940   0.7272750   0.4025600  )
        42           Si  tau(  42) = (   0.8035580   0.5139170   0.1669710  )
        43           Si  tau(  43) = (   0.7562470   0.1811330   0.6989830  )
        44           Si  tau(  44) = (   0.0716926   0.6560460   0.9202730  )
        45           Si  tau(  45) = (   0.2862790   0.2939340   0.6730190  )
        46           Si  tau(  46) = (   0.9042700   0.3079030   0.9584500  )
        47           Si  tau(  47) = (   0.4025560   0.4611210   0.0159473  )
        48           Si  tau(  48) = (   0.8857080   0.8926960   0.1354480  )
        49           Si  tau(  49) = (   0.6090590   0.3367850   0.4474840  )
        50           Si  tau(  50) = (   0.3511370   0.2596230   0.3934300  )
        51           Si  tau(  51) = (   0.1268400   0.2992280   0.2898830  )
        52           Si  tau(  52) = (   0.1214990   0.5394940   0.2438440  )
        53           Si  tau(  53) = (   0.9866630   0.4240010   0.4606520  )
        54           Si  tau(  54) = (   0.6633190   0.8508270   0.8343280  )
        55           Si  tau(  55) = (   0.7646500   0.5064720   0.3824850  )
        56           Si  tau(  56) = (   0.9199690   0.8317780   0.9178130  )
        57           Si  tau(  57) = (   0.3329890   0.7405480   0.4519740  )
        58           Si  tau(  58) = (   0.2909530   0.0709064   0.2292940  )
        59           Si  tau(  59) = (   0.8974220   0.0836741   0.8689320  )
        60           Si  tau(  60) = (   0.7047770   0.3178080   0.1113170  )
        61           Si  tau(  61) = (   0.3898650   0.2513800   0.0740566  )
        62           Si  tau(  62) = (   0.4390940   0.9234320   0.7149440  )
        63           Si  tau(  63) = (   0.1433760   0.6504960   0.6827130  )
        64           Si  tau(  64) = (   0.9637610   0.3258530   0.7138470  )

     number of k points=     1
                       cart. coord. in units 2pi/alat
        k(    1) = (   0.0000000   0.0000000   0.0000000), wk =   2.0000000

     Dense  grid:    93012 G-vectors     FFT dimensions: (  72,  72,  72)

     Estimated max dynamical RAM per process >     136.50 MB

     Estimated total dynamical RAM >     523.28 MB

     Initial potential from superposition of free atoms

     starting charge     255.9608, renormalised to     256.0000
     Starting wfcs are  256 randomized atomic wfcs

     total cpu time spent up to now is        4.2 secs

     Self-consistent Calculation

     iteration #  1     ecut=    30.00 Ry     beta= 0.50
     Davidson diagonalization with overlap
     ethr =  1.00E-02,  avg # of iterations =  2.0

     Threshold (ethr) on eigenvalues was too large:
     Diagonalizing with lowered threshold

     Davidson diagonalization with overlap
     ethr =  3.87E-04,  avg # of iterations =  6.0

     total cpu time spent up to now is        4.4 secs

     total energy              =    -501.26041526 Ry
     estimated scf accuracy    <       1.19374886 Ry

     iteration #  2     ecut=    30.00 Ry     beta= 0.50
     Davidson diagonalization with overlap
     ethr =  4.66E-04,  avg # of iterations = 13.0

     total cpu time spent up to now is        4.5 secs

     total energy              =    -501.03551919 Ry
     estimated scf accuracy    <       2.72315684 Ry

     iteration #  3     ecut=    30.00 Ry     beta= 0.50
     Davidson diagonalization with overlap
     ethr =  4.66E-04,  avg # of iterations = 17.0

     total cpu time spent up to now is        4.6 secs

     total energy              =    -501.29496776 Ry
     estimated scf accuracy    <       1.84658934 Ry

     iteration #  4     ecut=    30.00 Ry     beta= 0.50
     Davidson diagonalization with overlap
     ethr =  4.66E-04,  avg # of iterations = 13.0

     total cpu time spent up to now is        4.8 secs

     total energy              =    -501.43098188 Ry
     estimated scf accuracy    <       0.30946329 Ry

     iteration #  5     ecut=    30.00 Ry     beta= 0.50
     Davidson diagonalization with overlap
     ethr =  1.21E-04,  avg # of iterations = 18.0

     total cpu time spent up to now is        4.9 secs

     total energy              =    -501.47332008 Ry
     estimated scf accuracy    <       0.14733031 Ry

     iteration #  6     ecut=    30.00 Ry     beta= 0.50
     Davidson diagonalization with overlap
     ethr =  5.76E-05,  avg # of iterations = 11.0

     total cpu time spent up to now is        5.1 secs

     total energy              =    -501.48390338 Ry
     estimated scf accuracy    <       0.08817912 Ry

     iteration #  7     ecut=    30.00 Ry     beta= 0.50
     Davidson diagonalization with overlap
     ethr =  3.44E-05,  avg # of iterations =  8.0

     total cpu time spent up to now is        5.2 secs

     total energy              =    -501.48995680 Ry
     estimated scf accuracy    <       0.01502837 Ry

     iteration #  8     ecut=    30.00 Ry     beta= 0.50
     Davidson diagonalization with overlap
     ethr =  5.87E-06,  avg # of iterations = 10.0

     total cpu time spent up to now is        5.3 secs

     total energy              =    -501.49235563 Ry
     estimated scf accuracy    <       0.00962108 Ry

     iteration #  9     ecut=    30.00 Ry     beta= 0.50
     Davidson diagonalization with overlap
     ethr =  3.76E-06,  avg # of iterations = 10.0

     total cpu time spent up to now is        5.4 secs

     total energy              =    -501.49300550 Ry
     estimated scf accuracy    <       0.00644956 Ry

     iteration # 10     ecut=    30.00 Ry     beta= 0.50
     Davidson diagonalization with overlap
     ethr =  2.52E-06,  avg # of iterations = 19.0

     total cpu time spent up to now is        5.5 secs

     total energy              =    -501.49319914 Ry
     estimated scf accuracy    <       0.00236121 Ry

     iteration # 11     ecut=    30.00 Ry     beta= 0.50
     Davidson diagonalization with overlap
     ethr =  9.22E-07,  avg # of iterations = 13.0

     total cpu time spent up to now is        5.7 secs

     total energy              =    -501.49341712 Ry
     estimated scf accuracy    <       0.00069388 Ry

     iteration # 12     ecut=    30.00 Ry     beta= 0.50
     Davidson diagonalization with overlap
     ethr =  2.71E-07,  avg # of iterations = 18.0

     total cpu time spent up to now is        5.8 secs

     total energy              =    -501.49348897 Ry
     estimated scf accuracy    <       0.00058766 Ry

     iteration # 13     ecut=    30.00 Ry     beta= 0.50
     Davidson diagonalization with overlap
     c_bands:  1 eigenvalues not converged
     ethr =  2.30E-07,  avg # of iterations = 20.0

     total cpu time spent up to now is        6.0 secs

     total energy              =    -501.49352837 Ry
     estimated scf accuracy    <       0.00040903 Ry

     iteration # 14     ecut=    30.00 Ry     beta= 0.50
     Davidson diagonalization with overlap
     ethr =  1.60E-07,  avg # of iterations = 13.0

     total cpu time spent up to now is        6.1 secs

     total energy              =    -501.49353975 Ry
     estimated scf accuracy    <       0.00018051 Ry

     iteration # 15     ecut=    30.00 Ry     beta= 0.50
     Davidson diagonalization with overlap
     ethr =  7.05E-08,  avg # of iterations =  2.0

     total cpu time spent up to now is        6.2 secs

     total energy              =    -501.49354124 Ry
     estimated scf accuracy    <       0.00009976 Ry

     iteration # 16     ecut=    30.00 Ry     beta= 0.50
     Davidson diagonalization with overlap
     c_bands:  1 eigenvalues not converged
     ethr =  3.90E-08,  avg # of iterations = 20.0

     total cpu time spent up to now is        6.3 secs

     total energy              =    -501.49354626 Ry
     estimated scf accuracy    <       0.00003514 Ry

     iteration # 17     ecut=    30.00 Ry     beta= 0.50
     Davidson diagonalization with overlap
     c_bands:  1 eigenvalues not converged
     ethr =  1.37E-08,  avg # of iterations = 20.0

     total cpu time spent up to now is        6.5 secs

     total energy              =    -501.49355512 Ry
     estimated scf accuracy    <       0.00010467 Ry

     iteration # 18     ecut=    30.00 Ry     beta= 0.50
     Davidson diagonalization with overlap
     c_bands:  1 eigenvalues not converged
     ethr =  1.37E-08,  avg # of iterations = 20.0

     total cpu time spent up to now is        6.7 secs

     total energy              =    -501.49355101 Ry
     estimated scf accuracy    <       0.00015893 Ry

     iteration # 19     ecut=    30.00 Ry     beta= 0.50
     Davidson diagonalization with overlap
     ethr =  1.37E-08,  avg # of iterations = 15.0

     total cpu time spent up to now is        6.8 secs

     total energy              =    -501.49354578 Ry
     estimated scf accuracy    <       0.00009844 Ry

     iteration # 20     ecut=    30.00 Ry     beta= 0.50
     Davidson diagonalization with overlap
     ethr =  1.37E-08,  avg # of iterations =  3.0

     total cpu time spent up to now is        6.9 secs

     total energy              =    -501.49354346 Ry
     estimated scf accuracy    <       0.00005987 Ry

     iteration # 21     ecut=    30.00 Ry     beta= 0.50
     Davidson diagonalization with overlap
     c_bands:  1 eigenvalues not converged
     ethr =  1.37E-08,  avg # of iterations = 20.0

     total cpu time spent up to now is        7.0 secs

     total energy              =    -501.49380074 Ry
     estimated scf accuracy    <       0.02453043 Ry

     iteration # 22     ecut=    30.00 Ry     beta= 0.50
     Davidson diagonalization with overlap
     c_bands:  1 eigenvalues not converged
     ethr =  1.37E-08,  avg # of iterations = 20.0

     total cpu time spent up to now is        7.2 secs

     total energy              =    -501.49433533 Ry
     estimated scf accuracy    <       0.02570532 Ry

     iteration # 23     ecut=    30.00 Ry     beta= 0.50
     Davidson diagonalization with overlap
     c_bands:  1 eigenvalues not converged
     ethr =  1.37E-08,  avg # of iterations = 20.0

     total cpu time spent up to now is        7.3 secs

     total energy              =    -501.49437766 Ry
     estimated scf accuracy    <       0.02619626 Ry

     iteration # 24     ecut=    30.00 Ry     beta= 0.50
     Davidson diagonalization with overlap
     c_bands:  1 eigenvalues not converged
     ethr =  1.37E-08,  avg # of iterations = 20.0

     total cpu time spent up to now is        7.5 secs

     total energy              =    -501.49442537 Ry
     estimated scf accuracy    <       0.02883468 Ry

     iteration # 25     ecut=    30.00 Ry     beta= 0.50
     Davidson diagonalization with overlap
     c_bands:  1 eigenvalues not converged
     ethr =  1.37E-08,  avg # of iterations = 20.0

     total cpu time spent up to now is        7.6 secs

     total energy              =    -501.49444965 Ry
     estimated scf accuracy    <       0.02919814 Ry

     iteration # 26     ecut=    30.00 Ry     beta= 0.50
     Davidson diagonalization with overlap
     c_bands:  1 eigenvalues not converged
     ethr =  1.37E-08,  avg # of iterations = 20.0

     total cpu time spent up to now is        7.8 secs

     total energy              =    -501.49447831 Ry
     estimated scf accuracy    <       0.02917975 Ry

     iteration # 27     ecut=    30.00 Ry     beta= 0.50
     Davidson diagonalization with overlap
     c_bands:  1 eigenvalues not converged
     ethr =  1.37E-08,  avg # of iterations = 20.0

     total cpu time spent up to now is        7.9 secs

     total energy              =    -501.49448205 Ry
     estimated scf accuracy    <       0.02997127 Ry

     iteration # 28     ecut=    30.00 Ry     beta= 0.50
     Davidson diagonalization with overlap
     c_bands:  1 eigenvalues not converged
     ethr =  1.37E-08,  avg # of iterations = 20.0

     total cpu time spent up to now is        8.1 secs

     total energy              =    -501.49447893 Ry
     estimated scf accuracy    <       0.03017012 Ry

     iteration # 29     ecut=    30.00 Ry     beta= 0.50
     Davidson diagonalization with overlap
     ethr =  1.37E-08,  avg # of iterations =  2.0

     total cpu time spent up to now is        8.2 secs

     total energy              =    -501.48668541 Ry
     estimated scf accuracy    <       0.03015689 Ry

     iteration # 30     ecut=    30.00 Ry     beta= 0.50
     Davidson diagonalization with overlap
     c_bands:  1 eigenvalues not converged
     ethr =  1.37E-08,  avg # of iterations = 40.0

     total cpu time spent up to now is        8.5 secs

     total energy              =    -501.48184853 Ry
     estimated scf accuracy    <       0.28163447 Ry

     iteration # 31     ecut=    30.00 Ry     beta= 0.50
     Davidson diagonalization with overlap
     c_bands:  1 eigenvalues not converged
     ethr =  1.37E-08,  avg # of iterations = 40.0

     total cpu time spent up to now is        8.9 secs

     total energy              =    -501.49322934 Ry
     estimated scf accuracy    <       0.05678974 Ry

     iteration # 32     ecut=    30.00 Ry     beta= 0.50
     Davidson diagonalization with overlap
     c_bands:  5 eigenvalues not converged
     ethr =  1.37E-08,  avg # of iterations = 20.0

     total cpu time spent up to now is        9.1 secs

     total energy              =    -501.49573429 Ry
     estimated scf accuracy    <       0.05985231 Ry

     iteration # 33     ecut=    30.00 Ry     beta= 0.50
     Davidson diagonalization with overlap
     c_bands:  5 eigenvalues not converged
     ethr =  1.37E-08,  avg # of iterations = 20.0

     total cpu time spent up to now is        9.3 secs

     total energy              =    -501.49535432 Ry
     estimated scf accuracy    <       0.04657511 Ry

     iteration # 34     ecut=    30.00 Ry     beta= 0.50
     Davidson diagonalization with overlap
     c_bands:  5 eigenvalues not converged
     ethr =  1.37E-08,  avg # of iterations = 20.0

     total cpu time spent up to now is        9.5 secs

     total energy              =    -501.49036126 Ry
     estimated scf accuracy    <       0.03542774 Ry

     iteration # 35     ecut=    30.00 Ry     beta= 0.50
     Davidson diagonalization with overlap
     c_bands:  5 eigenvalues not converged
     ethr =  1.37E-08,  avg # of iterations = 20.0

     total cpu time spent up to now is        9.7 secs

     total energy              =    -501.49086908 Ry
     estimated scf accuracy    <       0.02210456 Ry

     iteration # 36     ecut=    30.00 Ry     beta= 0.50
     Davidson diagonalization with overlap
     c_bands:  1 eigenvalues not converged
     ethr =  1.37E-08,  avg # of iterations = 40.0

     total cpu time spent up to now is       10.0 secs

     total energy              =    -501.49069345 Ry
     estimated scf accuracy    <       0.07248140 Ry

     iteration # 37     ecut=    30.00 Ry     beta= 0.50
     Davidson diagonalization with overlap
     c_bands:  4 eigenvalues not converged
     ethr =  1.37E-08,  avg # of iterations = 20.0

     total cpu time spent up to now is       10.3 secs

     total energy              =    -501.49374179 Ry
     estimated scf accuracy    <       0.00524299 Ry

     iteration # 38     ecut=    30.00 Ry     beta= 0.50
     Davidson diagonalization with overlap
     c_bands:  2 eigenvalues not converged
     ethr =  1.37E-08,  avg # of iterations = 20.0

     total cpu time spent up to now is       10.4 secs

     total energy              =    -501.49318842 Ry
     estimated scf accuracy    <       0.00436648 Ry

     iteration # 39     ecut=    30.00 Ry     beta= 0.50
     Davidson diagonalization with overlap
     c_bands:  4 eigenvalues not converged
     ethr =  1.37E-08,  avg # of iterations = 20.0

     total cpu time spent up to now is       10.6 secs

     total energy              =    -501.49272485 Ry
     estimated scf accuracy    <       0.00624643 Ry

     iteration # 40     ecut=    30.00 Ry     beta= 0.50
     Davidson diagonalization with overlap
     c_bands:  2 eigenvalues not converged
     ethr =  1.37E-08,  avg # of iterations = 20.0

     total cpu time spent up to now is       10.8 secs

     total energy              =    -501.49215517 Ry
     estimated scf accuracy    <       0.01903481 Ry

     iteration # 41     ecut=    30.00 Ry     beta= 0.50
     Davidson diagonalization with overlap
     c_bands:  3 eigenvalues not converged
     ethr =  1.37E-08,  avg # of iterations = 20.0

     total cpu time spent up to now is       11.0 secs

     total energy              =    -501.49265616 Ry
     estimated scf accuracy    <       0.00755721 Ry

     iteration # 42     ecut=    30.00 Ry     beta= 0.50
     Davidson diagonalization with overlap
     c_bands:  3 eigenvalues not converged
     ethr =  1.37E-08,  avg # of iterations = 20.0

     total cpu time spent up to now is       11.2 secs

     total energy              =    -501.49277132 Ry
     estimated scf accuracy    <       0.00882859 Ry

     iteration # 43     ecut=    30.00 Ry     beta= 0.50
     Davidson diagonalization with overlap
     c_bands:  3 eigenvalues not converged
     ethr =  1.37E-08,  avg # of iterations = 20.0

     total cpu time spent up to now is       11.4 secs

     total energy              =    -501.49321021 Ry
     estimated scf accuracy    <       0.00932017 Ry

     iteration # 44     ecut=    30.00 Ry     beta= 0.50
     Davidson diagonalization with overlap
     c_bands:  1 eigenvalues not converged
     ethr =  1.37E-08,  avg # of iterations = 20.0

     total cpu time spent up to now is       11.6 secs

     total energy              =    -501.49370381 Ry
     estimated scf accuracy    <       0.00515735 Ry

     iteration # 45     ecut=    30.00 Ry     beta= 0.50
     Davidson diagonalization with overlap
     c_bands:  1 eigenvalues not converged
     ethr =  1.37E-08,  avg # of iterations = 20.0

     total cpu time spent up to now is       11.8 secs

     total energy              =    -501.49370614 Ry
     estimated scf accuracy    <       0.00877431 Ry

     iteration # 46     ecut=    30.00 Ry     beta= 0.50
     Davidson diagonalization with overlap
     c_bands:  1 eigenvalues not converged
     ethr =  1.37E-08,  avg # of iterations = 20.0

     total cpu time spent up to now is       12.0 secs

     total energy              =    -501.49379068 Ry
     estimated scf accuracy    <       0.01041935 Ry

     iteration # 47     ecut=    30.00 Ry     beta= 0.50
     Davidson diagonalization with overlap
     c_bands:  1 eigenvalues not converged
     ethr =  1.37E-08,  avg # of iterations = 20.0

     total cpu time spent up to now is       12.1 secs

     total energy              =    -501.49403465 Ry
     estimated scf accuracy    <       0.01064969 Ry

     iteration # 48     ecut=    30.00 Ry     beta= 0.50
     Davidson diagonalization with overlap
     c_bands:  1 eigenvalues not converged
     ethr =  1.37E-08,  avg # of iterations = 20.0

     total cpu time spent up to now is       12.3 secs

     total energy              =    -501.49448932 Ry
     estimated scf accuracy    <       0.02179888 Ry

     iteration # 49     ecut=    30.00 Ry     beta= 0.50
     Davidson diagonalization with overlap
     c_bands:  1 eigenvalues not converged
     ethr =  1.37E-08,  avg # of iterations = 20.0

     total cpu time spent up to now is       12.5 secs

     total energy              =    -501.49573247 Ry
     estimated scf accuracy    <       0.03067812 Ry

     iteration # 50     ecut=    30.00 Ry     beta= 0.50
     Davidson diagonalization with overlap
     c_bands:  3 eigenvalues not converged
     ethr =  1.37E-08,  avg # of iterations = 20.0

     total cpu time spent up to now is       12.7 secs

     total energy              =    -501.49744833 Ry
     estimated scf accuracy    <       0.03308222 Ry

     iteration # 51     ecut=    30.00 Ry     beta= 0.50
     Davidson diagonalization with overlap
     c_bands:  1 eigenvalues not converged
     ethr =  1.37E-08,  avg # of iterations = 20.0

     total cpu time spent up to now is       12.9 secs

     total energy              =    -501.49666882 Ry
     estimated scf accuracy    <       0.04889530 Ry

     iteration # 52     ecut=    30.00 Ry     beta= 0.50
     Davidson diagonalization with overlap
     c_bands:  3 eigenvalues not converged
     ethr =  1.37E-08,  avg # of iterations = 20.0

     total cpu time spent up to now is       13.1 secs

     total energy              =    -501.49290219 Ry
     estimated scf accuracy    <       0.08066522 Ry

     iteration # 53     ecut=    30.00 Ry     beta= 0.50
     Davidson diagonalization with overlap
     c_bands:  5 eigenvalues not converged
     ethr =  1.37E-08,  avg # of iterations = 20.0

     total cpu time spent up to now is       13.3 secs

     total energy              =    -501.49199895 Ry
     estimated scf accuracy    <       0.06695158 Ry

     iteration # 54     ecut=    30.00 Ry     beta= 0.50
     Davidson diagonalization with overlap
     c_bands:  1 eigenvalues not converged
     ethr =  1.37E-08,  avg # of iterations = 40.0

     total cpu time spent up to now is       13.6 secs

     total energy              =    -501.49052158 Ry
     estimated scf accuracy    <       0.09266526 Ry

     iteration # 55     ecut=    30.00 Ry     beta= 0.50
     Davidson diagonalization with overlap
     c_bands:  5 eigenvalues not converged
     ethr =  1.37E-08,  avg # of iterations = 20.0

     total cpu time spent up to now is       13.8 secs

     total energy              =    -501.49289887 Ry
     estimated scf accuracy    <       0.02470643 Ry

     iteration # 56     ecut=    30.00 Ry     beta= 0.50
     Davidson diagonalization with overlap
     c_bands:  1 eigenvalues not converged
     ethr =  1.37E-08,  avg # of iterations = 20.0

     total cpu time spent up to now is       14.0 secs

     total energy              =    -501.49153756 Ry
     estimated scf accuracy    <       0.01729831 Ry

     iteration # 57     ecut=    30.00 Ry     beta= 0.50
     Davidson diagonalization with overlap
     c_bands:  3 eigenvalues not converged
     ethr =  1.37E-08,  avg # of iterations = 20.0

     total cpu time spent up to now is       14.2 secs

     total energy              =    -501.49113664 Ry
     estimated scf accuracy    <       0.02503277 Ry

     iteration # 58     ecut=    30.00 Ry     beta= 0.50
     Davidson diagonalization with overlap
     c_bands:  4 eigenvalues not converged
     ethr =  1.37E-08,  avg # of iterations = 20.0

     total cpu time spent up to now is       14.4 secs

     total energy              =    -501.49377835 Ry
     estimated scf accuracy    <       0.00517926 Ry

     iteration # 59     ecut=    30.00 Ry     beta= 0.50
     Davidson diagonalization with overlap
     c_bands:  1 eigenvalues not converged
     ethr =  1.37E-08,  avg # of iterations = 20.0

     total cpu time spent up to now is       14.6 secs

     total energy              =    -501.49382391 Ry
     estimated scf accuracy    <       0.00327295 Ry

     iteration # 60     ecut=    30.00 Ry     beta= 0.50
     Davidson diagonalization with overlap
     c_bands:  1 eigenvalues not converged
     ethr =  1.37E-08,  avg # of iterations = 20.0

     total cpu time spent up to now is       14.8 secs

     total energy              =    -501.49379553 Ry
     estimated scf accuracy    <       0.00257278 Ry

     iteration # 61     ecut=    30.00 Ry     beta= 0.50
     Davidson diagonalization with overlap
     c_bands:  1 eigenvalues not converged
     ethr =  1.37E-08,  avg # of iterations = 20.0

     total cpu time spent up to now is       15.0 secs

     total energy              =    -501.49377807 Ry
     estimated scf accuracy    <       0.00179716 Ry

     iteration # 62     ecut=    30.00 Ry     beta= 0.50
     Davidson diagonalization with overlap
     c_bands:  1 eigenvalues not converged
     ethr =  1.37E-08,  avg # of iterations = 20.0

     total cpu time spent up to now is       15.1 secs

     total energy              =    -501.49377434 Ry
     estimated scf accuracy    <       0.00153709 Ry

     iteration # 63     ecut=    30.00 Ry     beta= 0.50
     Davidson diagonalization with overlap
     c_bands:  1 eigenvalues not converged
     ethr =  1.37E-08,  avg # of iterations = 20.0

     total cpu time spent up to now is       15.3 secs

     total energy              =    -501.49378205 Ry
     estimated scf accuracy    <       0.00137777 Ry

     iteration # 64     ecut=    30.00 Ry     beta= 0.50
     Davidson diagonalization with overlap
     c_bands:  1 eigenvalues not converged
     ethr =  1.37E-08,  avg # of iterations = 20.0

     total cpu time spent up to now is       15.4 secs

     total energy              =    -501.49380327 Ry
     estimated scf accuracy    <       0.00131452 Ry

     iteration # 65     ecut=    30.00 Ry     beta= 0.50
     Davidson diagonalization with overlap
     ethr =  1.37E-08,  avg # of iterations = 13.0

     total cpu time spent up to now is       15.5 secs

     total energy              =    -501.49320465 Ry
     estimated scf accuracy    <       0.00147870 Ry

     iteration # 66     ecut=    30.00 Ry     beta= 0.50
     Davidson diagonalization with overlap
     c_bands:  3 eigenvalues not converged
     ethr =  1.37E-08,  avg # of iterations = 20.0

     total cpu time spent up to now is       15.7 secs

     total energy              =    -501.49295805 Ry
     estimated scf accuracy    <       0.00562332 Ry

     iteration # 67     ecut=    30.00 Ry     beta= 0.50
     Davidson diagonalization with overlap
     c_bands:  4 eigenvalues not converged
     ethr =  1.37E-08,  avg # of iterations = 20.0

     total cpu time spent up to now is       15.9 secs

     total energy              =    -501.49331097 Ry
     estimated scf accuracy    <       0.00239999 Ry

     iteration # 68     ecut=    30.00 Ry     beta= 0.50
     Davidson diagonalization with overlap
     c_bands:  2 eigenvalues not converged
     ethr =  1.37E-08,  avg # of iterations = 20.0

     total cpu time spent up to now is       16.1 secs

     total energy              =    -501.49344121 Ry
     estimated scf accuracy    <       0.00256243 Ry

     iteration # 69     ecut=    30.00 Ry     beta= 0.50
     Davidson diagonalization with overlap
     c_bands:  1 eigenvalues not converged
     ethr =  1.37E-08,  avg # of iterations = 20.0

     total cpu time spent up to now is       16.3 secs

     total energy              =    -501.49358937 Ry
     estimated scf accuracy    <       0.00462340 Ry

     iteration # 70     ecut=    30.00 Ry     beta= 0.50
     Davidson diagonalization with overlap
     c_bands:  1 eigenvalues not converged
     ethr =  1.37E-08,  avg # of iterations = 20.0

     total cpu time spent up to now is       16.5 secs

     total energy              =    -501.49377712 Ry
     estimated scf accuracy    <       0.00513798 Ry

     iteration # 71     ecut=    30.00 Ry     beta= 0.50
     Davidson diagonalization with overlap
     c_bands:  1 eigenvalues not converged
     ethr =  1.37E-08,  avg # of iterations = 20.0

     total cpu time spent up to now is       16.7 secs

     total energy              =    -501.49359807 Ry
     estimated scf accuracy    <       0.00803558 Ry

     iteration # 72     ecut=    30.00 Ry     beta= 0.50
     Davidson diagonalization with overlap
     c_bands:  1 eigenvalues not converged
     ethr =  1.37E-08,  avg # of iterations = 20.0

     total cpu time spent up to now is       16.8 secs

     total energy              =    -501.49328774 Ry
     estimated scf accuracy    <       0.00691501 Ry

     iteration # 73     ecut=    30.00 Ry     beta= 0.50
     Davidson diagonalization with overlap
     c_bands:  1 eigenvalues not converged
     ethr =  1.37E-08,  avg # of iterations = 20.0

     total cpu time spent up to now is       17.0 secs

     total energy              =    -501.49325062 Ry
     estimated scf accuracy    <       0.00370479 Ry

     iteration # 74     ecut=    30.00 Ry     beta= 0.50
     Davidson diagonalization with overlap
     c_bands:  1 eigenvalues not converged
     ethr =  1.37E-08,  avg # of iterations = 20.0

     total cpu time spent up to now is       17.2 secs

     total energy              =    -501.49343775 Ry
     estimated scf accuracy    <       0.00213798 Ry

     iteration # 75     ecut=    30.00 Ry     beta= 0.50
     Davidson diagonalization with overlap
     c_bands:  1 eigenvalues not converged
     ethr =  1.37E-08,  avg # of iterations = 20.0

     total cpu time spent up to now is       17.4 secs

     total energy              =    -501.49336611 Ry
     estimated scf accuracy    <       0.01527946 Ry

     iteration # 76     ecut=    30.00 Ry     beta= 0.50
     Davidson diagonalization with overlap
     c_bands:  1 eigenvalues not converged
     ethr =  1.37E-08,  avg # of iterations = 20.0

     total cpu time spent up to now is       17.6 secs

     total energy              =    -501.49347355 Ry
     estimated scf accuracy    <       0.00815071 Ry

     iteration # 77     ecut=    30.00 Ry     beta= 0.50
     Davidson diagonalization with overlap
     c_bands:  1 eigenvalues not converged
     ethr =  1.37E-08,  avg # of iterations = 20.0

     total cpu time spent up to now is       17.8 secs

     total energy              =    -501.49343628 Ry
     estimated scf accuracy    <       0.00562830 Ry

     iteration # 78     ecut=    30.00 Ry     beta= 0.50
     Davidson diagonalization with overlap
     c_bands:  1 eigenvalues not converged
     ethr =  1.37E-08,  avg # of iterations = 20.0

     total cpu time spent up to now is       18.0 secs

     total energy              =    -501.49353396 Ry
     estimated scf accuracy    <       0.00097793 Ry

     iteration # 79     ecut=    30.00 Ry     beta= 0.50
     Davidson diagonalization with overlap
     c_bands:  1 eigenvalues not converged
     ethr =  1.37E-08,  avg # of iterations = 20.0

     total cpu time spent up to now is       18.2 secs

     total energy              =    -501.49359921 Ry
     estimated scf accuracy    <       0.00070517 Ry

     iteration # 80     ecut=    30.00 Ry     beta= 0.50
     Davidson diagonalization with overlap
     c_bands:  1 eigenvalues not converged
     ethr =  1.37E-08,  avg # of iterations = 20.0

     total cpu time spent up to now is       18.3 secs

     total energy              =    -501.49360618 Ry
     estimated scf accuracy    <       0.00036668 Ry

     iteration # 81     ecut=    30.00 Ry     beta= 0.50
     Davidson diagonalization with overlap
     ethr =  1.37E-08,  avg # of iterations = 15.0

     total cpu time spent up to now is       18.5 secs

     total energy              =    -501.49357723 Ry
     estimated scf accuracy    <       0.00037796 Ry

     iteration # 82     ecut=    30.00 Ry     beta= 0.50
     Davidson diagonalization with overlap
     c_bands:  1 eigenvalues not converged
     ethr =  1.37E-08,  avg # of iterations = 20.0

     total cpu time spent up to now is       18.6 secs

     total energy              =    -501.49354943 Ry
     estimated scf accuracy    <       0.00095130 Ry

     iteration # 83     ecut=    30.00 Ry     beta= 0.50
     Davidson diagonalization with overlap
     c_bands:  1 eigenvalues not converged
     ethr =  1.37E-08,  avg # of iterations = 20.0

     total cpu time spent up to now is       18.8 secs

     total energy              =    -501.49356125 Ry
     estimated scf accuracy    <       0.00343473 Ry

     iteration # 84     ecut=    30.00 Ry     beta= 0.50
     Davidson diagonalization with overlap
     c_bands:  1 eigenvalues not converged
     ethr =  1.37E-08,  avg # of iterations = 20.0

     total cpu time spent up to now is       19.0 secs

     total energy              =    -501.49361653 Ry
     estimated scf accuracy    <       0.00287885 Ry

     iteration # 85     ecut=    30.00 Ry     beta= 0.50
     Davidson diagonalization with overlap
     ethr =  1.37E-08,  avg # of iterations =  9.0

     total cpu time spent up to now is       19.1 secs

     total energy              =    -501.49356081 Ry
     estimated scf accuracy    <       0.00273212 Ry

     iteration # 86     ecut=    30.00 Ry     beta= 0.50
     Davidson diagonalization with overlap
     c_bands:  1 eigenvalues not converged
     ethr =  1.37E-08,  avg # of iterations = 20.0

     total cpu time spent up to now is       19.3 secs

     total energy              =    -501.49325624 Ry
     estimated scf accuracy    <       0.00536019 Ry

     iteration # 87     ecut=    30.00 Ry     beta= 0.50
     Davidson diagonalization with overlap
     c_bands:  3 eigenvalues not converged
     ethr =  1.37E-08,  avg # of iterations = 20.0

     total cpu time spent up to now is       19.5 secs

     total energy              =    -501.49341192 Ry
     estimated scf accuracy    <       0.00371564 Ry

     iteration # 88     ecut=    30.00 Ry     beta= 0.50
     Davidson diagonalization with overlap
     c_bands:  1 eigenvalues not converged
     ethr =  1.37E-08,  avg # of iterations = 20.0

     total cpu time spent up to now is       19.7 secs

     total energy              =    -501.49354231 Ry
     estimated scf accuracy    <       0.00638047 Ry

     iteration # 89     ecut=    30.00 Ry     beta= 0.50
     Davidson diagonalization with overlap
     c_bands:  1 eigenvalues not converged
     ethr =  1.37E-08,  avg # of iterations = 20.0

     total cpu time spent up to now is       19.8 secs

     total energy              =    -501.49357752 Ry
     estimated scf accuracy    <       0.00670859 Ry

     iteration # 90     ecut=    30.00 Ry     beta= 0.50
     Davidson diagonalization with overlap
     c_bands:  1 eigenvalues not converged
     ethr =  1.37E-08,  avg # of iterations = 20.0

     total cpu time spent up to now is       20.0 secs

     total energy              =    -501.49254890 Ry
     estimated scf accuracy    <       0.03338946 Ry

     iteration # 91     ecut=    30.00 Ry     beta= 0.50
     Davidson diagonalization with overlap
     c_bands:  1 eigenvalues not converged
     ethr =  1.37E-08,  avg # of iterations = 20.0

     total cpu time spent up to now is       20.2 secs

     total energy              =    -501.49341658 Ry
     estimated scf accuracy    <       0.00458246 Ry

     iteration # 92     ecut=    30.00 Ry     beta= 0.50
     Davidson diagonalization with overlap
     c_bands:  1 eigenvalues not converged
     ethr =  1.37E-08,  avg # of iterations = 20.0

     total cpu time spent up to now is       20.4 secs

     total energy              =    -501.49388868 Ry
     estimated scf accuracy    <       0.00350666 Ry

     iteration # 93     ecut=    30.00 Ry     beta= 0.50
     Davidson diagonalization with overlap
     ethr =  1.37E-08,  avg # of iterations = 10.0

     total cpu time spent up to now is       20.5 secs

     total energy              =    -501.49403374 Ry
     estimated scf accuracy    <       0.00355997 Ry

     iteration # 94     ecut=    30.00 Ry     beta= 0.50
     Davidson diagonalization with overlap
     ethr =  1.37E-08,  avg # of iterations = 13.0

     total cpu time spent up to now is       20.6 secs

     total energy              =    -501.49411405 Ry
     estimated scf accuracy    <       0.00427642 Ry

     iteration # 95     ecut=    30.00 Ry     beta= 0.50
     Davidson diagonalization with overlap
     ethr =  1.37E-08,  avg # of iterations = 20.0

     total cpu time spent up to now is       20.8 secs

     total energy              =    -501.49416637 Ry
     estimated scf accuracy    <       0.00439984 Ry

     iteration # 96     ecut=    30.00 Ry     beta= 0.50
     Davidson diagonalization with overlap
     ethr =  1.37E-08,  avg # of iterations =  2.0

     total cpu time spent up to now is       20.9 secs

     total energy              =    -501.49420109 Ry
     estimated scf accuracy    <       0.00454742 Ry

     iteration # 97     ecut=    30.00 Ry     beta= 0.50
     Davidson diagonalization with overlap
     ethr =  1.37E-08,  avg # of iterations =  2.0

     total cpu time spent up to now is       21.0 secs

     total energy              =    -501.49515989 Ry
     estimated scf accuracy    <       0.00473292 Ry

     iteration # 98     ecut=    30.00 Ry     beta= 0.50
     Davidson diagonalization with overlap
     c_bands:  2 eigenvalues not converged
     ethr =  1.37E-08,  avg # of iterations = 20.0

     total cpu time spent up to now is       21.2 secs

     total energy              =    -501.49589355 Ry
     estimated scf accuracy    <       0.01418857 Ry

     iteration # 99     ecut=    30.00 Ry     beta= 0.50
     Davidson diagonalization with overlap
     c_bands:  1 eigenvalues not converged
     ethr =  1.37E-08,  avg # of iterations = 20.0

     total cpu time spent up to now is       21.3 secs

     total energy              =    -501.49103315 Ry
     estimated scf accuracy    <       0.01585109 Ry

     iteration #100     ecut=    30.00 Ry     beta= 0.50
     Davidson diagonalization with overlap
     c_bands:  2 eigenvalues not converged
     ethr =  1.37E-08,  avg # of iterations = 20.0

     total cpu time spent up to now is       21.6 secs

     total energy              =    -501.49185693 Ry
     estimated scf accuracy    <       0.05934981 Ry

     End of self-consistent calculation

     convergence NOT achieved after 100 iterations: stopping

     Writing config to output data dir ./pwscf.save/
     Message from routine punch:
     wavefunctions written to file
 
     init_run     :      0.95s CPU      4.12s WALL (       1 calls)
     electrons    :     16.73s CPU     17.38s WALL (       1 calls)

     Called by init_run:
     wfcinit      :      0.44s CPU      3.47s WALL (       1 calls)
                                        3.47s GPU  (       1 calls)
     potinit      :      0.03s CPU      0.11s WALL (       1 calls)
     hinit0       :      0.46s CPU      0.48s WALL (       1 calls)

     Called by electrons:
     c_bands      :     13.52s CPU     13.91s WALL (     101 calls)
     sum_band     :      1.48s CPU      1.65s WALL (     101 calls)
     v_of_rho     :      0.58s CPU      0.68s WALL (     101 calls)
     mix_rho      :      0.92s CPU      0.96s WALL (     101 calls)

     Called by c_bands:
     init_us_2    :      0.24s CPU      0.28s WALL (     203 calls)
     init_us_2:gp :      0.24s CPU      0.27s WALL (     203 calls)
     regterg      :     12.78s CPU     13.13s WALL (     105 calls)

     Called by *egterg:
     rdiaghg      :      6.29s CPU      7.00s WALL (    1961 calls)
                                        6.68s GPU  (    1961 calls)
     h_psi        :      5.12s CPU      7.73s WALL (    1963 calls)
                                        7.70s GPU  (    1963 calls)
     g_psi        :      0.01s CPU      0.05s WALL (    1857 calls)
                                        0.04s GPU  (    1857 calls)

     Called by h_psi:
     h_psi:calbec :      1.01s CPU      3.42s WALL (    1963 calls)
                                        3.41s GPU  (    1963 calls)
     vloc_psi     :      3.03s CPU      3.23s WALL (    1963 calls)
                                        3.19s GPU  (    1963 calls)
     add_vuspsi   :      0.81s CPU      0.99s WALL (    1963 calls)
                                        0.98s GPU  (    1963 calls)

     General routines
     calbec       :      0.99s CPU      3.38s WALL (    1963 calls)
     fft          :      0.90s CPU      1.05s WALL (     809 calls)
                                        0.17s GPU  (     505 calls)
     ffts         :      0.15s CPU      0.16s WALL (     101 calls)
     fftw         :      3.21s CPU      3.88s WALL (   12922 calls)
                                        3.35s GPU  (   12922 calls)
     davcio       :      0.00s CPU      0.00s WALL (      19 calls)
 
     Parallel routines
 
     PWSCF        :     17.73s CPU     21.59s WALL

 
   This run was terminated on:  15:23:14   9May2023            

=------------------------------------------------------------------------------=
   JOB DONE.
=------------------------------------------------------------------------------=
