An instance of this daemon is already running
An instance of this daemon is already running

     Program PWSCF v.7.1 starts on  9May2023 at 15:14:45 

     This program is part of the open-source Quantum ESPRESSO suite
     for quantum simulation of materials; please cite
         "P. Giannozzi et al., J. Phys.:Condens. Matter 21 395502 (2009);
         "P. Giannozzi et al., J. Phys.:Condens. Matter 29 465901 (2017);
         "P. Giannozzi et al., J. Chem. Phys. 152 154105 (2020);
          URL http://www.quantum-espresso.org", 
     in publications or presentations arising from this work. More details at
     http://www.quantum-espresso.org/quote

     Parallel version (MPI & OpenMP), running on       4 processor cores
     Number of MPI processes:                 4
     Threads/MPI process:                     1

     MPI processes distributed on     1 nodes
     9234 MiB available memory on the printing compute node when the environment starts
 
     Reading input from pw-si-39.in
Warning: card &CELL ignored
Warning: card / ignored

     Current dimensions of program PWSCF are:
     Max number of different atomic species (ntypx) = 10
     Max number of k-points (npk) =  40000
     Max angular momentum in pseudopotentials (lmaxx) =  4

     IMPORTANT: XC functional enforced from input :
     Exchange-correlation= PBE
                           (   1   4   3   4   0   0   0)
     Any further DFT definition will be discarded
     Please, verify this is what you really want


     gamma-point specific algorithms are used
 
     K-points division:     npool     =       2
     R & G space division:  proc/nbgrp/npool/nimage =       2
     Subspace diagonalization in iterative solution of the eigenvalue problem:
     a serial algorithm will be used

     Message from routine divide_et_impera:
     suboptimal parallelization: some nodes have no k-points
 
     Parallelization info
     --------------------
     sticks:   dense  smooth     PW     G-vecs:    dense   smooth      PW
     Min        1916    1916    502                89532    89532   12150
     Max        1917    1917    503                89537    89537   12153
     Sum        3833    3833   1005               179069   179069   24303
 
     Using Slab Decomposition
 


     bravais-lattice index     =            0
     lattice parameter (alat)  =      20.0603  a.u.
     unit-cell volume          =    8072.6218 (a.u.)^3
     number of atoms/cell      =           64
     number of atomic types    =            1
     number of electrons       =       256.00
     number of Kohn-Sham states=          128
     kinetic-energy cutoff     =      30.0000  Ry
     charge density cutoff     =     120.0000  Ry
     scf convergence threshold =      1.0E-06
     mixing beta               =       0.5000
     number of iterations used =            8  plain     mixing
     Exchange-correlation= PBE
                           (   1   4   3   4   0   0   0)

     GPU acceleration is ACTIVE.
     GPU-aware MPI enabled

     Message from routine print_cuda_info:
     High GPU oversubscription detected. Are you sure this is what you want?

     celldm(1)=  20.060336  celldm(2)=   0.000000  celldm(3)=   0.000000
     celldm(4)=   0.000000  celldm(5)=   0.000000  celldm(6)=   0.000000

     crystal axes: (cart. coord. in units of alat)
               a(1) = (   1.000000   0.000000   0.000000 )  
               a(2) = (   0.000000   1.000000   0.000000 )  
               a(3) = (   0.000000   0.000000   1.000000 )  

     reciprocal axes: (cart. coord. in units 2 pi/alat)
               b(1) = (  1.000000  0.000000  0.000000 )  
               b(2) = (  0.000000  1.000000  0.000000 )  
               b(3) = (  0.000000  0.000000  1.000000 )  


     PseudoPot. # 1 for Si read from file:
     /home/ppiaggi/pseudos/Si_ONCV_PBE_sr.upf
     MD5 check sum: 8553c464762ac42b85b1eed164b4d029
     Pseudo is Norm-conserving, Zval =  4.0
     Generated using ONCVPSP code by D. R. Hamann
     Using radial grid of 1510 points,  4 beta functions with: 
                l(1) =   0
                l(2) =   0
                l(3) =   1
                l(4) =   1

     atomic species   valence    mass     pseudopotential
        Si             4.00    28.08500     Si( 1.00)

     No symmetry found



   Cartesian axes

     site n.     atom                  positions (alat units)
         1           Si  tau(   1) = (   0.0543892   0.2434480   0.3158480  )
         2           Si  tau(   2) = (   0.5506780   0.9791990   0.4525150  )
         3           Si  tau(   3) = (   0.7692320   0.2723950   0.5644640  )
         4           Si  tau(   4) = (   0.8324720   0.6416170   0.6263460  )
         5           Si  tau(   5) = (   0.1118840   0.0340930   0.2118990  )
         6           Si  tau(   6) = (   0.6270630   0.1384870   0.6504020  )
         7           Si  tau(   7) = (   0.6115360   0.6954620   0.4683500  )
         8           Si  tau(   8) = (   0.1502950   0.3524810   0.1044250  )
         9           Si  tau(   9) = (   0.0643166   0.2197700   0.9253910  )
        10           Si  tau(  10) = (   0.9182870   0.1197780   0.4878910  )
        11           Si  tau(  11) = (   0.4365870   0.1969480   0.4331340  )
        12           Si  tau(  12) = (   0.3605710   0.1125550   0.6663850  )
        13           Si  tau(  13) = (   0.2343840   0.3273500   0.6144690  )
        14           Si  tau(  14) = (   0.9541130   0.4982470   0.3838990  )
        15           Si  tau(  15) = (   0.1981430   0.6152900   0.4069200  )
        16           Si  tau(  16) = (   0.9905910   0.8432200   0.7726680  )
        17           Si  tau(  17) = (   0.9699440   0.2672570   0.7141750  )
        18           Si  tau(  18) = (   0.9039700   0.7549580   0.3984140  )
        19           Si  tau(  19) = (   0.4986110   0.3853630   0.5600350  )
        20           Si  tau(  20) = (   0.4811090   0.5668030   0.9006870  )
        21           Si  tau(  21) = (   0.7959480   0.4385610   0.7799440  )
        22           Si  tau(  22) = (   0.7507840   0.0506936   0.9257510  )
        23           Si  tau(  23) = (   0.6454230   0.8767780   0.6311690  )
        24           Si  tau(  24) = (   0.3887940   0.9044110   0.7499270  )
        25           Si  tau(  25) = (   0.1767230   0.8654370   0.6033010  )
        26           Si  tau(  26) = (   0.9446780   0.9719500   0.0572738  )
        27           Si  tau(  27) = (   0.4693000   0.7306470   0.1516560  )
        28           Si  tau(  28) = (   0.2432680   0.3928820   0.3983160  )
        29           Si  tau(  29) = (   0.6799200   0.5195090   0.2227590  )
        30           Si  tau(  30) = (   0.7802410   0.9521490   0.3761310  )
        31           Si  tau(  31) = (   0.3683760   0.6667550   0.7466360  )
        32           Si  tau(  32) = (   0.3369950   0.8966610   0.2112420  )
        33           Si  tau(  33) = (   0.3633880   0.8403160   0.4229680  )
        34           Si  tau(  34) = (   0.9402630   0.6676640   0.1712020  )
        35           Si  tau(  35) = (   0.3105050   0.3344670   0.8673380  )
        36           Si  tau(  36) = (   0.6027190   0.3643280   0.0668279  )
        37           Si  tau(  37) = (   0.1497020   0.7437920   0.2195240  )
        38           Si  tau(  38) = (   0.0795978   0.9127550   0.4118960  )
        39           Si  tau(  39) = (   0.8433950   0.1215320   0.2017520  )
        40           Si  tau(  40) = (   0.3537460   0.1226560   0.9517120  )
        41           Si  tau(  41) = (   0.6239790   0.7297330   0.8459130  )
        42           Si  tau(  42) = (   0.5574820   0.1785800   0.8414200  )
        43           Si  tau(  43) = (   0.1829390   0.5180590   0.7702010  )
        44           Si  tau(  44) = (   0.1884250   0.6170380   0.9892520  )
        45           Si  tau(  45) = (   0.4346780   0.4813950   0.2886160  )
        46           Si  tau(  46) = (   0.8149080   0.2762230   0.9590630  )
        47           Si  tau(  47) = (   0.2482220   0.8157070   0.9606940  )
        48           Si  tau(  48) = (   0.3028510   0.1697730   0.1523010  )
        49           Si  tau(  49) = (   0.3708280   0.5225460   0.0876441  )
        50           Si  tau(  50) = (   0.4066520   0.5960070   0.5338950  )
        51           Si  tau(  51) = (   0.0646719   0.6430020   0.5986820  )
        52           Si  tau(  52) = (   0.8071970   0.7925290   0.0481462  )
        53           Si  tau(  53) = (   0.6015430   0.0153121   0.1909290  )
        54           Si  tau(  54) = (   0.8491150   0.6601840   0.8505060  )
        55           Si  tau(  55) = (   0.1306680   0.9960310   0.8987510  )
        56           Si  tau(  56) = (   0.7523920   0.4910960   0.4496980  )
        57           Si  tau(  57) = (   0.1444210   0.0893876   0.6620260  )
        58           Si  tau(  58) = (   0.5384060   0.2292420   0.2127870  )
        59           Si  tau(  59) = (   0.5297180   0.9217190   0.9655390  )
        60           Si  tau(  60) = (   0.8729670   0.3888170   0.1714720  )
        61           Si  tau(  61) = (   0.9703520   0.5348920   0.9863820  )
        62           Si  tau(  62) = (   0.5717300   0.3991650   0.8067640  )
        63           Si  tau(  63) = (   0.8469130   0.0031484   0.7035890  )
        64           Si  tau(  64) = (   0.6792300   0.7506630   0.2179780  )

     number of k points=     1
                       cart. coord. in units 2pi/alat
        k(    1) = (   0.0000000   0.0000000   0.0000000), wk =   2.0000000

     Dense  grid:    89535 G-vectors     FFT dimensions: (  72,  72,  72)

     Estimated max dynamical RAM per process >     132.12 MB

     Estimated total dynamical RAM >     506.61 MB

     Initial potential from superposition of free atoms

     starting charge     255.9608, renormalised to     256.0000
     Starting wfcs are  256 randomized atomic wfcs

     total cpu time spent up to now is        4.1 secs

     Self-consistent Calculation

     iteration #  1     ecut=    30.00 Ry     beta= 0.50
     Davidson diagonalization with overlap
     ethr =  1.00E-02,  avg # of iterations =  2.0

     Threshold (ethr) on eigenvalues was too large:
     Diagonalizing with lowered threshold

     Davidson diagonalization with overlap
     ethr =  3.56E-04,  avg # of iterations =  6.0

     total cpu time spent up to now is        4.3 secs

     total energy              =    -501.04132632 Ry
     estimated scf accuracy    <       1.20223469 Ry

     iteration #  2     ecut=    30.00 Ry     beta= 0.50
     Davidson diagonalization with overlap
     ethr =  4.70E-04,  avg # of iterations = 15.0

     total cpu time spent up to now is        4.5 secs

     total energy              =    -500.48091457 Ry
     estimated scf accuracy    <       6.59161265 Ry

     iteration #  3     ecut=    30.00 Ry     beta= 0.50
     Davidson diagonalization with overlap
     ethr =  4.70E-04,  avg # of iterations = 13.0

     total cpu time spent up to now is        4.6 secs

     total energy              =    -501.11608242 Ry
     estimated scf accuracy    <       1.82994630 Ry

     iteration #  4     ecut=    30.00 Ry     beta= 0.50
     Davidson diagonalization with overlap
     ethr =  4.70E-04,  avg # of iterations =  8.0

     total cpu time spent up to now is        4.7 secs

     total energy              =    -501.21539329 Ry
     estimated scf accuracy    <       0.51928023 Ry

     iteration #  5     ecut=    30.00 Ry     beta= 0.50
     Davidson diagonalization with overlap
     ethr =  2.03E-04,  avg # of iterations =  7.0

     total cpu time spent up to now is        4.8 secs

     total energy              =    -501.25623748 Ry
     estimated scf accuracy    <       0.29104543 Ry

     iteration #  6     ecut=    30.00 Ry     beta= 0.50
     Davidson diagonalization with overlap
     ethr =  1.14E-04,  avg # of iterations = 13.0

     total cpu time spent up to now is        4.9 secs

     total energy              =    -501.29115975 Ry
     estimated scf accuracy    <       0.03339248 Ry

     iteration #  7     ecut=    30.00 Ry     beta= 0.50
     Davidson diagonalization with overlap
     c_bands:  2 eigenvalues not converged
     ethr =  1.30E-05,  avg # of iterations = 20.0

     total cpu time spent up to now is        5.1 secs

     total energy              =    -501.29484420 Ry
     estimated scf accuracy    <       0.09478827 Ry

     iteration #  8     ecut=    30.00 Ry     beta= 0.50
     Davidson diagonalization with overlap
     c_bands:  1 eigenvalues not converged
     ethr =  1.30E-05,  avg # of iterations = 20.0

     total cpu time spent up to now is        5.3 secs

     total energy              =    -501.29669440 Ry
     estimated scf accuracy    <       0.03385034 Ry

     iteration #  9     ecut=    30.00 Ry     beta= 0.50
     Davidson diagonalization with overlap
     c_bands:  1 eigenvalues not converged
     ethr =  1.30E-05,  avg # of iterations = 20.0

     total cpu time spent up to now is        5.4 secs

     total energy              =    -501.29656976 Ry
     estimated scf accuracy    <       0.02000176 Ry

     iteration # 10     ecut=    30.00 Ry     beta= 0.50
     Davidson diagonalization with overlap
     c_bands:  1 eigenvalues not converged
     ethr =  7.81E-06,  avg # of iterations = 20.0

     total cpu time spent up to now is        5.6 secs

     total energy              =    -501.29833699 Ry
     estimated scf accuracy    <       0.01615540 Ry

     iteration # 11     ecut=    30.00 Ry     beta= 0.50
     Davidson diagonalization with overlap
     ethr =  6.31E-06,  avg # of iterations = 15.0

     total cpu time spent up to now is        5.7 secs

     total energy              =    -501.29842431 Ry
     estimated scf accuracy    <       0.01023271 Ry

     iteration # 12     ecut=    30.00 Ry     beta= 0.50
     Davidson diagonalization with overlap
     ethr =  4.00E-06,  avg # of iterations =  8.0

     total cpu time spent up to now is        5.8 secs

     total energy              =    -501.29845862 Ry
     estimated scf accuracy    <       0.00695775 Ry

     iteration # 13     ecut=    30.00 Ry     beta= 0.50
     Davidson diagonalization with overlap
     ethr =  2.72E-06,  avg # of iterations =  6.0

     total cpu time spent up to now is        5.9 secs

     total energy              =    -501.29830172 Ry
     estimated scf accuracy    <       0.00441754 Ry

     iteration # 14     ecut=    30.00 Ry     beta= 0.50
     Davidson diagonalization with overlap
     ethr =  1.73E-06,  avg # of iterations =  3.0

     total cpu time spent up to now is        5.9 secs

     total energy              =    -501.29810213 Ry
     estimated scf accuracy    <       0.00224947 Ry

     iteration # 15     ecut=    30.00 Ry     beta= 0.50
     Davidson diagonalization with overlap
     c_bands:  1 eigenvalues not converged
     ethr =  8.79E-07,  avg # of iterations = 20.0

     total cpu time spent up to now is        6.1 secs

     total energy              =    -501.30306730 Ry
     estimated scf accuracy    <       0.03786570 Ry

     iteration # 16     ecut=    30.00 Ry     beta= 0.50
     Davidson diagonalization with overlap
     ethr =  8.79E-07,  avg # of iterations = 13.0

     total cpu time spent up to now is        6.2 secs

     total energy              =    -501.30328949 Ry
     estimated scf accuracy    <       0.03696317 Ry

     iteration # 17     ecut=    30.00 Ry     beta= 0.50
     Davidson diagonalization with overlap
     ethr =  8.79E-07,  avg # of iterations =  1.0

     total cpu time spent up to now is        6.3 secs

     total energy              =    -501.30411233 Ry
     estimated scf accuracy    <       0.03737518 Ry

     iteration # 18     ecut=    30.00 Ry     beta= 0.50
     Davidson diagonalization with overlap
     ethr =  8.79E-07,  avg # of iterations =  2.0

     total cpu time spent up to now is        6.4 secs

     total energy              =    -501.30441607 Ry
     estimated scf accuracy    <       0.04300146 Ry

     iteration # 19     ecut=    30.00 Ry     beta= 0.50
     Davidson diagonalization with overlap
     ethr =  8.79E-07,  avg # of iterations =  1.0

     total cpu time spent up to now is        6.4 secs

     total energy              =    -501.30270717 Ry
     estimated scf accuracy    <       0.04545976 Ry

     iteration # 20     ecut=    30.00 Ry     beta= 0.50
     Davidson diagonalization with overlap
     ethr =  8.79E-07,  avg # of iterations =  7.0

     total cpu time spent up to now is        6.5 secs

     total energy              =    -501.30291160 Ry
     estimated scf accuracy    <       0.03455719 Ry

     iteration # 21     ecut=    30.00 Ry     beta= 0.50
     Davidson diagonalization with overlap
     ethr =  8.79E-07,  avg # of iterations =  2.0

     total cpu time spent up to now is        6.6 secs

     total energy              =    -501.30323701 Ry
     estimated scf accuracy    <       0.03344470 Ry

     iteration # 22     ecut=    30.00 Ry     beta= 0.50
     Davidson diagonalization with overlap
     ethr =  8.79E-07,  avg # of iterations =  1.0

     total cpu time spent up to now is        6.7 secs

     total energy              =    -501.30381180 Ry
     estimated scf accuracy    <       0.03456461 Ry

     iteration # 23     ecut=    30.00 Ry     beta= 0.50
     Davidson diagonalization with overlap
     ethr =  8.79E-07,  avg # of iterations =  6.0

     total cpu time spent up to now is        6.8 secs

     total energy              =    -501.28753974 Ry
     estimated scf accuracy    <       0.04012685 Ry

     iteration # 24     ecut=    30.00 Ry     beta= 0.50
     Davidson diagonalization with overlap
     c_bands:  5 eigenvalues not converged
     ethr =  8.79E-07,  avg # of iterations = 20.0

     total cpu time spent up to now is        7.0 secs

     total energy              =    -501.27997458 Ry
     estimated scf accuracy    <       0.28325849 Ry

     iteration # 25     ecut=    30.00 Ry     beta= 0.50
     Davidson diagonalization with overlap
     c_bands:  2 eigenvalues not converged
     ethr =  8.79E-07,  avg # of iterations = 20.0

     total cpu time spent up to now is        7.1 secs

     total energy              =    -501.29685533 Ry
     estimated scf accuracy    <       0.04027851 Ry

     iteration # 26     ecut=    30.00 Ry     beta= 0.50
     Davidson diagonalization with overlap
     c_bands:  1 eigenvalues not converged
     ethr =  8.79E-07,  avg # of iterations = 20.0

     total cpu time spent up to now is        7.3 secs

     total energy              =    -501.29890653 Ry
     estimated scf accuracy    <       0.01749584 Ry

     iteration # 27     ecut=    30.00 Ry     beta= 0.50
     Davidson diagonalization with overlap
     c_bands:  1 eigenvalues not converged
     ethr =  8.79E-07,  avg # of iterations = 20.0

     total cpu time spent up to now is        7.5 secs

     total energy              =    -501.29949132 Ry
     estimated scf accuracy    <       0.00965607 Ry

     iteration # 28     ecut=    30.00 Ry     beta= 0.50
     Davidson diagonalization with overlap
     ethr =  8.79E-07,  avg # of iterations = 13.0

     total cpu time spent up to now is        7.6 secs

     total energy              =    -501.29945590 Ry
     estimated scf accuracy    <       0.00577380 Ry

     iteration # 29     ecut=    30.00 Ry     beta= 0.50
     Davidson diagonalization with overlap
     ethr =  8.79E-07,  avg # of iterations =  2.0

     total cpu time spent up to now is        7.7 secs

     total energy              =    -501.29928986 Ry
     estimated scf accuracy    <       0.00447387 Ry

     iteration # 30     ecut=    30.00 Ry     beta= 0.50
     Davidson diagonalization with overlap
     ethr =  8.79E-07,  avg # of iterations =  1.0

     total cpu time spent up to now is        7.7 secs

     total energy              =    -501.29890422 Ry
     estimated scf accuracy    <       0.00339767 Ry

     iteration # 31     ecut=    30.00 Ry     beta= 0.50
     Davidson diagonalization with overlap
     c_bands:  1 eigenvalues not converged
     ethr =  8.79E-07,  avg # of iterations = 20.0

     total cpu time spent up to now is        7.9 secs

     total energy              =    -501.30089961 Ry
     estimated scf accuracy    <       0.02246434 Ry

     iteration # 32     ecut=    30.00 Ry     beta= 0.50
     Davidson diagonalization with overlap
     ethr =  8.79E-07,  avg # of iterations = 17.0

     total cpu time spent up to now is        8.0 secs

     total energy              =    -501.30053962 Ry
     estimated scf accuracy    <       0.02242644 Ry

     iteration # 33     ecut=    30.00 Ry     beta= 0.50
     Davidson diagonalization with overlap
     ethr =  8.79E-07,  avg # of iterations =  3.0

     total cpu time spent up to now is        8.1 secs

     total energy              =    -501.30058577 Ry
     estimated scf accuracy    <       0.02079095 Ry

     iteration # 34     ecut=    30.00 Ry     beta= 0.50
     Davidson diagonalization with overlap
     ethr =  8.79E-07,  avg # of iterations =  1.0

     total cpu time spent up to now is        8.1 secs

     total energy              =    -501.30008128 Ry
     estimated scf accuracy    <       0.02047005 Ry

     iteration # 35     ecut=    30.00 Ry     beta= 0.50
     Davidson diagonalization with overlap
     ethr =  8.79E-07,  avg # of iterations =  2.0

     total cpu time spent up to now is        8.2 secs

     total energy              =    -501.29976700 Ry
     estimated scf accuracy    <       0.01716992 Ry

     iteration # 36     ecut=    30.00 Ry     beta= 0.50
     Davidson diagonalization with overlap
     ethr =  8.79E-07,  avg # of iterations =  1.0

     total cpu time spent up to now is        8.3 secs

     total energy              =    -501.29964851 Ry
     estimated scf accuracy    <       0.01536042 Ry

     iteration # 37     ecut=    30.00 Ry     beta= 0.50
     Davidson diagonalization with overlap
     ethr =  8.79E-07,  avg # of iterations =  1.0

     total cpu time spent up to now is        8.4 secs

     total energy              =    -501.29929969 Ry
     estimated scf accuracy    <       0.01434271 Ry

     iteration # 38     ecut=    30.00 Ry     beta= 0.50
     Davidson diagonalization with overlap
     ethr =  8.79E-07,  avg # of iterations =  1.0

     total cpu time spent up to now is        8.4 secs

     total energy              =    -501.29906031 Ry
     estimated scf accuracy    <       0.01259841 Ry

     iteration # 39     ecut=    30.00 Ry     beta= 0.50
     Davidson diagonalization with overlap
     ethr =  8.79E-07,  avg # of iterations =  1.0

     total cpu time spent up to now is        8.5 secs

     total energy              =    -501.29544203 Ry
     estimated scf accuracy    <       0.01136160 Ry

     iteration # 40     ecut=    30.00 Ry     beta= 0.50
     Davidson diagonalization with overlap
     c_bands:  2 eigenvalues not converged
     ethr =  8.79E-07,  avg # of iterations = 20.0

     total cpu time spent up to now is        8.7 secs

     total energy              =    -501.30070333 Ry
     estimated scf accuracy    <       0.04693984 Ry

     iteration # 41     ecut=    30.00 Ry     beta= 0.50
     Davidson diagonalization with overlap
     c_bands:  1 eigenvalues not converged
     ethr =  8.79E-07,  avg # of iterations = 20.0

     total cpu time spent up to now is        8.8 secs

     total energy              =    -501.30075182 Ry
     estimated scf accuracy    <       0.04009537 Ry

     iteration # 42     ecut=    30.00 Ry     beta= 0.50
     Davidson diagonalization with overlap
     ethr =  8.79E-07,  avg # of iterations = 15.0

     total cpu time spent up to now is        9.0 secs

     total energy              =    -501.30026583 Ry
     estimated scf accuracy    <       0.02227555 Ry

     iteration # 43     ecut=    30.00 Ry     beta= 0.50
     Davidson diagonalization with overlap
     ethr =  8.79E-07,  avg # of iterations =  7.0

     total cpu time spent up to now is        9.1 secs

     total energy              =    -501.29996123 Ry
     estimated scf accuracy    <       0.01422686 Ry

     iteration # 44     ecut=    30.00 Ry     beta= 0.50
     Davidson diagonalization with overlap
     ethr =  8.79E-07,  avg # of iterations =  2.0

     total cpu time spent up to now is        9.1 secs

     total energy              =    -501.30018647 Ry
     estimated scf accuracy    <       0.01123865 Ry

     iteration # 45     ecut=    30.00 Ry     beta= 0.50
     Davidson diagonalization with overlap
     ethr =  8.79E-07,  avg # of iterations =  3.0

     total cpu time spent up to now is        9.2 secs

     total energy              =    -501.29959103 Ry
     estimated scf accuracy    <       0.01052596 Ry

     iteration # 46     ecut=    30.00 Ry     beta= 0.50
     Davidson diagonalization with overlap
     c_bands:  1 eigenvalues not converged
     ethr =  8.79E-07,  avg # of iterations = 20.0

     total cpu time spent up to now is        9.4 secs

     total energy              =    -501.30003609 Ry
     estimated scf accuracy    <       0.00456251 Ry

     iteration # 47     ecut=    30.00 Ry     beta= 0.50
     Davidson diagonalization with overlap
     ethr =  8.79E-07,  avg # of iterations = 12.0

     total cpu time spent up to now is        9.5 secs

     total energy              =    -501.30009142 Ry
     estimated scf accuracy    <       0.00442578 Ry

     iteration # 48     ecut=    30.00 Ry     beta= 0.50
     Davidson diagonalization with overlap
     ethr =  8.79E-07,  avg # of iterations =  1.0

     total cpu time spent up to now is        9.5 secs

     total energy              =    -501.29947397 Ry
     estimated scf accuracy    <       0.00432277 Ry

     iteration # 49     ecut=    30.00 Ry     beta= 0.50
     Davidson diagonalization with overlap
     c_bands:  1 eigenvalues not converged
     ethr =  8.79E-07,  avg # of iterations = 20.0

     total cpu time spent up to now is        9.7 secs

     total energy              =    -501.30050841 Ry
     estimated scf accuracy    <       0.03695354 Ry

     iteration # 50     ecut=    30.00 Ry     beta= 0.50
     Davidson diagonalization with overlap
     c_bands:  1 eigenvalues not converged
     ethr =  8.79E-07,  avg # of iterations = 20.0

     total cpu time spent up to now is        9.9 secs

     total energy              =    -501.29970933 Ry
     estimated scf accuracy    <       0.03073491 Ry

     iteration # 51     ecut=    30.00 Ry     beta= 0.50
     Davidson diagonalization with overlap
     ethr =  8.79E-07,  avg # of iterations = 12.0

     total cpu time spent up to now is       10.0 secs

     total energy              =    -501.29967730 Ry
     estimated scf accuracy    <       0.01947825 Ry

     iteration # 52     ecut=    30.00 Ry     beta= 0.50
     Davidson diagonalization with overlap
     ethr =  8.79E-07,  avg # of iterations =  2.0

     total cpu time spent up to now is       10.1 secs

     total energy              =    -501.29916587 Ry
     estimated scf accuracy    <       0.01724972 Ry

     iteration # 53     ecut=    30.00 Ry     beta= 0.50
     Davidson diagonalization with overlap
     ethr =  8.79E-07,  avg # of iterations =  1.0

     total cpu time spent up to now is       10.1 secs

     total energy              =    -501.29781611 Ry
     estimated scf accuracy    <       0.01447756 Ry

     iteration # 54     ecut=    30.00 Ry     beta= 0.50
     Davidson diagonalization with overlap
     c_bands:  1 eigenvalues not converged
     ethr =  8.79E-07,  avg # of iterations = 20.0

     total cpu time spent up to now is       10.3 secs

     total energy              =    -501.30202181 Ry
     estimated scf accuracy    <       0.01628773 Ry

     iteration # 55     ecut=    30.00 Ry     beta= 0.50
     Davidson diagonalization with overlap
     ethr =  8.79E-07,  avg # of iterations =  8.0

     total cpu time spent up to now is       10.4 secs

     total energy              =    -501.30210432 Ry
     estimated scf accuracy    <       0.02100487 Ry

     iteration # 56     ecut=    30.00 Ry     beta= 0.50
     Davidson diagonalization with overlap
     ethr =  8.79E-07,  avg # of iterations =  1.0

     total cpu time spent up to now is       10.5 secs

     total energy              =    -501.30183795 Ry
     estimated scf accuracy    <       0.02167967 Ry

     iteration # 57     ecut=    30.00 Ry     beta= 0.50
     Davidson diagonalization with overlap
     ethr =  8.79E-07,  avg # of iterations =  1.0

     total cpu time spent up to now is       10.5 secs

     total energy              =    -501.30252954 Ry
     estimated scf accuracy    <       0.02101239 Ry

     iteration # 58     ecut=    30.00 Ry     beta= 0.50
     Davidson diagonalization with overlap
     ethr =  8.79E-07,  avg # of iterations =  2.0

     total cpu time spent up to now is       10.6 secs

     total energy              =    -501.29990536 Ry
     estimated scf accuracy    <       0.02512386 Ry

     iteration # 59     ecut=    30.00 Ry     beta= 0.50
     Davidson diagonalization with overlap
     c_bands:  1 eigenvalues not converged
     ethr =  8.79E-07,  avg # of iterations = 20.0

     total cpu time spent up to now is       10.8 secs

     total energy              =    -501.30043821 Ry
     estimated scf accuracy    <       0.01060978 Ry

     iteration # 60     ecut=    30.00 Ry     beta= 0.50
     Davidson diagonalization with overlap
     ethr =  8.79E-07,  avg # of iterations = 14.0

     total cpu time spent up to now is       10.9 secs

     total energy              =    -501.30047721 Ry
     estimated scf accuracy    <       0.00948158 Ry

     iteration # 61     ecut=    30.00 Ry     beta= 0.50
     Davidson diagonalization with overlap
     ethr =  8.79E-07,  avg # of iterations =  1.0

     total cpu time spent up to now is       10.9 secs

     total energy              =    -501.30045078 Ry
     estimated scf accuracy    <       0.00904540 Ry

     iteration # 62     ecut=    30.00 Ry     beta= 0.50
     Davidson diagonalization with overlap
     ethr =  8.79E-07,  avg # of iterations =  1.0

     total cpu time spent up to now is       11.0 secs

     total energy              =    -501.29857310 Ry
     estimated scf accuracy    <       0.00871110 Ry

     iteration # 63     ecut=    30.00 Ry     beta= 0.50
     Davidson diagonalization with overlap
     c_bands:  1 eigenvalues not converged
     ethr =  8.79E-07,  avg # of iterations = 20.0

     total cpu time spent up to now is       11.2 secs

     total energy              =    -501.30106924 Ry
     estimated scf accuracy    <       0.04908520 Ry

     iteration # 64     ecut=    30.00 Ry     beta= 0.50
     Davidson diagonalization with overlap
     c_bands:  1 eigenvalues not converged
     ethr =  8.79E-07,  avg # of iterations = 20.0

     total cpu time spent up to now is       11.4 secs

     total energy              =    -501.30098267 Ry
     estimated scf accuracy    <       0.03644335 Ry

     iteration # 65     ecut=    30.00 Ry     beta= 0.50
     Davidson diagonalization with overlap
     ethr =  8.79E-07,  avg # of iterations =  8.0

     total cpu time spent up to now is       11.5 secs

     total energy              =    -501.30042297 Ry
     estimated scf accuracy    <       0.03150940 Ry

     iteration # 66     ecut=    30.00 Ry     beta= 0.50
     Davidson diagonalization with overlap
     ethr =  8.79E-07,  avg # of iterations =  1.0

     total cpu time spent up to now is       11.5 secs

     total energy              =    -501.29822039 Ry
     estimated scf accuracy    <       0.02847188 Ry

     iteration # 67     ecut=    30.00 Ry     beta= 0.50
     Davidson diagonalization with overlap
     c_bands:  1 eigenvalues not converged
     ethr =  8.79E-07,  avg # of iterations = 20.0

     total cpu time spent up to now is       11.7 secs

     total energy              =    -501.30035456 Ry
     estimated scf accuracy    <       0.00937298 Ry

     iteration # 68     ecut=    30.00 Ry     beta= 0.50
     Davidson diagonalization with overlap
     c_bands:  1 eigenvalues not converged
     ethr =  8.79E-07,  avg # of iterations = 20.0

     total cpu time spent up to now is       11.9 secs

     total energy              =    -501.30000492 Ry
     estimated scf accuracy    <       0.01697873 Ry

     iteration # 69     ecut=    30.00 Ry     beta= 0.50
     Davidson diagonalization with overlap
     ethr =  8.79E-07,  avg # of iterations = 18.0

     total cpu time spent up to now is       12.0 secs

     total energy              =    -501.29995014 Ry
     estimated scf accuracy    <       0.00720252 Ry

     iteration # 70     ecut=    30.00 Ry     beta= 0.50
     Davidson diagonalization with overlap
     ethr =  8.79E-07,  avg # of iterations =  2.0

     total cpu time spent up to now is       12.1 secs

     total energy              =    -501.29976863 Ry
     estimated scf accuracy    <       0.00501338 Ry

     iteration # 71     ecut=    30.00 Ry     beta= 0.50
     Davidson diagonalization with overlap
     ethr =  8.79E-07,  avg # of iterations =  1.0

     total cpu time spent up to now is       12.2 secs

     total energy              =    -501.29916176 Ry
     estimated scf accuracy    <       0.00382518 Ry

     iteration # 72     ecut=    30.00 Ry     beta= 0.50
     Davidson diagonalization with overlap
     c_bands:  1 eigenvalues not converged
     ethr =  8.79E-07,  avg # of iterations = 20.0

     total cpu time spent up to now is       12.3 secs

     total energy              =    -501.29968041 Ry
     estimated scf accuracy    <       0.00506079 Ry

     iteration # 73     ecut=    30.00 Ry     beta= 0.50
     Davidson diagonalization with overlap
     c_bands:  1 eigenvalues not converged
     ethr =  8.79E-07,  avg # of iterations = 20.0

     total cpu time spent up to now is       12.5 secs

     total energy              =    -501.29975882 Ry
     estimated scf accuracy    <       0.00521525 Ry

     iteration # 74     ecut=    30.00 Ry     beta= 0.50
     Davidson diagonalization with overlap
     ethr =  8.79E-07,  avg # of iterations = 13.0

     total cpu time spent up to now is       12.6 secs

     total energy              =    -501.29980410 Ry
     estimated scf accuracy    <       0.00501783 Ry

     iteration # 75     ecut=    30.00 Ry     beta= 0.50
     Davidson diagonalization with overlap
     ethr =  8.79E-07,  avg # of iterations =  1.0

     total cpu time spent up to now is       12.7 secs

     total energy              =    -501.29998994 Ry
     estimated scf accuracy    <       0.00467725 Ry

     iteration # 76     ecut=    30.00 Ry     beta= 0.50
     Davidson diagonalization with overlap
     c_bands:  1 eigenvalues not converged
     ethr =  8.79E-07,  avg # of iterations = 20.0

     total cpu time spent up to now is       12.8 secs

     total energy              =    -501.30027304 Ry
     estimated scf accuracy    <       0.05584192 Ry

     iteration # 77     ecut=    30.00 Ry     beta= 0.50
     Davidson diagonalization with overlap
     ethr =  8.79E-07,  avg # of iterations = 19.0

     total cpu time spent up to now is       13.0 secs

     total energy              =    -501.30024241 Ry
     estimated scf accuracy    <       0.03002314 Ry

     iteration # 78     ecut=    30.00 Ry     beta= 0.50
     Davidson diagonalization with overlap
     ethr =  8.79E-07,  avg # of iterations =  2.0

     total cpu time spent up to now is       13.1 secs

     total energy              =    -501.29986536 Ry
     estimated scf accuracy    <       0.02575661 Ry

     iteration # 79     ecut=    30.00 Ry     beta= 0.50
     Davidson diagonalization with overlap
     ethr =  8.79E-07,  avg # of iterations =  1.0

     total cpu time spent up to now is       13.1 secs

     total energy              =    -501.29941128 Ry
     estimated scf accuracy    <       0.02365051 Ry

     iteration # 80     ecut=    30.00 Ry     beta= 0.50
     Davidson diagonalization with overlap
     ethr =  8.79E-07,  avg # of iterations =  1.0

     total cpu time spent up to now is       13.2 secs

     total energy              =    -501.29401018 Ry
     estimated scf accuracy    <       0.02104444 Ry

     iteration # 81     ecut=    30.00 Ry     beta= 0.50
     Davidson diagonalization with overlap
     c_bands:  2 eigenvalues not converged
     ethr =  8.79E-07,  avg # of iterations = 20.0

     total cpu time spent up to now is       13.4 secs

     total energy              =    -501.29990619 Ry
     estimated scf accuracy    <       0.03888204 Ry

     iteration # 82     ecut=    30.00 Ry     beta= 0.50
     Davidson diagonalization with overlap
     c_bands:  1 eigenvalues not converged
     ethr =  8.79E-07,  avg # of iterations = 20.0

     total cpu time spent up to now is       13.5 secs

     total energy              =    -501.30099680 Ry
     estimated scf accuracy    <       0.02397566 Ry

     iteration # 83     ecut=    30.00 Ry     beta= 0.50
     Davidson diagonalization with overlap
     ethr =  8.79E-07,  avg # of iterations = 19.0

     total cpu time spent up to now is       13.7 secs

     total energy              =    -501.30076749 Ry
     estimated scf accuracy    <       0.01382759 Ry

     iteration # 84     ecut=    30.00 Ry     beta= 0.50
     Davidson diagonalization with overlap
     ethr =  8.79E-07,  avg # of iterations =  2.0

     total cpu time spent up to now is       13.7 secs

     total energy              =    -501.29985700 Ry
     estimated scf accuracy    <       0.01103966 Ry

     iteration # 85     ecut=    30.00 Ry     beta= 0.50
     Davidson diagonalization with overlap
     c_bands:  1 eigenvalues not converged
     ethr =  8.79E-07,  avg # of iterations = 20.0

     total cpu time spent up to now is       13.9 secs

     total energy              =    -501.30018022 Ry
     estimated scf accuracy    <       0.00637448 Ry

     iteration # 86     ecut=    30.00 Ry     beta= 0.50
     Davidson diagonalization with overlap
     ethr =  8.79E-07,  avg # of iterations =  2.0

     total cpu time spent up to now is       14.0 secs

     total energy              =    -501.30016601 Ry
     estimated scf accuracy    <       0.00584385 Ry

     iteration # 87     ecut=    30.00 Ry     beta= 0.50
     Davidson diagonalization with overlap
     ethr =  8.79E-07,  avg # of iterations =  1.0

     total cpu time spent up to now is       14.0 secs

     total energy              =    -501.30026757 Ry
     estimated scf accuracy    <       0.00551953 Ry

     iteration # 88     ecut=    30.00 Ry     beta= 0.50
     Davidson diagonalization with overlap
     ethr =  8.79E-07,  avg # of iterations =  1.0

     total cpu time spent up to now is       14.1 secs

     total energy              =    -501.30038846 Ry
     estimated scf accuracy    <       0.00564293 Ry

     iteration # 89     ecut=    30.00 Ry     beta= 0.50
     Davidson diagonalization with overlap
     ethr =  8.79E-07,  avg # of iterations =  1.0

     total cpu time spent up to now is       14.2 secs

     total energy              =    -501.29876609 Ry
     estimated scf accuracy    <       0.00613307 Ry

     iteration # 90     ecut=    30.00 Ry     beta= 0.50
     Davidson diagonalization with overlap
     c_bands:  2 eigenvalues not converged
     ethr =  8.79E-07,  avg # of iterations = 20.0

     total cpu time spent up to now is       14.3 secs

     total energy              =    -501.29785717 Ry
     estimated scf accuracy    <       0.08514746 Ry

     iteration # 91     ecut=    30.00 Ry     beta= 0.50
     Davidson diagonalization with overlap
     ethr =  8.79E-07,  avg # of iterations = 16.0

     total cpu time spent up to now is       14.5 secs

     total energy              =    -501.29909956 Ry
     estimated scf accuracy    <       0.02645012 Ry

     iteration # 92     ecut=    30.00 Ry     beta= 0.50
     Davidson diagonalization with overlap
     c_bands:  1 eigenvalues not converged
     ethr =  8.79E-07,  avg # of iterations = 20.0

     total cpu time spent up to now is       14.7 secs

     total energy              =    -501.29955742 Ry
     estimated scf accuracy    <       0.02474256 Ry

     iteration # 93     ecut=    30.00 Ry     beta= 0.50
     Davidson diagonalization with overlap
     c_bands:  1 eigenvalues not converged
     ethr =  8.79E-07,  avg # of iterations = 20.0

     total cpu time spent up to now is       14.8 secs

     total energy              =    -501.30023169 Ry
     estimated scf accuracy    <       0.02196055 Ry

     iteration # 94     ecut=    30.00 Ry     beta= 0.50
     Davidson diagonalization with overlap
     c_bands:  1 eigenvalues not converged
     ethr =  8.79E-07,  avg # of iterations = 20.0

     total cpu time spent up to now is       15.0 secs

     total energy              =    -501.29966248 Ry
     estimated scf accuracy    <       0.02606216 Ry

     iteration # 95     ecut=    30.00 Ry     beta= 0.50
     Davidson diagonalization with overlap
     ethr =  8.79E-07,  avg # of iterations = 18.0

     total cpu time spent up to now is       15.1 secs

     total energy              =    -501.29965392 Ry
     estimated scf accuracy    <       0.02141624 Ry

     iteration # 96     ecut=    30.00 Ry     beta= 0.50
     Davidson diagonalization with overlap
     ethr =  8.79E-07,  avg # of iterations =  1.0

     total cpu time spent up to now is       15.2 secs

     total energy              =    -501.29926416 Ry
     estimated scf accuracy    <       0.02009129 Ry

     iteration # 97     ecut=    30.00 Ry     beta= 0.50
     Davidson diagonalization with overlap
     ethr =  8.79E-07,  avg # of iterations =  2.0

     total cpu time spent up to now is       15.2 secs

     total energy              =    -501.29881720 Ry
     estimated scf accuracy    <       0.01759809 Ry

     iteration # 98     ecut=    30.00 Ry     beta= 0.50
     Davidson diagonalization with overlap
     ethr =  8.79E-07,  avg # of iterations =  2.0

     total cpu time spent up to now is       15.3 secs

     total energy              =    -501.29579981 Ry
     estimated scf accuracy    <       0.01498863 Ry

     iteration # 99     ecut=    30.00 Ry     beta= 0.50
     Davidson diagonalization with overlap
     c_bands:  2 eigenvalues not converged
     ethr =  8.79E-07,  avg # of iterations = 20.0

     total cpu time spent up to now is       15.5 secs

     total energy              =    -501.29745288 Ry
     estimated scf accuracy    <       0.11100070 Ry

     iteration #100     ecut=    30.00 Ry     beta= 0.50
     Davidson diagonalization with overlap
     c_bands:  2 eigenvalues not converged
     ethr =  8.79E-07,  avg # of iterations = 20.0

     total cpu time spent up to now is       15.7 secs

     total energy              =    -501.29880120 Ry
     estimated scf accuracy    <       0.07694992 Ry

     End of self-consistent calculation

     convergence NOT achieved after 100 iterations: stopping

     Writing config to output data dir ./pwscf.save/
     Message from routine punch:
     wavefunctions written to file
 
     init_run     :      0.97s CPU      4.08s WALL (       1 calls)
     electrons    :     11.00s CPU     11.55s WALL (       1 calls)

     Called by init_run:
     wfcinit      :      0.46s CPU      3.42s WALL (       1 calls)
                                        3.42s GPU  (       1 calls)
     potinit      :      0.04s CPU      0.12s WALL (       1 calls)
     hinit0       :      0.46s CPU      0.48s WALL (       1 calls)

     Called by electrons:
     c_bands      :      7.90s CPU      8.18s WALL (     101 calls)
     sum_band     :      1.42s CPU      1.62s WALL (     101 calls)
     v_of_rho     :      0.58s CPU      0.68s WALL (     101 calls)
     mix_rho      :      0.88s CPU      0.91s WALL (     101 calls)

     Called by c_bands:
     init_us_2    :      0.25s CPU      0.27s WALL (     203 calls)
     init_us_2:gp :      0.25s CPU      0.27s WALL (     203 calls)
     regterg      :      7.19s CPU      7.44s WALL (     101 calls)

     Called by *egterg:
     rdiaghg      :      3.61s CPU      4.28s WALL (    1147 calls)
                                        4.11s GPU  (    1147 calls)
     h_psi        :      3.03s CPU      5.54s WALL (    1149 calls)
                                        5.52s GPU  (    1149 calls)
     g_psi        :      0.00s CPU      0.02s WALL (    1047 calls)
                                        0.02s GPU  (    1047 calls)

     Called by h_psi:
     h_psi:calbec :      0.74s CPU      3.09s WALL (    1149 calls)
                                        3.08s GPU  (    1149 calls)
     vloc_psi     :      1.69s CPU      1.84s WALL (    1149 calls)
                                        1.82s GPU  (    1149 calls)
     add_vuspsi   :      0.46s CPU      0.55s WALL (    1149 calls)
                                        0.55s GPU  (    1149 calls)

     General routines
     calbec       :      0.73s CPU      3.06s WALL (    1149 calls)
     fft          :      0.91s CPU      1.05s WALL (     809 calls)
                                        0.17s GPU  (     505 calls)
     ffts         :      0.15s CPU      0.17s WALL (     101 calls)
     fftw         :      1.98s CPU      2.47s WALL (   10222 calls)
                                        2.15s GPU  (   10222 calls)
     davcio       :      0.00s CPU      0.00s WALL (      19 calls)
 
     Parallel routines
 
     PWSCF        :     12.02s CPU     15.71s WALL

 
   This run was terminated on:  15:15: 1   9May2023            

=------------------------------------------------------------------------------=
   JOB DONE.
=------------------------------------------------------------------------------=
