An instance of this daemon is already running
An instance of this daemon is already running

     Program PWSCF v.7.1 starts on  9May2023 at 15: 6:59 

     This program is part of the open-source Quantum ESPRESSO suite
     for quantum simulation of materials; please cite
         "P. Giannozzi et al., J. Phys.:Condens. Matter 21 395502 (2009);
         "P. Giannozzi et al., J. Phys.:Condens. Matter 29 465901 (2017);
         "P. Giannozzi et al., J. Chem. Phys. 152 154105 (2020);
          URL http://www.quantum-espresso.org", 
     in publications or presentations arising from this work. More details at
     http://www.quantum-espresso.org/quote

     Parallel version (MPI & OpenMP), running on       4 processor cores
     Number of MPI processes:                 4
     Threads/MPI process:                     1

     MPI processes distributed on     1 nodes
     8639 MiB available memory on the printing compute node when the environment starts
 
     Reading input from pw-si-3.in
Warning: card &CELL ignored
Warning: card / ignored

     Current dimensions of program PWSCF are:
     Max number of different atomic species (ntypx) = 10
     Max number of k-points (npk) =  40000
     Max angular momentum in pseudopotentials (lmaxx) =  4

     IMPORTANT: XC functional enforced from input :
     Exchange-correlation= PBE
                           (   1   4   3   4   0   0   0)
     Any further DFT definition will be discarded
     Please, verify this is what you really want


     gamma-point specific algorithms are used
 
     K-points division:     npool     =       2
     R & G space division:  proc/nbgrp/npool/nimage =       2
     Subspace diagonalization in iterative solution of the eigenvalue problem:
     a serial algorithm will be used

     Message from routine divide_et_impera:
     suboptimal parallelization: some nodes have no k-points
 
     Parallelization info
     --------------------
     sticks:   dense  smooth     PW     G-vecs:    dense   smooth      PW
     Min        1945    1945    516                91383    91383   12416
     Max        1948    1948    517                91388    91388   12421
     Sum        3893    3893   1033               182771   182771   24837
 
     Using Slab Decomposition
 


     bravais-lattice index     =            0
     lattice parameter (alat)  =      20.1971  a.u.
     unit-cell volume          =    8238.9125 (a.u.)^3
     number of atoms/cell      =           64
     number of atomic types    =            1
     number of electrons       =       256.00
     number of Kohn-Sham states=          128
     kinetic-energy cutoff     =      30.0000  Ry
     charge density cutoff     =     120.0000  Ry
     scf convergence threshold =      1.0E-06
     mixing beta               =       0.5000
     number of iterations used =            8  plain     mixing
     Exchange-correlation= PBE
                           (   1   4   3   4   0   0   0)

     GPU acceleration is ACTIVE.
     GPU-aware MPI enabled

     Message from routine print_cuda_info:
     High GPU oversubscription detected. Are you sure this is what you want?

     celldm(1)=  20.197144  celldm(2)=   0.000000  celldm(3)=   0.000000
     celldm(4)=   0.000000  celldm(5)=   0.000000  celldm(6)=   0.000000

     crystal axes: (cart. coord. in units of alat)
               a(1) = (   1.000000   0.000000   0.000000 )  
               a(2) = (   0.000000   1.000000   0.000000 )  
               a(3) = (   0.000000   0.000000   1.000000 )  

     reciprocal axes: (cart. coord. in units 2 pi/alat)
               b(1) = (  1.000000  0.000000  0.000000 )  
               b(2) = (  0.000000  1.000000  0.000000 )  
               b(3) = (  0.000000  0.000000  1.000000 )  


     PseudoPot. # 1 for Si read from file:
     /home/ppiaggi/pseudos/Si_ONCV_PBE_sr.upf
     MD5 check sum: 8553c464762ac42b85b1eed164b4d029
     Pseudo is Norm-conserving, Zval =  4.0
     Generated using ONCVPSP code by D. R. Hamann
     Using radial grid of 1510 points,  4 beta functions with: 
                l(1) =   0
                l(2) =   0
                l(3) =   1
                l(4) =   1

     atomic species   valence    mass     pseudopotential
        Si             4.00    28.08500     Si( 1.00)

     No symmetry found



   Cartesian axes

     site n.     atom                  positions (alat units)
         1           Si  tau(   1) = (   0.2627230   0.9842840   0.6485060  )
         2           Si  tau(   2) = (   0.9975120   0.3587070   0.0827856  )
         3           Si  tau(   3) = (   0.5542540   0.0778845   0.9796410  )
         4           Si  tau(   4) = (   0.0183582   0.7381670   0.0770861  )
         5           Si  tau(   5) = (   0.3749070   0.9615460   0.4244210  )
         6           Si  tau(   6) = (   0.8011530   0.6494050   0.1998650  )
         7           Si  tau(   7) = (   0.7220520   0.4238070   0.2858050  )
         8           Si  tau(   8) = (   0.0033268   0.9242750   0.9205090  )
         9           Si  tau(   9) = (   0.6683870   0.3545050   0.8296190  )
        10           Si  tau(  10) = (   0.8370790   0.4655050   0.6967470  )
        11           Si  tau(  11) = (   0.4890750   0.2229320   0.7679820  )
        12           Si  tau(  12) = (   0.0056143   0.2947830   0.8217210  )
        13           Si  tau(  13) = (   0.8402640   0.1907210   0.3895850  )
        14           Si  tau(  14) = (   0.0218368   0.6099470   0.3637110  )
        15           Si  tau(  15) = (   0.0986538   0.9285040   0.4986510  )
        16           Si  tau(  16) = (   0.2772500   0.8096160   0.7851290  )
        17           Si  tau(  17) = (   0.3874140   0.4485350   0.5837260  )
        18           Si  tau(  18) = (   0.0745055   0.3858610   0.5961480  )
        19           Si  tau(  19) = (   0.0655247   0.6257210   0.6063070  )
        20           Si  tau(  20) = (   0.7130240   0.4556830   0.0361680  )
        21           Si  tau(  21) = (   0.2431650   0.7287910   0.4094780  )
        22           Si  tau(  22) = (   0.7311500   0.8665770   0.3949670  )
        23           Si  tau(  23) = (   0.1581020   0.3151400   0.3904750  )
        24           Si  tau(  24) = (   0.4910530   0.5145490   0.7911990  )
        25           Si  tau(  25) = (   0.5547350   0.7158420   0.6541890  )
        26           Si  tau(  26) = (   0.7941320   0.6372430   0.4700430  )
        27           Si  tau(  27) = (   0.2519100   0.3244760   0.7873290  )
        28           Si  tau(  28) = (   0.1587990   0.1001360   0.8180760  )
        29           Si  tau(  29) = (   0.9437580   0.1478830   0.0426306  )
        30           Si  tau(  30) = (   0.4885080   0.1005750   0.5883510  )
        31           Si  tau(  31) = (   0.5411720   0.5695340   0.3112740  )
        32           Si  tau(  32) = (   0.1278830   0.5821320   0.8339490  )
        33           Si  tau(  33) = (   0.8244070   0.1737780   0.7248260  )
        34           Si  tau(  34) = (   0.6955670   0.9599000   0.1699560  )
        35           Si  tau(  35) = (   0.3944060   0.3707480   0.3707960  )
        36           Si  tau(  36) = (   0.2180840   0.5254470   0.2471830  )
        37           Si  tau(  37) = (   0.9265060   0.5574240   0.9485980  )
        38           Si  tau(  38) = (   0.1743670   0.0435972   0.0879726  )
        39           Si  tau(  39) = (   0.2008040   0.3917410   0.0596241  )
        40           Si  tau(  40) = (   0.2433390   0.8022630   0.0576543  )
        41           Si  tau(  41) = (   0.1600120   0.0893573   0.3120040  )
        42           Si  tau(  42) = (   0.5697600   0.6451900   0.9801990  )
        43           Si  tau(  43) = (   0.5329010   0.7651690   0.4492100  )
        44           Si  tau(  44) = (   0.7737260   0.0066064   0.8823450  )
        45           Si  tau(  45) = (   0.3011230   0.5302400   0.9070730  )
        46           Si  tau(  46) = (   0.4777680   0.8506420   0.2129450  )
        47           Si  tau(  47) = (   0.7256240   0.2368530   0.1353840  )
        48           Si  tau(  48) = (   0.6777620   0.2360040   0.5423430  )
        49           Si  tau(  49) = (   0.2988300   0.6633270   0.6087200  )
        50           Si  tau(  50) = (   0.5483620   0.2290660   0.3334880  )
        51           Si  tau(  51) = (   0.9999280   0.1149180   0.5873860  )
        52           Si  tau(  52) = (   0.9569070   0.4058570   0.3059710  )
        53           Si  tau(  53) = (   0.6122000   0.9251540   0.6971570  )
        54           Si  tau(  54) = (   0.5075800   0.8783170   0.8907960  )
        55           Si  tau(  55) = (   0.7667420   0.6904740   0.7649480  )
        56           Si  tau(  56) = (   0.3876680   0.6571440   0.1006880  )
        57           Si  tau(  57) = (   0.9104210   0.0615415   0.2428250  )
        58           Si  tau(  58) = (   0.7988340   0.9533980   0.5868630  )
        59           Si  tau(  59) = (   0.6419880   0.4670700   0.5115050  )
        60           Si  tau(  60) = (   0.9711320   0.8339440   0.2931380  )
        61           Si  tau(  61) = (   0.9419750   0.8135970   0.7038790  )
        62           Si  tau(  62) = (   0.4074380   0.0681440   0.2130150  )
        63           Si  tau(  63) = (   0.3420180   0.2135610   0.0098467  )
        64           Si  tau(  64) = (   0.7467660   0.7851770   0.9934860  )

     number of k points=     1
                       cart. coord. in units 2pi/alat
        k(    1) = (   0.0000000   0.0000000   0.0000000), wk =   2.0000000

     Dense  grid:    91386 G-vectors     FFT dimensions: (  72,  72,  72)

     Estimated max dynamical RAM per process >     134.52 MB

     Estimated total dynamical RAM >     515.78 MB

     Initial potential from superposition of free atoms

     starting charge     255.9608, renormalised to     256.0000
     Starting wfcs are  256 randomized atomic wfcs

     total cpu time spent up to now is        4.5 secs

     Self-consistent Calculation

     iteration #  1     ecut=    30.00 Ry     beta= 0.50
     Davidson diagonalization with overlap
     ethr =  1.00E-02,  avg # of iterations =  2.0

     Threshold (ethr) on eigenvalues was too large:
     Diagonalizing with lowered threshold

     Davidson diagonalization with overlap
     ethr =  3.67E-04,  avg # of iterations =  5.0

     total cpu time spent up to now is        4.7 secs

     total energy              =    -501.08419406 Ry
     estimated scf accuracy    <       1.18870085 Ry

     iteration #  2     ecut=    30.00 Ry     beta= 0.50
     Davidson diagonalization with overlap
     ethr =  4.64E-04,  avg # of iterations = 13.0

     total cpu time spent up to now is        4.8 secs

     total energy              =    -500.75607810 Ry
     estimated scf accuracy    <       3.85800629 Ry

     iteration #  3     ecut=    30.00 Ry     beta= 0.50
     Davidson diagonalization with overlap
     ethr =  4.64E-04,  avg # of iterations = 11.0

     total cpu time spent up to now is        4.9 secs

     total energy              =    -501.14186868 Ry
     estimated scf accuracy    <       1.99266305 Ry

     iteration #  4     ecut=    30.00 Ry     beta= 0.50
     Davidson diagonalization with overlap
     ethr =  4.64E-04,  avg # of iterations =  6.0

     total cpu time spent up to now is        5.0 secs

     total energy              =    -501.30247386 Ry
     estimated scf accuracy    <       0.28353766 Ry

     iteration #  5     ecut=    30.00 Ry     beta= 0.50
     Davidson diagonalization with overlap
     ethr =  1.11E-04,  avg # of iterations = 11.0

     total cpu time spent up to now is        5.2 secs

     total energy              =    -501.34047581 Ry
     estimated scf accuracy    <       0.11920355 Ry

     iteration #  6     ecut=    30.00 Ry     beta= 0.50
     Davidson diagonalization with overlap
     ethr =  4.66E-05,  avg # of iterations =  8.0

     total cpu time spent up to now is        5.3 secs

     total energy              =    -501.34677075 Ry
     estimated scf accuracy    <       0.13704787 Ry

     iteration #  7     ecut=    30.00 Ry     beta= 0.50
     Davidson diagonalization with overlap
     ethr =  4.66E-05,  avg # of iterations =  3.0

     total cpu time spent up to now is        5.3 secs

     total energy              =    -501.35160204 Ry
     estimated scf accuracy    <       0.02810594 Ry

     iteration #  8     ecut=    30.00 Ry     beta= 0.50
     Davidson diagonalization with overlap
     c_bands:  1 eigenvalues not converged
     ethr =  1.10E-05,  avg # of iterations = 20.0

     total cpu time spent up to now is        5.5 secs

     total energy              =    -501.35796833 Ry
     estimated scf accuracy    <       0.02331559 Ry

     iteration #  9     ecut=    30.00 Ry     beta= 0.50
     Davidson diagonalization with overlap
     ethr =  9.11E-06,  avg # of iterations =  2.0

     total cpu time spent up to now is        5.6 secs

     total energy              =    -501.35687481 Ry
     estimated scf accuracy    <       0.01425753 Ry

     iteration # 10     ecut=    30.00 Ry     beta= 0.50
     Davidson diagonalization with overlap
     ethr =  5.57E-06,  avg # of iterations = 10.0

     total cpu time spent up to now is        5.7 secs

     total energy              =    -501.35788258 Ry
     estimated scf accuracy    <       0.00125818 Ry

     iteration # 11     ecut=    30.00 Ry     beta= 0.50
     Davidson diagonalization with overlap
     c_bands:  1 eigenvalues not converged
     ethr =  4.91E-07,  avg # of iterations = 20.0

     total cpu time spent up to now is        5.9 secs

     total energy              =    -501.36042033 Ry
     estimated scf accuracy    <       0.04204483 Ry

     iteration # 12     ecut=    30.00 Ry     beta= 0.50
     Davidson diagonalization with overlap
     ethr =  4.91E-07,  avg # of iterations = 12.0

     total cpu time spent up to now is        6.0 secs

     total energy              =    -501.35985436 Ry
     estimated scf accuracy    <       0.03884119 Ry

     iteration # 13     ecut=    30.00 Ry     beta= 0.50
     Davidson diagonalization with overlap
     ethr =  4.91E-07,  avg # of iterations =  2.0

     total cpu time spent up to now is        6.1 secs

     total energy              =    -501.35955442 Ry
     estimated scf accuracy    <       0.03552385 Ry

     iteration # 14     ecut=    30.00 Ry     beta= 0.50
     Davidson diagonalization with overlap
     ethr =  4.91E-07,  avg # of iterations =  2.0

     total cpu time spent up to now is        6.1 secs

     total energy              =    -501.35929763 Ry
     estimated scf accuracy    <       0.03337315 Ry

     iteration # 15     ecut=    30.00 Ry     beta= 0.50
     Davidson diagonalization with overlap
     ethr =  4.91E-07,  avg # of iterations =  1.0

     total cpu time spent up to now is        6.2 secs

     total energy              =    -501.35604727 Ry
     estimated scf accuracy    <       0.03175811 Ry

     iteration # 16     ecut=    30.00 Ry     beta= 0.50
     Davidson diagonalization with overlap
     c_bands:  1 eigenvalues not converged
     ethr =  4.91E-07,  avg # of iterations = 20.0

     total cpu time spent up to now is        6.4 secs

     total energy              =    -501.35910676 Ry
     estimated scf accuracy    <       0.01476157 Ry

     iteration # 17     ecut=    30.00 Ry     beta= 0.50
     Davidson diagonalization with overlap
     ethr =  4.91E-07,  avg # of iterations = 16.0

     total cpu time spent up to now is        6.5 secs

     total energy              =    -501.35884199 Ry
     estimated scf accuracy    <       0.00965709 Ry

     iteration # 18     ecut=    30.00 Ry     beta= 0.50
     Davidson diagonalization with overlap
     c_bands:  1 eigenvalues not converged
     ethr =  4.91E-07,  avg # of iterations = 20.0

     total cpu time spent up to now is        6.7 secs

     total energy              =    -501.35877175 Ry
     estimated scf accuracy    <       0.00607764 Ry

     iteration # 19     ecut=    30.00 Ry     beta= 0.50
     Davidson diagonalization with overlap
     c_bands:  1 eigenvalues not converged
     ethr =  4.91E-07,  avg # of iterations = 20.0

     total cpu time spent up to now is        6.8 secs

     total energy              =    -501.35896879 Ry
     estimated scf accuracy    <       0.00382417 Ry

     iteration # 20     ecut=    30.00 Ry     beta= 0.50
     Davidson diagonalization with overlap
     c_bands:  1 eigenvalues not converged
     ethr =  4.91E-07,  avg # of iterations = 20.0

     total cpu time spent up to now is        7.0 secs

     total energy              =    -501.35874635 Ry
     estimated scf accuracy    <       0.01006826 Ry

     iteration # 21     ecut=    30.00 Ry     beta= 0.50
     Davidson diagonalization with overlap
     ethr =  4.91E-07,  avg # of iterations = 18.0

     total cpu time spent up to now is        7.2 secs

     total energy              =    -501.35882173 Ry
     estimated scf accuracy    <       0.00515600 Ry

     iteration # 22     ecut=    30.00 Ry     beta= 0.50
     Davidson diagonalization with overlap
     ethr =  4.91E-07,  avg # of iterations =  2.0

     total cpu time spent up to now is        7.2 secs

     total energy              =    -501.35869372 Ry
     estimated scf accuracy    <       0.00375591 Ry

     iteration # 23     ecut=    30.00 Ry     beta= 0.50
     Davidson diagonalization with overlap
     ethr =  4.91E-07,  avg # of iterations =  1.0

     total cpu time spent up to now is        7.3 secs

     total energy              =    -501.35856157 Ry
     estimated scf accuracy    <       0.00292580 Ry

     iteration # 24     ecut=    30.00 Ry     beta= 0.50
     Davidson diagonalization with overlap
     ethr =  4.91E-07,  avg # of iterations =  2.0

     total cpu time spent up to now is        7.4 secs

     total energy              =    -501.35799981 Ry
     estimated scf accuracy    <       0.00209405 Ry

     iteration # 25     ecut=    30.00 Ry     beta= 0.50
     Davidson diagonalization with overlap
     c_bands:  2 eigenvalues not converged
     ethr =  4.91E-07,  avg # of iterations = 20.0

     total cpu time spent up to now is        7.5 secs

     total energy              =    -501.35964866 Ry
     estimated scf accuracy    <       0.03539468 Ry

     iteration # 26     ecut=    30.00 Ry     beta= 0.50
     Davidson diagonalization with overlap
     c_bands:  1 eigenvalues not converged
     ethr =  4.91E-07,  avg # of iterations = 20.0

     total cpu time spent up to now is        7.7 secs

     total energy              =    -501.35939736 Ry
     estimated scf accuracy    <       0.03154770 Ry

     iteration # 27     ecut=    30.00 Ry     beta= 0.50
     Davidson diagonalization with overlap
     ethr =  4.91E-07,  avg # of iterations =  7.0

     total cpu time spent up to now is        7.8 secs

     total energy              =    -501.35887689 Ry
     estimated scf accuracy    <       0.02642863 Ry

     iteration # 28     ecut=    30.00 Ry     beta= 0.50
     Davidson diagonalization with overlap
     ethr =  4.91E-07,  avg # of iterations =  2.0

     total cpu time spent up to now is        7.8 secs

     total energy              =    -501.35863753 Ry
     estimated scf accuracy    <       0.02352964 Ry

     iteration # 29     ecut=    30.00 Ry     beta= 0.50
     Davidson diagonalization with overlap
     ethr =  4.91E-07,  avg # of iterations =  1.0

     total cpu time spent up to now is        7.9 secs

     total energy              =    -501.35835267 Ry
     estimated scf accuracy    <       0.02169216 Ry

     iteration # 30     ecut=    30.00 Ry     beta= 0.50
     Davidson diagonalization with overlap
     ethr =  4.91E-07,  avg # of iterations =  1.0

     total cpu time spent up to now is        8.0 secs

     total energy              =    -501.35839194 Ry
     estimated scf accuracy    <       0.01995326 Ry

     iteration # 31     ecut=    30.00 Ry     beta= 0.50
     Davidson diagonalization with overlap
     ethr =  4.91E-07,  avg # of iterations =  1.0

     total cpu time spent up to now is        8.0 secs

     total energy              =    -501.35872185 Ry
     estimated scf accuracy    <       0.01958492 Ry

     iteration # 32     ecut=    30.00 Ry     beta= 0.50
     Davidson diagonalization with overlap
     ethr =  4.91E-07,  avg # of iterations =  1.0

     total cpu time spent up to now is        8.1 secs

     total energy              =    -501.35894568 Ry
     estimated scf accuracy    <       0.02025897 Ry

     iteration # 33     ecut=    30.00 Ry     beta= 0.50
     Davidson diagonalization with overlap
     ethr =  4.91E-07,  avg # of iterations =  1.0

     total cpu time spent up to now is        8.2 secs

     total energy              =    -501.35207056 Ry
     estimated scf accuracy    <       0.02103618 Ry

     iteration # 34     ecut=    30.00 Ry     beta= 0.50
     Davidson diagonalization with overlap
     c_bands:  3 eigenvalues not converged
     ethr =  4.91E-07,  avg # of iterations = 20.0

     total cpu time spent up to now is        8.4 secs

     total energy              =    -501.36188390 Ry
     estimated scf accuracy    <       0.07402574 Ry

     iteration # 35     ecut=    30.00 Ry     beta= 0.50
     Davidson diagonalization with overlap
     c_bands:  2 eigenvalues not converged
     ethr =  4.91E-07,  avg # of iterations = 20.0

     total cpu time spent up to now is        8.5 secs

     total energy              =    -501.36123038 Ry
     estimated scf accuracy    <       0.05146780 Ry

     iteration # 36     ecut=    30.00 Ry     beta= 0.50
     Davidson diagonalization with overlap
     ethr =  4.91E-07,  avg # of iterations = 13.0

     total cpu time spent up to now is        8.7 secs

     total energy              =    -501.36018337 Ry
     estimated scf accuracy    <       0.02739996 Ry

     iteration # 37     ecut=    30.00 Ry     beta= 0.50
     Davidson diagonalization with overlap
     c_bands:  1 eigenvalues not converged
     ethr =  4.91E-07,  avg # of iterations = 20.0

     total cpu time spent up to now is        8.8 secs

     total energy              =    -501.35988946 Ry
     estimated scf accuracy    <       0.01771642 Ry

     iteration # 38     ecut=    30.00 Ry     beta= 0.50
     Davidson diagonalization with overlap
     ethr =  4.91E-07,  avg # of iterations = 10.0

     total cpu time spent up to now is        8.9 secs

     total energy              =    -501.35929250 Ry
     estimated scf accuracy    <       0.01278481 Ry

     iteration # 39     ecut=    30.00 Ry     beta= 0.50
     Davidson diagonalization with overlap
     ethr =  4.91E-07,  avg # of iterations =  2.0

     total cpu time spent up to now is        9.0 secs

     total energy              =    -501.35881578 Ry
     estimated scf accuracy    <       0.00906618 Ry

     iteration # 40     ecut=    30.00 Ry     beta= 0.50
     Davidson diagonalization with overlap
     ethr =  4.91E-07,  avg # of iterations =  5.0

     total cpu time spent up to now is        9.1 secs

     total energy              =    -501.35856939 Ry
     estimated scf accuracy    <       0.00589048 Ry

     iteration # 41     ecut=    30.00 Ry     beta= 0.50
     Davidson diagonalization with overlap
     ethr =  4.91E-07,  avg # of iterations =  2.0

     total cpu time spent up to now is        9.2 secs

     total energy              =    -501.35848379 Ry
     estimated scf accuracy    <       0.00412095 Ry

     iteration # 42     ecut=    30.00 Ry     beta= 0.50
     Davidson diagonalization with overlap
     ethr =  4.91E-07,  avg # of iterations =  1.0

     total cpu time spent up to now is        9.2 secs

     total energy              =    -501.35767160 Ry
     estimated scf accuracy    <       0.00333323 Ry

     iteration # 43     ecut=    30.00 Ry     beta= 0.50
     Davidson diagonalization with overlap
     c_bands:  2 eigenvalues not converged
     ethr =  4.91E-07,  avg # of iterations = 20.0

     total cpu time spent up to now is        9.4 secs

     total energy              =    -501.35983227 Ry
     estimated scf accuracy    <       0.03545844 Ry

     iteration # 44     ecut=    30.00 Ry     beta= 0.50
     Davidson diagonalization with overlap
     c_bands:  1 eigenvalues not converged
     ethr =  4.91E-07,  avg # of iterations = 20.0

     total cpu time spent up to now is        9.5 secs

     total energy              =    -501.35954414 Ry
     estimated scf accuracy    <       0.02846838 Ry

     iteration # 45     ecut=    30.00 Ry     beta= 0.50
     Davidson diagonalization with overlap
     ethr =  4.91E-07,  avg # of iterations =  1.0

     total cpu time spent up to now is        9.6 secs

     total energy              =    -501.35870255 Ry
     estimated scf accuracy    <       0.02621650 Ry

     iteration # 46     ecut=    30.00 Ry     beta= 0.50
     Davidson diagonalization with overlap
     ethr =  4.91E-07,  avg # of iterations =  2.0

     total cpu time spent up to now is        9.7 secs

     total energy              =    -501.35756691 Ry
     estimated scf accuracy    <       0.02223762 Ry

     iteration # 47     ecut=    30.00 Ry     beta= 0.50
     Davidson diagonalization with overlap
     c_bands:  1 eigenvalues not converged
     ethr =  4.91E-07,  avg # of iterations = 20.0

     total cpu time spent up to now is        9.8 secs

     total energy              =    -501.35865118 Ry
     estimated scf accuracy    <       0.00244015 Ry

     iteration # 48     ecut=    30.00 Ry     beta= 0.50
     Davidson diagonalization with overlap
     ethr =  4.91E-07,  avg # of iterations = 19.0

     total cpu time spent up to now is       10.0 secs

     total energy              =    -501.35897424 Ry
     estimated scf accuracy    <       0.00297432 Ry

     iteration # 49     ecut=    30.00 Ry     beta= 0.50
     Davidson diagonalization with overlap
     ethr =  4.91E-07,  avg # of iterations =  1.0

     total cpu time spent up to now is       10.0 secs

     total energy              =    -501.35897231 Ry
     estimated scf accuracy    <       0.00274956 Ry

     iteration # 50     ecut=    30.00 Ry     beta= 0.50
     Davidson diagonalization with overlap
     ethr =  4.91E-07,  avg # of iterations =  1.0

     total cpu time spent up to now is       10.1 secs

     total energy              =    -501.35877355 Ry
     estimated scf accuracy    <       0.00270599 Ry

     iteration # 51     ecut=    30.00 Ry     beta= 0.50
     Davidson diagonalization with overlap
     ethr =  4.91E-07,  avg # of iterations =  2.0

     total cpu time spent up to now is       10.2 secs

     total energy              =    -501.35917583 Ry
     estimated scf accuracy    <       0.00190616 Ry

     iteration # 52     ecut=    30.00 Ry     beta= 0.50
     Davidson diagonalization with overlap
     c_bands:  1 eigenvalues not converged
     ethr =  4.91E-07,  avg # of iterations = 20.0

     total cpu time spent up to now is       10.3 secs

     total energy              =    -501.35859954 Ry
     estimated scf accuracy    <       0.01834233 Ry

     iteration # 53     ecut=    30.00 Ry     beta= 0.50
     Davidson diagonalization with overlap
     c_bands:  1 eigenvalues not converged
     ethr =  4.91E-07,  avg # of iterations = 20.0

     total cpu time spent up to now is       10.5 secs

     total energy              =    -501.35857535 Ry
     estimated scf accuracy    <       0.00715382 Ry

     iteration # 54     ecut=    30.00 Ry     beta= 0.50
     Davidson diagonalization with overlap
     ethr =  4.91E-07,  avg # of iterations =  2.0

     total cpu time spent up to now is       10.6 secs

     total energy              =    -501.35828208 Ry
     estimated scf accuracy    <       0.00574175 Ry

     iteration # 55     ecut=    30.00 Ry     beta= 0.50
     Davidson diagonalization with overlap
     c_bands:  1 eigenvalues not converged
     ethr =  4.91E-07,  avg # of iterations = 20.0

     total cpu time spent up to now is       10.7 secs

     total energy              =    -501.35913843 Ry
     estimated scf accuracy    <       0.00426686 Ry

     iteration # 56     ecut=    30.00 Ry     beta= 0.50
     Davidson diagonalization with overlap
     c_bands:  1 eigenvalues not converged
     ethr =  4.91E-07,  avg # of iterations = 20.0

     total cpu time spent up to now is       10.9 secs

     total energy              =    -501.35963995 Ry
     estimated scf accuracy    <       0.02691037 Ry

     iteration # 57     ecut=    30.00 Ry     beta= 0.50
     Davidson diagonalization with overlap
     c_bands:  1 eigenvalues not converged
     ethr =  4.91E-07,  avg # of iterations = 20.0

     total cpu time spent up to now is       11.0 secs

     total energy              =    -501.35969635 Ry
     estimated scf accuracy    <       0.02389013 Ry

     iteration # 58     ecut=    30.00 Ry     beta= 0.50
     Davidson diagonalization with overlap
     c_bands:  1 eigenvalues not converged
     ethr =  4.91E-07,  avg # of iterations = 20.0

     total cpu time spent up to now is       11.2 secs

     total energy              =    -501.35964296 Ry
     estimated scf accuracy    <       0.02352194 Ry

     iteration # 59     ecut=    30.00 Ry     beta= 0.50
     Davidson diagonalization with overlap
     ethr =  4.91E-07,  avg # of iterations =  2.0

     total cpu time spent up to now is       11.2 secs

     total energy              =    -501.35862039 Ry
     estimated scf accuracy    <       0.02277523 Ry

     iteration # 60     ecut=    30.00 Ry     beta= 0.50
     Davidson diagonalization with overlap
     ethr =  4.91E-07,  avg # of iterations = 17.0

     total cpu time spent up to now is       11.4 secs

     total energy              =    -501.35845397 Ry
     estimated scf accuracy    <       0.01605636 Ry

     iteration # 61     ecut=    30.00 Ry     beta= 0.50
     Davidson diagonalization with overlap
     ethr =  4.91E-07,  avg # of iterations =  2.0

     total cpu time spent up to now is       11.4 secs

     total energy              =    -501.35838525 Ry
     estimated scf accuracy    <       0.01424644 Ry

     iteration # 62     ecut=    30.00 Ry     beta= 0.50
     Davidson diagonalization with overlap
     ethr =  4.91E-07,  avg # of iterations =  2.0

     total cpu time spent up to now is       11.5 secs

     total energy              =    -501.35846595 Ry
     estimated scf accuracy    <       0.01337544 Ry

     iteration # 63     ecut=    30.00 Ry     beta= 0.50
     Davidson diagonalization with overlap
     ethr =  4.91E-07,  avg # of iterations =  1.0

     total cpu time spent up to now is       11.6 secs

     total energy              =    -501.35441326 Ry
     estimated scf accuracy    <       0.01336104 Ry

     iteration # 64     ecut=    30.00 Ry     beta= 0.50
     Davidson diagonalization with overlap
     c_bands:  1 eigenvalues not converged
     ethr =  4.91E-07,  avg # of iterations = 20.0

     total cpu time spent up to now is       11.8 secs

     total energy              =    -501.36138771 Ry
     estimated scf accuracy    <       0.06313254 Ry

     iteration # 65     ecut=    30.00 Ry     beta= 0.50
     Davidson diagonalization with overlap
     ethr =  4.91E-07,  avg # of iterations = 18.0

     total cpu time spent up to now is       11.9 secs

     total energy              =    -501.35993717 Ry
     estimated scf accuracy    <       0.03264257 Ry

     iteration # 66     ecut=    30.00 Ry     beta= 0.50
     Davidson diagonalization with overlap
     ethr =  4.91E-07,  avg # of iterations = 13.0

     total cpu time spent up to now is       12.1 secs

     total energy              =    -501.35955870 Ry
     estimated scf accuracy    <       0.02059084 Ry

     iteration # 67     ecut=    30.00 Ry     beta= 0.50
     Davidson diagonalization with overlap
     ethr =  4.91E-07,  avg # of iterations =  2.0

     total cpu time spent up to now is       12.2 secs

     total energy              =    -501.35937551 Ry
     estimated scf accuracy    <       0.01626711 Ry

     iteration # 68     ecut=    30.00 Ry     beta= 0.50
     Davidson diagonalization with overlap
     ethr =  4.91E-07,  avg # of iterations =  1.0

     total cpu time spent up to now is       12.2 secs

     total energy              =    -501.35952703 Ry
     estimated scf accuracy    <       0.01477437 Ry

     iteration # 69     ecut=    30.00 Ry     beta= 0.50
     Davidson diagonalization with overlap
     ethr =  4.91E-07,  avg # of iterations =  1.0

     total cpu time spent up to now is       12.3 secs

     total energy              =    -501.35960405 Ry
     estimated scf accuracy    <       0.01455107 Ry

     iteration # 70     ecut=    30.00 Ry     beta= 0.50
     Davidson diagonalization with overlap
     ethr =  4.91E-07,  avg # of iterations =  1.0

     total cpu time spent up to now is       12.4 secs

     total energy              =    -501.35966704 Ry
     estimated scf accuracy    <       0.01456345 Ry

     iteration # 71     ecut=    30.00 Ry     beta= 0.50
     Davidson diagonalization with overlap
     ethr =  4.91E-07,  avg # of iterations =  1.0

     total cpu time spent up to now is       12.4 secs

     total energy              =    -501.35970388 Ry
     estimated scf accuracy    <       0.01482195 Ry

     iteration # 72     ecut=    30.00 Ry     beta= 0.50
     Davidson diagonalization with overlap
     ethr =  4.91E-07,  avg # of iterations =  1.0

     total cpu time spent up to now is       12.5 secs

     total energy              =    -501.35701602 Ry
     estimated scf accuracy    <       0.01502863 Ry

     iteration # 73     ecut=    30.00 Ry     beta= 0.50
     Davidson diagonalization with overlap
     c_bands:  2 eigenvalues not converged
     ethr =  4.91E-07,  avg # of iterations = 20.0

     total cpu time spent up to now is       12.7 secs

     total energy              =    -501.35842570 Ry
     estimated scf accuracy    <       0.02575301 Ry

     iteration # 74     ecut=    30.00 Ry     beta= 0.50
     Davidson diagonalization with overlap
     c_bands:  1 eigenvalues not converged
     ethr =  4.91E-07,  avg # of iterations = 20.0

     total cpu time spent up to now is       12.8 secs

     total energy              =    -501.35917634 Ry
     estimated scf accuracy    <       0.02490064 Ry

     iteration # 75     ecut=    30.00 Ry     beta= 0.50
     Davidson diagonalization with overlap
     ethr =  4.91E-07,  avg # of iterations = 17.0

     total cpu time spent up to now is       13.0 secs

     total energy              =    -501.35871073 Ry
     estimated scf accuracy    <       0.01696725 Ry

     iteration # 76     ecut=    30.00 Ry     beta= 0.50
     Davidson diagonalization with overlap
     c_bands:  1 eigenvalues not converged
     ethr =  4.91E-07,  avg # of iterations = 20.0

     total cpu time spent up to now is       13.1 secs

     total energy              =    -501.35874910 Ry
     estimated scf accuracy    <       0.01265328 Ry

     iteration # 77     ecut=    30.00 Ry     beta= 0.50
     Davidson diagonalization with overlap
     c_bands:  1 eigenvalues not converged
     ethr =  4.91E-07,  avg # of iterations = 20.0

     total cpu time spent up to now is       13.3 secs

     total energy              =    -501.35869817 Ry
     estimated scf accuracy    <       0.01085256 Ry

     iteration # 78     ecut=    30.00 Ry     beta= 0.50
     Davidson diagonalization with overlap
     ethr =  4.91E-07,  avg # of iterations =  2.0

     total cpu time spent up to now is       13.4 secs

     total energy              =    -501.35866524 Ry
     estimated scf accuracy    <       0.01032601 Ry

     iteration # 79     ecut=    30.00 Ry     beta= 0.50
     Davidson diagonalization with overlap
     ethr =  4.91E-07,  avg # of iterations =  1.0

     total cpu time spent up to now is       13.4 secs

     total energy              =    -501.35851514 Ry
     estimated scf accuracy    <       0.00976986 Ry

     iteration # 80     ecut=    30.00 Ry     beta= 0.50
     Davidson diagonalization with overlap
     ethr =  4.91E-07,  avg # of iterations =  3.0

     total cpu time spent up to now is       13.5 secs

     total energy              =    -501.35849689 Ry
     estimated scf accuracy    <       0.00903277 Ry

     iteration # 81     ecut=    30.00 Ry     beta= 0.50
     Davidson diagonalization with overlap
     ethr =  4.91E-07,  avg # of iterations =  2.0

     total cpu time spent up to now is       13.6 secs

     total energy              =    -501.35560547 Ry
     estimated scf accuracy    <       0.00883097 Ry

     iteration # 82     ecut=    30.00 Ry     beta= 0.50
     Davidson diagonalization with overlap
     c_bands:  4 eigenvalues not converged
     ethr =  4.91E-07,  avg # of iterations = 20.0

     total cpu time spent up to now is       13.8 secs

     total energy              =    -501.35357741 Ry
     estimated scf accuracy    <       0.12406853 Ry

     iteration # 83     ecut=    30.00 Ry     beta= 0.50
     Davidson diagonalization with overlap
     c_bands:  1 eigenvalues not converged
     ethr =  4.91E-07,  avg # of iterations = 20.0

     total cpu time spent up to now is       13.9 secs

     total energy              =    -501.35825692 Ry
     estimated scf accuracy    <       0.06164233 Ry

     iteration # 84     ecut=    30.00 Ry     beta= 0.50
     Davidson diagonalization with overlap
     ethr =  4.91E-07,  avg # of iterations = 14.0

     total cpu time spent up to now is       14.1 secs

     total energy              =    -501.35936179 Ry
     estimated scf accuracy    <       0.02329926 Ry

     iteration # 85     ecut=    30.00 Ry     beta= 0.50
     Davidson diagonalization with overlap
     c_bands:  1 eigenvalues not converged
     ethr =  4.91E-07,  avg # of iterations = 20.0

     total cpu time spent up to now is       14.2 secs

     total energy              =    -501.35928881 Ry
     estimated scf accuracy    <       0.01483947 Ry

     iteration # 86     ecut=    30.00 Ry     beta= 0.50
     Davidson diagonalization with overlap
     ethr =  4.91E-07,  avg # of iterations = 12.0

     total cpu time spent up to now is       14.3 secs

     total energy              =    -501.35926902 Ry
     estimated scf accuracy    <       0.01363253 Ry

     iteration # 87     ecut=    30.00 Ry     beta= 0.50
     Davidson diagonalization with overlap
     ethr =  4.91E-07,  avg # of iterations =  1.0

     total cpu time spent up to now is       14.4 secs

     total energy              =    -501.35920186 Ry
     estimated scf accuracy    <       0.01328452 Ry

     iteration # 88     ecut=    30.00 Ry     beta= 0.50
     Davidson diagonalization with overlap
     ethr =  4.91E-07,  avg # of iterations =  1.0

     total cpu time spent up to now is       14.5 secs

     total energy              =    -501.35907940 Ry
     estimated scf accuracy    <       0.01288682 Ry

     iteration # 89     ecut=    30.00 Ry     beta= 0.50
     Davidson diagonalization with overlap
     ethr =  4.91E-07,  avg # of iterations =  1.0

     total cpu time spent up to now is       14.5 secs

     total energy              =    -501.35871421 Ry
     estimated scf accuracy    <       0.01226073 Ry

     iteration # 90     ecut=    30.00 Ry     beta= 0.50
     Davidson diagonalization with overlap
     ethr =  4.91E-07,  avg # of iterations =  1.0

     total cpu time spent up to now is       14.6 secs

     total energy              =    -501.35599488 Ry
     estimated scf accuracy    <       0.01047105 Ry

     iteration # 91     ecut=    30.00 Ry     beta= 0.50
     Davidson diagonalization with overlap
     c_bands:  2 eigenvalues not converged
     ethr =  4.91E-07,  avg # of iterations = 20.0

     total cpu time spent up to now is       14.8 secs

     total energy              =    -501.35819682 Ry
     estimated scf accuracy    <       0.05163272 Ry

     iteration # 92     ecut=    30.00 Ry     beta= 0.50
     Davidson diagonalization with overlap
     ethr =  4.91E-07,  avg # of iterations = 16.0

     total cpu time spent up to now is       14.9 secs

     total energy              =    -501.35912034 Ry
     estimated scf accuracy    <       0.02237615 Ry

     iteration # 93     ecut=    30.00 Ry     beta= 0.50
     Davidson diagonalization with overlap
     ethr =  4.91E-07,  avg # of iterations =  8.0

     total cpu time spent up to now is       15.0 secs

     total energy              =    -501.35808510 Ry
     estimated scf accuracy    <       0.01857933 Ry

     iteration # 94     ecut=    30.00 Ry     beta= 0.50
     Davidson diagonalization with overlap
     c_bands:  1 eigenvalues not converged
     ethr =  4.91E-07,  avg # of iterations = 20.0

     total cpu time spent up to now is       15.2 secs

     total energy              =    -501.35874832 Ry
     estimated scf accuracy    <       0.00707097 Ry

     iteration # 95     ecut=    30.00 Ry     beta= 0.50
     Davidson diagonalization with overlap
     ethr =  4.91E-07,  avg # of iterations = 10.0

     total cpu time spent up to now is       15.3 secs

     total energy              =    -501.35885195 Ry
     estimated scf accuracy    <       0.00336739 Ry

     iteration # 96     ecut=    30.00 Ry     beta= 0.50
     Davidson diagonalization with overlap
     ethr =  4.91E-07,  avg # of iterations =  1.0

     total cpu time spent up to now is       15.4 secs

     total energy              =    -501.35885074 Ry
     estimated scf accuracy    <       0.00292958 Ry

     iteration # 97     ecut=    30.00 Ry     beta= 0.50
     Davidson diagonalization with overlap
     ethr =  4.91E-07,  avg # of iterations =  1.0

     total cpu time spent up to now is       15.5 secs

     total energy              =    -501.35884407 Ry
     estimated scf accuracy    <       0.00278067 Ry

     iteration # 98     ecut=    30.00 Ry     beta= 0.50
     Davidson diagonalization with overlap
     ethr =  4.91E-07,  avg # of iterations =  1.0

     total cpu time spent up to now is       15.5 secs

     total energy              =    -501.35887093 Ry
     estimated scf accuracy    <       0.00263520 Ry

     iteration # 99     ecut=    30.00 Ry     beta= 0.50
     Davidson diagonalization with overlap
     ethr =  4.91E-07,  avg # of iterations =  1.0

     total cpu time spent up to now is       15.6 secs

     total energy              =    -501.35847780 Ry
     estimated scf accuracy    <       0.00261252 Ry

     iteration #100     ecut=    30.00 Ry     beta= 0.50
     Davidson diagonalization with overlap
     c_bands:  1 eigenvalues not converged
     ethr =  4.91E-07,  avg # of iterations = 20.0

     total cpu time spent up to now is       15.8 secs

     total energy              =    -501.36009741 Ry
     estimated scf accuracy    <       0.03402148 Ry

     End of self-consistent calculation

     convergence NOT achieved after 100 iterations: stopping

     Writing config to output data dir ./pwscf.save/
     Message from routine punch:
     wavefunctions written to file
 
     init_run     :      0.95s CPU      4.43s WALL (       1 calls)
     electrons    :     10.77s CPU     11.28s WALL (       1 calls)

     Called by init_run:
     wfcinit      :      0.45s CPU      3.78s WALL (       1 calls)
                                        3.78s GPU  (       1 calls)
     potinit      :      0.03s CPU      0.12s WALL (       1 calls)
     hinit0       :      0.45s CPU      0.48s WALL (       1 calls)

     Called by electrons:
     c_bands      :      7.71s CPU      7.96s WALL (     101 calls)
     sum_band     :      1.39s CPU      1.58s WALL (     101 calls)
     v_of_rho     :      0.56s CPU      0.67s WALL (     101 calls)
     mix_rho      :      0.87s CPU      0.90s WALL (     101 calls)

     Called by c_bands:
     init_us_2    :      0.25s CPU      0.27s WALL (     203 calls)
     init_us_2:gp :      0.24s CPU      0.26s WALL (     203 calls)
     regterg      :      7.04s CPU      7.25s WALL (     101 calls)

     Called by *egterg:
     rdiaghg      :      3.55s CPU      4.26s WALL (    1077 calls)
                                        4.09s GPU  (    1077 calls)
     h_psi        :      2.96s CPU      5.77s WALL (    1079 calls)
                                        5.75s GPU  (    1079 calls)
     g_psi        :      0.00s CPU      0.02s WALL (     977 calls)
                                        0.02s GPU  (     977 calls)

     Called by h_psi:
     h_psi:calbec :      0.71s CPU      3.37s WALL (    1079 calls)
                                        3.37s GPU  (    1079 calls)
     vloc_psi     :      1.69s CPU      1.84s WALL (    1079 calls)
                                        1.82s GPU  (    1079 calls)
     add_vuspsi   :      0.41s CPU      0.50s WALL (    1079 calls)
                                        0.50s GPU  (    1079 calls)

     General routines
     calbec       :      0.70s CPU      3.35s WALL (    1079 calls)
     fft          :      0.90s CPU      1.04s WALL (     809 calls)
                                        0.18s GPU  (     505 calls)
     ffts         :      0.14s CPU      0.15s WALL (     101 calls)
     fftw         :      1.97s CPU      2.46s WALL (   10086 calls)
                                        2.15s GPU  (   10086 calls)
     davcio       :      0.00s CPU      0.00s WALL (      19 calls)
 
     Parallel routines
 
     PWSCF        :     11.76s CPU     15.80s WALL

 
   This run was terminated on:  15: 7:15   9May2023            

=------------------------------------------------------------------------------=
   JOB DONE.
=------------------------------------------------------------------------------=
