
     Program PWSCF v.7.1 starts on  9May2023 at 15:27:33 

     This program is part of the open-source Quantum ESPRESSO suite
     for quantum simulation of materials; please cite
         "P. Giannozzi et al., J. Phys.:Condens. Matter 21 395502 (2009);
         "P. Giannozzi et al., J. Phys.:Condens. Matter 29 465901 (2017);
         "P. Giannozzi et al., J. Chem. Phys. 152 154105 (2020);
          URL http://www.quantum-espresso.org", 
     in publications or presentations arising from this work. More details at
     http://www.quantum-espresso.org/quote

     Parallel version (MPI & OpenMP), running on       4 processor cores
     Number of MPI processes:                 4
     Threads/MPI process:                     1

     MPI processes distributed on     1 nodes
     11588 MiB available memory on the printing compute node when the environment starts
 
     Reading input from pw-si-96.in
Warning: card &CELL ignored
Warning: card / ignored

     Current dimensions of program PWSCF are:
     Max number of different atomic species (ntypx) = 10
     Max number of k-points (npk) =  40000
     Max angular momentum in pseudopotentials (lmaxx) =  4

     IMPORTANT: XC functional enforced from input :
     Exchange-correlation= PBE
                           (   1   4   3   4   0   0   0)
     Any further DFT definition will be discarded
     Please, verify this is what you really want


     gamma-point specific algorithms are used
 
     K-points division:     npool     =       2
     R & G space division:  proc/nbgrp/npool/nimage =       2
     Subspace diagonalization in iterative solution of the eigenvalue problem:
     a serial algorithm will be used

     Message from routine divide_et_impera:
     suboptimal parallelization: some nodes have no k-points
 
     Parallelization info
     --------------------
     sticks:   dense  smooth     PW     G-vecs:    dense   smooth      PW
     Min        1930    1930    504                90041    90041   12201
     Max        1931    1931    505                90042    90042   12204
     Sum        3861    3861   1009               180083   180083   24405
 
     Using Slab Decomposition
 


     bravais-lattice index     =            0
     lattice parameter (alat)  =      20.0846  a.u.
     unit-cell volume          =    8101.9024 (a.u.)^3
     number of atoms/cell      =           64
     number of atomic types    =            1
     number of electrons       =       256.00
     number of Kohn-Sham states=          128
     kinetic-energy cutoff     =      30.0000  Ry
     charge density cutoff     =     120.0000  Ry
     scf convergence threshold =      1.0E-06
     mixing beta               =       0.5000
     number of iterations used =            8  plain     mixing
     Exchange-correlation= PBE
                           (   1   4   3   4   0   0   0)

     GPU acceleration is ACTIVE.
     GPU-aware MPI enabled

     Message from routine print_cuda_info:
     High GPU oversubscription detected. Are you sure this is what you want?

     celldm(1)=  20.084561  celldm(2)=   0.000000  celldm(3)=   0.000000
     celldm(4)=   0.000000  celldm(5)=   0.000000  celldm(6)=   0.000000

     crystal axes: (cart. coord. in units of alat)
               a(1) = (   1.000000   0.000000   0.000000 )  
               a(2) = (   0.000000   1.000000   0.000000 )  
               a(3) = (   0.000000   0.000000   1.000000 )  

     reciprocal axes: (cart. coord. in units 2 pi/alat)
               b(1) = (  1.000000  0.000000  0.000000 )  
               b(2) = (  0.000000  1.000000  0.000000 )  
               b(3) = (  0.000000  0.000000  1.000000 )  


     PseudoPot. # 1 for Si read from file:
     /home/ppiaggi/pseudos/Si_ONCV_PBE_sr.upf
     MD5 check sum: 8553c464762ac42b85b1eed164b4d029
     Pseudo is Norm-conserving, Zval =  4.0
     Generated using ONCVPSP code by D. R. Hamann
     Using radial grid of 1510 points,  4 beta functions with: 
                l(1) =   0
                l(2) =   0
                l(3) =   1
                l(4) =   1

     atomic species   valence    mass     pseudopotential
        Si             4.00    28.08500     Si( 1.00)

     No symmetry found



   Cartesian axes

     site n.     atom                  positions (alat units)
         1           Si  tau(   1) = (   0.0031267   0.3444650   0.8763120  )
         2           Si  tau(   2) = (   0.2574750   0.0607655   0.8897560  )
         3           Si  tau(   3) = (   0.8439780   0.8559240   0.9039330  )
         4           Si  tau(   4) = (   0.5697320   0.1837790   0.2932270  )
         5           Si  tau(   5) = (   0.3452930   0.9154910   0.1398200  )
         6           Si  tau(   6) = (   0.3535650   0.2736090   0.0856113  )
         7           Si  tau(   7) = (   0.9214020   0.0562972   0.1615330  )
         8           Si  tau(   8) = (   0.3481220   0.1716840   0.3639970  )
         9           Si  tau(   9) = (   0.1312010   0.9314390   0.4661670  )
        10           Si  tau(  10) = (   0.3530370   0.2785030   0.8417410  )
        11           Si  tau(  11) = (   0.5406950   0.9040370   0.4337100  )
        12           Si  tau(  12) = (   0.8962020   0.1538510   0.3512350  )
        13           Si  tau(  13) = (   0.3313060   0.3964980   0.3854500  )
        14           Si  tau(  14) = (   0.7346840   0.5958880   0.2399800  )
        15           Si  tau(  15) = (   0.8896340   0.6575380   0.0891818  )
        16           Si  tau(  16) = (   0.6063900   0.6877380   0.7439220  )
        17           Si  tau(  17) = (   0.3257900   0.8726780   0.3641130  )
        18           Si  tau(  18) = (   0.9695760   0.1267350   0.6435650  )
        19           Si  tau(  19) = (   0.5944710   0.2954370   0.0899880  )
        20           Si  tau(  20) = (   0.8134690   0.3761380   0.3497560  )
        21           Si  tau(  21) = (   0.1483640   0.7256850   0.1250850  )
        22           Si  tau(  22) = (   0.4067110   0.8698900   0.8954890  )
        23           Si  tau(  23) = (   0.0104769   0.4688900   0.2157430  )
        24           Si  tau(  24) = (   0.5692300   0.0256255   0.8354620  )
        25           Si  tau(  25) = (   0.7711570   0.4471220   0.8295480  )
        26           Si  tau(  26) = (   0.4099270   0.5116580   0.8541110  )
        27           Si  tau(  27) = (   0.6312690   0.7638070   0.9625740  )
        28           Si  tau(  28) = (   0.3722630   0.8183220   0.6521230  )
        29           Si  tau(  29) = (   0.2892000   0.4602470   0.1618100  )
        30           Si  tau(  30) = (   0.7428620   0.0138605   0.0405340  )
        31           Si  tau(  31) = (   0.1215920   0.5720930   0.3909030  )
        32           Si  tau(  32) = (   0.5981870   0.6827590   0.4648240  )
        33           Si  tau(  33) = (   0.5732750   0.4410080   0.4018420  )
        34           Si  tau(  34) = (   0.5463780   0.2219290   0.7132140  )
        35           Si  tau(  35) = (   0.1864060   0.5492960   0.7482890  )
        36           Si  tau(  36) = (   0.1032030   0.5299400   0.9760820  )
        37           Si  tau(  37) = (   0.2322070   0.0306946   0.6670420  )
        38           Si  tau(  38) = (   0.0971835   0.8646310   0.9174260  )
        39           Si  tau(  39) = (   0.7041440   0.1168670   0.4914050  )
        40           Si  tau(  40) = (   0.7963310   0.8036810   0.3172200  )
        41           Si  tau(  41) = (   0.0034371   0.8711860   0.2263530  )
        42           Si  tau(  42) = (   0.4332250   0.0928050   0.5619110  )
        43           Si  tau(  43) = (   0.0192723   0.7229320   0.5252960  )
        44           Si  tau(  44) = (   0.7017720   0.9283030   0.6950210  )
        45           Si  tau(  45) = (   0.0875380   0.1711130   0.4320990  )
        46           Si  tau(  46) = (   0.6358760   0.5210130   0.0050960  )
        47           Si  tau(  47) = (   0.3735930   0.5916190   0.5630070  )
        48           Si  tau(  48) = (   0.1418640   0.3748380   0.5472800  )
        49           Si  tau(  49) = (   0.5324300   0.7036380   0.1969110  )
        50           Si  tau(  50) = (   0.8040400   0.6727530   0.6048310  )
        51           Si  tau(  51) = (   0.5597650   0.4690500   0.6528000  )
        52           Si  tau(  52) = (   0.1595880   0.2605290   0.7327130  )
        53           Si  tau(  53) = (   0.9182190   0.6350820   0.8347090  )
        54           Si  tau(  54) = (   0.9859890   0.0845786   0.9076260  )
        55           Si  tau(  55) = (   0.6015110   0.9653960   0.2035860  )
        56           Si  tau(  56) = (   0.7329800   0.2248150   0.9127090  )
        57           Si  tau(  57) = (   0.8947030   0.4541820   0.5421620  )
        58           Si  tau(  58) = (   0.3559590   0.6274050   0.0431808  )
        59           Si  tau(  59) = (   0.1334110   0.7546340   0.7134390  )
        60           Si  tau(  60) = (   0.1935260   0.1004430   0.2045060  )
        61           Si  tau(  61) = (   0.8701360   0.9380650   0.4785070  )
        62           Si  tau(  62) = (   0.7905070   0.2928520   0.6438690  )
        63           Si  tau(  63) = (   0.3207230   0.6610910   0.3297470  )
        64           Si  tau(  64) = (   0.0426441   0.2840920   0.0868118  )

     number of k points=     1
                       cart. coord. in units 2pi/alat
        k(    1) = (   0.0000000   0.0000000   0.0000000), wk =   2.0000000

     Dense  grid:    90042 G-vectors     FFT dimensions: (  72,  72,  72)

     Estimated max dynamical RAM per process >     132.57 MB

     Estimated total dynamical RAM >     508.32 MB

     Initial potential from superposition of free atoms

     starting charge     255.9608, renormalised to     256.0000
     Starting wfcs are  256 randomized atomic wfcs

     total cpu time spent up to now is        4.1 secs

     Self-consistent Calculation

     iteration #  1     ecut=    30.00 Ry     beta= 0.50
     Davidson diagonalization with overlap
     ethr =  1.00E-02,  avg # of iterations =  2.0

     Threshold (ethr) on eigenvalues was too large:
     Diagonalizing with lowered threshold

     Davidson diagonalization with overlap
     ethr =  3.45E-04,  avg # of iterations =  4.0

     total cpu time spent up to now is        4.3 secs

     total energy              =    -501.12632233 Ry
     estimated scf accuracy    <       1.09198192 Ry

     iteration #  2     ecut=    30.00 Ry     beta= 0.50
     Davidson diagonalization with overlap
     ethr =  4.27E-04,  avg # of iterations = 13.0

     total cpu time spent up to now is        4.4 secs

     total energy              =    -500.84192037 Ry
     estimated scf accuracy    <       3.03991156 Ry

     iteration #  3     ecut=    30.00 Ry     beta= 0.50
     Davidson diagonalization with overlap
     ethr =  4.27E-04,  avg # of iterations = 13.0

     total cpu time spent up to now is        4.6 secs

     total energy              =    -501.12328476 Ry
     estimated scf accuracy    <       2.63714296 Ry

     iteration #  4     ecut=    30.00 Ry     beta= 0.50
     Davidson diagonalization with overlap
     ethr =  4.27E-04,  avg # of iterations = 11.0

     total cpu time spent up to now is        4.7 secs

     total energy              =    -501.27557051 Ry
     estimated scf accuracy    <       0.31694542 Ry

     iteration #  5     ecut=    30.00 Ry     beta= 0.50
     Davidson diagonalization with overlap
     ethr =  1.24E-04,  avg # of iterations = 11.0

     total cpu time spent up to now is        4.8 secs

     total energy              =    -501.30911875 Ry
     estimated scf accuracy    <       0.40736598 Ry

     iteration #  6     ecut=    30.00 Ry     beta= 0.50
     Davidson diagonalization with overlap
     ethr =  1.24E-04,  avg # of iterations =  3.0

     total cpu time spent up to now is        4.9 secs

     total energy              =    -501.34184226 Ry
     estimated scf accuracy    <       0.05997663 Ry

     iteration #  7     ecut=    30.00 Ry     beta= 0.50
     Davidson diagonalization with overlap
     ethr =  2.34E-05,  avg # of iterations = 19.0

     total cpu time spent up to now is        5.1 secs

     total energy              =    -501.34940057 Ry
     estimated scf accuracy    <       0.10410646 Ry

     iteration #  8     ecut=    30.00 Ry     beta= 0.50
     Davidson diagonalization with overlap
     ethr =  2.34E-05,  avg # of iterations =  3.0

     total cpu time spent up to now is        5.2 secs

     total energy              =    -501.34732549 Ry
     estimated scf accuracy    <       0.05896017 Ry

     iteration #  9     ecut=    30.00 Ry     beta= 0.50
     Davidson diagonalization with overlap
     ethr =  2.30E-05,  avg # of iterations =  2.0

     total cpu time spent up to now is        5.2 secs

     total energy              =    -501.34481577 Ry
     estimated scf accuracy    <       0.02998429 Ry

     iteration # 10     ecut=    30.00 Ry     beta= 0.50
     Davidson diagonalization with overlap
     c_bands:  1 eigenvalues not converged
     ethr =  1.17E-05,  avg # of iterations = 20.0

     total cpu time spent up to now is        5.4 secs

     total energy              =    -501.35341149 Ry
     estimated scf accuracy    <       0.02523016 Ry

     iteration # 11     ecut=    30.00 Ry     beta= 0.50
     Davidson diagonalization with overlap
     ethr =  9.86E-06,  avg # of iterations =  2.0

     total cpu time spent up to now is        5.5 secs

     total energy              =    -501.35180321 Ry
     estimated scf accuracy    <       0.02324281 Ry

     iteration # 12     ecut=    30.00 Ry     beta= 0.50
     Davidson diagonalization with overlap
     ethr =  9.08E-06,  avg # of iterations =  1.0

     total cpu time spent up to now is        5.5 secs

     total energy              =    -501.35051042 Ry
     estimated scf accuracy    <       0.01580152 Ry

     iteration # 13     ecut=    30.00 Ry     beta= 0.50
     Davidson diagonalization with overlap
     c_bands:  1 eigenvalues not converged
     ethr =  6.17E-06,  avg # of iterations = 20.0

     total cpu time spent up to now is        5.7 secs

     total energy              =    -501.35126758 Ry
     estimated scf accuracy    <       0.00359684 Ry

     iteration # 14     ecut=    30.00 Ry     beta= 0.50
     Davidson diagonalization with overlap
     c_bands:  1 eigenvalues not converged
     ethr =  1.41E-06,  avg # of iterations = 20.0

     total cpu time spent up to now is        5.8 secs

     total energy              =    -501.35174031 Ry
     estimated scf accuracy    <       0.00220668 Ry

     iteration # 15     ecut=    30.00 Ry     beta= 0.50
     Davidson diagonalization with overlap
     c_bands:  1 eigenvalues not converged
     ethr =  8.62E-07,  avg # of iterations = 20.0

     total cpu time spent up to now is        6.0 secs

     total energy              =    -501.35169200 Ry
     estimated scf accuracy    <       0.00334526 Ry

     iteration # 16     ecut=    30.00 Ry     beta= 0.50
     Davidson diagonalization with overlap
     ethr =  8.62E-07,  avg # of iterations = 18.0

     total cpu time spent up to now is        6.1 secs

     total energy              =    -501.35175618 Ry
     estimated scf accuracy    <       0.00148736 Ry

     iteration # 17     ecut=    30.00 Ry     beta= 0.50
     Davidson diagonalization with overlap
     c_bands:  1 eigenvalues not converged
     ethr =  5.81E-07,  avg # of iterations = 20.0

     total cpu time spent up to now is        6.3 secs

     total energy              =    -501.35197937 Ry
     estimated scf accuracy    <       0.00949560 Ry

     iteration # 18     ecut=    30.00 Ry     beta= 0.50
     Davidson diagonalization with overlap
     ethr =  5.81E-07,  avg # of iterations = 19.0

     total cpu time spent up to now is        6.5 secs

     total energy              =    -501.35150043 Ry
     estimated scf accuracy    <       0.00615459 Ry

     iteration # 19     ecut=    30.00 Ry     beta= 0.50
     Davidson diagonalization with overlap
     c_bands:  1 eigenvalues not converged
     ethr =  5.81E-07,  avg # of iterations = 20.0

     total cpu time spent up to now is        6.6 secs

     total energy              =    -501.35135061 Ry
     estimated scf accuracy    <       0.01014916 Ry

     iteration # 20     ecut=    30.00 Ry     beta= 0.50
     Davidson diagonalization with overlap
     c_bands:  1 eigenvalues not converged
     ethr =  5.81E-07,  avg # of iterations = 20.0

     total cpu time spent up to now is        6.8 secs

     total energy              =    -501.35165677 Ry
     estimated scf accuracy    <       0.00755247 Ry

     iteration # 21     ecut=    30.00 Ry     beta= 0.50
     Davidson diagonalization with overlap
     ethr =  5.81E-07,  avg # of iterations =  2.0

     total cpu time spent up to now is        6.8 secs

     total energy              =    -501.35151197 Ry
     estimated scf accuracy    <       0.00729779 Ry

     iteration # 22     ecut=    30.00 Ry     beta= 0.50
     Davidson diagonalization with overlap
     ethr =  5.81E-07,  avg # of iterations =  3.0

     total cpu time spent up to now is        6.9 secs

     total energy              =    -501.35144554 Ry
     estimated scf accuracy    <       0.00676019 Ry

     iteration # 23     ecut=    30.00 Ry     beta= 0.50
     Davidson diagonalization with overlap
     c_bands:  1 eigenvalues not converged
     ethr =  5.81E-07,  avg # of iterations = 20.0

     total cpu time spent up to now is        7.1 secs

     total energy              =    -501.35180847 Ry
     estimated scf accuracy    <       0.00203149 Ry

     iteration # 24     ecut=    30.00 Ry     beta= 0.50
     Davidson diagonalization with overlap
     c_bands:  1 eigenvalues not converged
     ethr =  5.81E-07,  avg # of iterations = 20.0

     total cpu time spent up to now is        7.2 secs

     total energy              =    -501.35205092 Ry
     estimated scf accuracy    <       0.00148948 Ry

     iteration # 25     ecut=    30.00 Ry     beta= 0.50
     Davidson diagonalization with overlap
     c_bands:  1 eigenvalues not converged
     ethr =  5.81E-07,  avg # of iterations = 20.0

     total cpu time spent up to now is        7.3 secs

     total energy              =    -501.35209532 Ry
     estimated scf accuracy    <       0.00241960 Ry

     iteration # 26     ecut=    30.00 Ry     beta= 0.50
     Davidson diagonalization with overlap
     ethr =  5.81E-07,  avg # of iterations = 17.0

     total cpu time spent up to now is        7.5 secs

     total energy              =    -501.35206363 Ry
     estimated scf accuracy    <       0.00254626 Ry

     iteration # 27     ecut=    30.00 Ry     beta= 0.50
     Davidson diagonalization with overlap
     ethr =  5.81E-07,  avg # of iterations =  2.0

     total cpu time spent up to now is        7.6 secs

     total energy              =    -501.35199116 Ry
     estimated scf accuracy    <       0.00229225 Ry

     iteration # 28     ecut=    30.00 Ry     beta= 0.50
     Davidson diagonalization with overlap
     ethr =  5.81E-07,  avg # of iterations =  1.0

     total cpu time spent up to now is        7.6 secs

     total energy              =    -501.35201784 Ry
     estimated scf accuracy    <       0.00203892 Ry

     iteration # 29     ecut=    30.00 Ry     beta= 0.50
     Davidson diagonalization with overlap
     ethr =  5.81E-07,  avg # of iterations =  1.0

     total cpu time spent up to now is        7.7 secs

     total energy              =    -501.35201809 Ry
     estimated scf accuracy    <       0.00209113 Ry

     iteration # 30     ecut=    30.00 Ry     beta= 0.50
     Davidson diagonalization with overlap
     ethr =  5.81E-07,  avg # of iterations =  1.0

     total cpu time spent up to now is        7.8 secs

     total energy              =    -501.35197871 Ry
     estimated scf accuracy    <       0.00204826 Ry

     iteration # 31     ecut=    30.00 Ry     beta= 0.50
     Davidson diagonalization with overlap
     ethr =  5.81E-07,  avg # of iterations =  1.0

     total cpu time spent up to now is        7.8 secs

     total energy              =    -501.35147065 Ry
     estimated scf accuracy    <       0.00188819 Ry

     iteration # 32     ecut=    30.00 Ry     beta= 0.50
     Davidson diagonalization with overlap
     c_bands:  1 eigenvalues not converged
     ethr =  5.81E-07,  avg # of iterations = 20.0

     total cpu time spent up to now is        8.0 secs

     total energy              =    -501.35122303 Ry
     estimated scf accuracy    <       0.08803277 Ry

     iteration # 33     ecut=    30.00 Ry     beta= 0.50
     Davidson diagonalization with overlap
     c_bands:  1 eigenvalues not converged
     ethr =  5.81E-07,  avg # of iterations = 20.0

     total cpu time spent up to now is        8.2 secs

     total energy              =    -501.35250911 Ry
     estimated scf accuracy    <       0.04069082 Ry

     iteration # 34     ecut=    30.00 Ry     beta= 0.50
     Davidson diagonalization with overlap
     c_bands:  1 eigenvalues not converged
     ethr =  5.81E-07,  avg # of iterations = 20.0

     total cpu time spent up to now is        8.3 secs

     total energy              =    -501.35158700 Ry
     estimated scf accuracy    <       0.03014831 Ry

     iteration # 35     ecut=    30.00 Ry     beta= 0.50
     Davidson diagonalization with overlap
     ethr =  5.81E-07,  avg # of iterations = 16.0

     total cpu time spent up to now is        8.5 secs

     total energy              =    -501.35151136 Ry
     estimated scf accuracy    <       0.02004067 Ry

     iteration # 36     ecut=    30.00 Ry     beta= 0.50
     Davidson diagonalization with overlap
     ethr =  5.81E-07,  avg # of iterations =  2.0

     total cpu time spent up to now is        8.6 secs

     total energy              =    -501.35145864 Ry
     estimated scf accuracy    <       0.01806596 Ry

     iteration # 37     ecut=    30.00 Ry     beta= 0.50
     Davidson diagonalization with overlap
     ethr =  5.81E-07,  avg # of iterations =  1.0

     total cpu time spent up to now is        8.6 secs

     total energy              =    -501.35130865 Ry
     estimated scf accuracy    <       0.01760268 Ry

     iteration # 38     ecut=    30.00 Ry     beta= 0.50
     Davidson diagonalization with overlap
     ethr =  5.81E-07,  avg # of iterations =  1.0

     total cpu time spent up to now is        8.7 secs

     total energy              =    -501.35126451 Ry
     estimated scf accuracy    <       0.01686059 Ry

     iteration # 39     ecut=    30.00 Ry     beta= 0.50
     Davidson diagonalization with overlap
     ethr =  5.81E-07,  avg # of iterations =  1.0

     total cpu time spent up to now is        8.8 secs

     total energy              =    -501.35145718 Ry
     estimated scf accuracy    <       0.01658564 Ry

     iteration # 40     ecut=    30.00 Ry     beta= 0.50
     Davidson diagonalization with overlap
     ethr =  5.81E-07,  avg # of iterations =  3.0

     total cpu time spent up to now is        8.8 secs

     total energy              =    -501.34725135 Ry
     estimated scf accuracy    <       0.01696182 Ry

     iteration # 41     ecut=    30.00 Ry     beta= 0.50
     Davidson diagonalization with overlap
     c_bands:  1 eigenvalues not converged
     ethr =  5.81E-07,  avg # of iterations = 20.0

     total cpu time spent up to now is        9.0 secs

     total energy              =    -501.35405664 Ry
     estimated scf accuracy    <       0.03812313 Ry

     iteration # 42     ecut=    30.00 Ry     beta= 0.50
     Davidson diagonalization with overlap
     c_bands:  1 eigenvalues not converged
     ethr =  5.81E-07,  avg # of iterations = 20.0

     total cpu time spent up to now is        9.2 secs

     total energy              =    -501.35205133 Ry
     estimated scf accuracy    <       0.02651044 Ry

     iteration # 43     ecut=    30.00 Ry     beta= 0.50
     Davidson diagonalization with overlap
     c_bands:  1 eigenvalues not converged
     ethr =  5.81E-07,  avg # of iterations = 20.0

     total cpu time spent up to now is        9.4 secs

     total energy              =    -501.35047203 Ry
     estimated scf accuracy    <       0.04120101 Ry

     iteration # 44     ecut=    30.00 Ry     beta= 0.50
     Davidson diagonalization with overlap
     c_bands:  1 eigenvalues not converged
     ethr =  5.81E-07,  avg # of iterations = 20.0

     total cpu time spent up to now is        9.6 secs

     total energy              =    -501.35242693 Ry
     estimated scf accuracy    <       0.01503555 Ry

     iteration # 45     ecut=    30.00 Ry     beta= 0.50
     Davidson diagonalization with overlap
     ethr =  5.81E-07,  avg # of iterations = 18.0

     total cpu time spent up to now is        9.7 secs

     total energy              =    -501.35266945 Ry
     estimated scf accuracy    <       0.00885097 Ry

     iteration # 46     ecut=    30.00 Ry     beta= 0.50
     Davidson diagonalization with overlap
     ethr =  5.81E-07,  avg # of iterations =  3.0

     total cpu time spent up to now is        9.8 secs

     total energy              =    -501.35261782 Ry
     estimated scf accuracy    <       0.00737578 Ry

     iteration # 47     ecut=    30.00 Ry     beta= 0.50
     Davidson diagonalization with overlap
     ethr =  5.81E-07,  avg # of iterations =  1.0

     total cpu time spent up to now is        9.9 secs

     total energy              =    -501.35217260 Ry
     estimated scf accuracy    <       0.00640435 Ry

     iteration # 48     ecut=    30.00 Ry     beta= 0.50
     Davidson diagonalization with overlap
     ethr =  5.81E-07,  avg # of iterations =  2.0

     total cpu time spent up to now is        9.9 secs

     total energy              =    -501.35182534 Ry
     estimated scf accuracy    <       0.00447834 Ry

     iteration # 49     ecut=    30.00 Ry     beta= 0.50
     Davidson diagonalization with overlap
     ethr =  5.81E-07,  avg # of iterations =  2.0

     total cpu time spent up to now is       10.0 secs

     total energy              =    -501.35094601 Ry
     estimated scf accuracy    <       0.00276950 Ry

     iteration # 50     ecut=    30.00 Ry     beta= 0.50
     Davidson diagonalization with overlap
     c_bands:  1 eigenvalues not converged
     ethr =  5.81E-07,  avg # of iterations = 20.0

     total cpu time spent up to now is       10.2 secs

     total energy              =    -501.35232093 Ry
     estimated scf accuracy    <       0.05343070 Ry

     iteration # 51     ecut=    30.00 Ry     beta= 0.50
     Davidson diagonalization with overlap
     ethr =  5.81E-07,  avg # of iterations =  8.0

     total cpu time spent up to now is       10.3 secs

     total energy              =    -501.35046950 Ry
     estimated scf accuracy    <       0.03749099 Ry

     iteration # 52     ecut=    30.00 Ry     beta= 0.50
     Davidson diagonalization with overlap
     c_bands:  1 eigenvalues not converged
     ethr =  5.81E-07,  avg # of iterations = 20.0

     total cpu time spent up to now is       10.5 secs

     total energy              =    -501.35176952 Ry
     estimated scf accuracy    <       0.00292577 Ry

     iteration # 53     ecut=    30.00 Ry     beta= 0.50
     Davidson diagonalization with overlap
     c_bands:  1 eigenvalues not converged
     ethr =  5.81E-07,  avg # of iterations = 20.0

     total cpu time spent up to now is       10.6 secs

     total energy              =    -501.35195698 Ry
     estimated scf accuracy    <       0.00208774 Ry

     iteration # 54     ecut=    30.00 Ry     beta= 0.50
     Davidson diagonalization with overlap
     ethr =  5.81E-07,  avg # of iterations =  2.0

     total cpu time spent up to now is       10.7 secs

     total energy              =    -501.35192071 Ry
     estimated scf accuracy    <       0.00169044 Ry

     iteration # 55     ecut=    30.00 Ry     beta= 0.50
     Davidson diagonalization with overlap
     ethr =  5.81E-07,  avg # of iterations =  2.0

     total cpu time spent up to now is       10.8 secs

     total energy              =    -501.35191697 Ry
     estimated scf accuracy    <       0.00133198 Ry

     iteration # 56     ecut=    30.00 Ry     beta= 0.50
     Davidson diagonalization with overlap
     ethr =  5.20E-07,  avg # of iterations =  2.0

     total cpu time spent up to now is       10.9 secs

     total energy              =    -501.35193984 Ry
     estimated scf accuracy    <       0.00118201 Ry

     iteration # 57     ecut=    30.00 Ry     beta= 0.50
     Davidson diagonalization with overlap
     ethr =  4.62E-07,  avg # of iterations =  1.0

     total cpu time spent up to now is       10.9 secs

     total energy              =    -501.35198857 Ry
     estimated scf accuracy    <       0.00119424 Ry

     iteration # 58     ecut=    30.00 Ry     beta= 0.50
     Davidson diagonalization with overlap
     ethr =  4.62E-07,  avg # of iterations =  2.0

     total cpu time spent up to now is       11.0 secs

     total energy              =    -501.35140674 Ry
     estimated scf accuracy    <       0.00164172 Ry

     iteration # 59     ecut=    30.00 Ry     beta= 0.50
     Davidson diagonalization with overlap
     c_bands:  1 eigenvalues not converged
     ethr =  4.62E-07,  avg # of iterations = 20.0

     total cpu time spent up to now is       11.2 secs

     total energy              =    -501.35163533 Ry
     estimated scf accuracy    <       0.02477225 Ry

     iteration # 60     ecut=    30.00 Ry     beta= 0.50
     Davidson diagonalization with overlap
     c_bands:  1 eigenvalues not converged
     ethr =  4.62E-07,  avg # of iterations = 20.0

     total cpu time spent up to now is       11.3 secs

     total energy              =    -501.35023755 Ry
     estimated scf accuracy    <       0.01026464 Ry

     iteration # 61     ecut=    30.00 Ry     beta= 0.50
     Davidson diagonalization with overlap
     c_bands:  1 eigenvalues not converged
     ethr =  4.62E-07,  avg # of iterations = 20.0

     total cpu time spent up to now is       11.5 secs

     total energy              =    -501.35097263 Ry
     estimated scf accuracy    <       0.01104514 Ry

     iteration # 62     ecut=    30.00 Ry     beta= 0.50
     Davidson diagonalization with overlap
     c_bands:  1 eigenvalues not converged
     ethr =  4.62E-07,  avg # of iterations = 20.0

     total cpu time spent up to now is       11.7 secs

     total energy              =    -501.35162989 Ry
     estimated scf accuracy    <       0.00482826 Ry

     iteration # 63     ecut=    30.00 Ry     beta= 0.50
     Davidson diagonalization with overlap
     ethr =  4.62E-07,  avg # of iterations = 13.0

     total cpu time spent up to now is       11.8 secs

     total energy              =    -501.35155084 Ry
     estimated scf accuracy    <       0.00375486 Ry

     iteration # 64     ecut=    30.00 Ry     beta= 0.50
     Davidson diagonalization with overlap
     ethr =  4.62E-07,  avg # of iterations =  3.0

     total cpu time spent up to now is       11.9 secs

     total energy              =    -501.35151185 Ry
     estimated scf accuracy    <       0.00299431 Ry

     iteration # 65     ecut=    30.00 Ry     beta= 0.50
     Davidson diagonalization with overlap
     ethr =  4.62E-07,  avg # of iterations =  2.0

     total cpu time spent up to now is       12.0 secs

     total energy              =    -501.35150295 Ry
     estimated scf accuracy    <       0.00264662 Ry

     iteration # 66     ecut=    30.00 Ry     beta= 0.50
     Davidson diagonalization with overlap
     ethr =  4.62E-07,  avg # of iterations =  1.0

     total cpu time spent up to now is       12.0 secs

     total energy              =    -501.35145404 Ry
     estimated scf accuracy    <       0.00250675 Ry

     iteration # 67     ecut=    30.00 Ry     beta= 0.50
     Davidson diagonalization with overlap
     ethr =  4.62E-07,  avg # of iterations =  2.0

     total cpu time spent up to now is       12.1 secs

     total energy              =    -501.35070141 Ry
     estimated scf accuracy    <       0.00245077 Ry

     iteration # 68     ecut=    30.00 Ry     beta= 0.50
     Davidson diagonalization with overlap
     c_bands:  1 eigenvalues not converged
     ethr =  4.62E-07,  avg # of iterations = 20.0

     total cpu time spent up to now is       12.3 secs

     total energy              =    -501.35243842 Ry
     estimated scf accuracy    <       0.02809536 Ry

     iteration # 69     ecut=    30.00 Ry     beta= 0.50
     Davidson diagonalization with overlap
     ethr =  4.62E-07,  avg # of iterations = 20.0

     total cpu time spent up to now is       12.4 secs

     total energy              =    -501.35292240 Ry
     estimated scf accuracy    <       0.01665680 Ry

     iteration # 70     ecut=    30.00 Ry     beta= 0.50
     Davidson diagonalization with overlap
     c_bands:  1 eigenvalues not converged
     ethr =  4.62E-07,  avg # of iterations = 20.0

     total cpu time spent up to now is       12.6 secs

     total energy              =    -501.35247286 Ry
     estimated scf accuracy    <       0.01340241 Ry

     iteration # 71     ecut=    30.00 Ry     beta= 0.50
     Davidson diagonalization with overlap
     ethr =  4.62E-07,  avg # of iterations =  9.0

     total cpu time spent up to now is       12.7 secs

     total energy              =    -501.35220401 Ry
     estimated scf accuracy    <       0.01100562 Ry

     iteration # 72     ecut=    30.00 Ry     beta= 0.50
     Davidson diagonalization with overlap
     ethr =  4.62E-07,  avg # of iterations =  2.0

     total cpu time spent up to now is       12.8 secs

     total energy              =    -501.35228570 Ry
     estimated scf accuracy    <       0.00919969 Ry

     iteration # 73     ecut=    30.00 Ry     beta= 0.50
     Davidson diagonalization with overlap
     ethr =  4.62E-07,  avg # of iterations =  1.0

     total cpu time spent up to now is       12.8 secs

     total energy              =    -501.35221392 Ry
     estimated scf accuracy    <       0.00919291 Ry

     iteration # 74     ecut=    30.00 Ry     beta= 0.50
     Davidson diagonalization with overlap
     ethr =  4.62E-07,  avg # of iterations =  1.0

     total cpu time spent up to now is       12.9 secs

     total energy              =    -501.35219062 Ry
     estimated scf accuracy    <       0.00893865 Ry

     iteration # 75     ecut=    30.00 Ry     beta= 0.50
     Davidson diagonalization with overlap
     ethr =  4.62E-07,  avg # of iterations =  1.0

     total cpu time spent up to now is       13.0 secs

     total energy              =    -501.35182171 Ry
     estimated scf accuracy    <       0.00876986 Ry

     iteration # 76     ecut=    30.00 Ry     beta= 0.50
     Davidson diagonalization with overlap
     ethr =  4.62E-07,  avg # of iterations =  2.0

     total cpu time spent up to now is       13.1 secs

     total energy              =    -501.35016812 Ry
     estimated scf accuracy    <       0.00761047 Ry

     iteration # 77     ecut=    30.00 Ry     beta= 0.50
     Davidson diagonalization with overlap
     c_bands:  1 eigenvalues not converged
     ethr =  4.62E-07,  avg # of iterations = 20.0

     total cpu time spent up to now is       13.2 secs

     total energy              =    -501.35148011 Ry
     estimated scf accuracy    <       0.02635164 Ry

     iteration # 78     ecut=    30.00 Ry     beta= 0.50
     Davidson diagonalization with overlap
     c_bands:  1 eigenvalues not converged
     ethr =  4.62E-07,  avg # of iterations = 20.0

     total cpu time spent up to now is       13.4 secs

     total energy              =    -501.35138139 Ry
     estimated scf accuracy    <       0.04883155 Ry

     iteration # 79     ecut=    30.00 Ry     beta= 0.50
     Davidson diagonalization with overlap
     c_bands:  1 eigenvalues not converged
     ethr =  4.62E-07,  avg # of iterations = 20.0

     total cpu time spent up to now is       13.6 secs

     total energy              =    -501.35196246 Ry
     estimated scf accuracy    <       0.01654675 Ry

     iteration # 80     ecut=    30.00 Ry     beta= 0.50
     Davidson diagonalization with overlap
     c_bands:  1 eigenvalues not converged
     ethr =  4.62E-07,  avg # of iterations = 20.0

     total cpu time spent up to now is       13.8 secs

     total energy              =    -501.35199554 Ry
     estimated scf accuracy    <       0.00920753 Ry

     iteration # 81     ecut=    30.00 Ry     beta= 0.50
     Davidson diagonalization with overlap
     c_bands:  1 eigenvalues not converged
     ethr =  4.62E-07,  avg # of iterations = 20.0

     total cpu time spent up to now is       13.9 secs

     total energy              =    -501.35175420 Ry
     estimated scf accuracy    <       0.00928863 Ry

     iteration # 82     ecut=    30.00 Ry     beta= 0.50
     Davidson diagonalization with overlap
     c_bands:  1 eigenvalues not converged
     ethr =  4.62E-07,  avg # of iterations = 20.0

     total cpu time spent up to now is       14.1 secs

     total energy              =    -501.35191528 Ry
     estimated scf accuracy    <       0.00422528 Ry

     iteration # 83     ecut=    30.00 Ry     beta= 0.50
     Davidson diagonalization with overlap
     ethr =  4.62E-07,  avg # of iterations =  2.0

     total cpu time spent up to now is       14.2 secs

     total energy              =    -501.35173928 Ry
     estimated scf accuracy    <       0.00369793 Ry

     iteration # 84     ecut=    30.00 Ry     beta= 0.50
     Davidson diagonalization with overlap
     ethr =  4.62E-07,  avg # of iterations =  2.0

     total cpu time spent up to now is       14.2 secs

     total energy              =    -501.35169002 Ry
     estimated scf accuracy    <       0.00292454 Ry

     iteration # 85     ecut=    30.00 Ry     beta= 0.50
     Davidson diagonalization with overlap
     ethr =  4.62E-07,  avg # of iterations =  2.0

     total cpu time spent up to now is       14.3 secs

     total energy              =    -501.35087263 Ry
     estimated scf accuracy    <       0.00259439 Ry

     iteration # 86     ecut=    30.00 Ry     beta= 0.50
     Davidson diagonalization with overlap
     c_bands:  1 eigenvalues not converged
     ethr =  4.62E-07,  avg # of iterations = 20.0

     total cpu time spent up to now is       14.5 secs

     total energy              =    -501.35240425 Ry
     estimated scf accuracy    <       0.03673992 Ry

     iteration # 87     ecut=    30.00 Ry     beta= 0.50
     Davidson diagonalization with overlap
     c_bands:  1 eigenvalues not converged
     ethr =  4.62E-07,  avg # of iterations = 20.0

     total cpu time spent up to now is       14.7 secs

     total energy              =    -501.35246823 Ry
     estimated scf accuracy    <       0.02112733 Ry

     iteration # 88     ecut=    30.00 Ry     beta= 0.50
     Davidson diagonalization with overlap
     c_bands:  1 eigenvalues not converged
     ethr =  4.62E-07,  avg # of iterations = 20.0

     total cpu time spent up to now is       14.8 secs

     total energy              =    -501.35219524 Ry
     estimated scf accuracy    <       0.01789531 Ry

     iteration # 89     ecut=    30.00 Ry     beta= 0.50
     Davidson diagonalization with overlap
     ethr =  4.62E-07,  avg # of iterations =  8.0

     total cpu time spent up to now is       14.9 secs

     total energy              =    -501.35173797 Ry
     estimated scf accuracy    <       0.01545699 Ry

     iteration # 90     ecut=    30.00 Ry     beta= 0.50
     Davidson diagonalization with overlap
     ethr =  4.62E-07,  avg # of iterations =  2.0

     total cpu time spent up to now is       15.0 secs

     total energy              =    -501.35166432 Ry
     estimated scf accuracy    <       0.01351637 Ry

     iteration # 91     ecut=    30.00 Ry     beta= 0.50
     Davidson diagonalization with overlap
     ethr =  4.62E-07,  avg # of iterations =  1.0

     total cpu time spent up to now is       15.1 secs

     total energy              =    -501.35157624 Ry
     estimated scf accuracy    <       0.01286452 Ry

     iteration # 92     ecut=    30.00 Ry     beta= 0.50
     Davidson diagonalization with overlap
     ethr =  4.62E-07,  avg # of iterations =  1.0

     total cpu time spent up to now is       15.1 secs

     total energy              =    -501.35154109 Ry
     estimated scf accuracy    <       0.01220399 Ry

     iteration # 93     ecut=    30.00 Ry     beta= 0.50
     Davidson diagonalization with overlap
     ethr =  4.62E-07,  avg # of iterations =  1.0

     total cpu time spent up to now is       15.2 secs

     total energy              =    -501.35149206 Ry
     estimated scf accuracy    <       0.01177084 Ry

     iteration # 94     ecut=    30.00 Ry     beta= 0.50
     Davidson diagonalization with overlap
     ethr =  4.62E-07,  avg # of iterations =  2.0

     total cpu time spent up to now is       15.3 secs

     total energy              =    -501.34850880 Ry
     estimated scf accuracy    <       0.01132986 Ry

     iteration # 95     ecut=    30.00 Ry     beta= 0.50
     Davidson diagonalization with overlap
     c_bands:  1 eigenvalues not converged
     ethr =  4.62E-07,  avg # of iterations = 20.0

     total cpu time spent up to now is       15.4 secs

     total energy              =    -501.35454533 Ry
     estimated scf accuracy    <       0.03244894 Ry

     iteration # 96     ecut=    30.00 Ry     beta= 0.50
     Davidson diagonalization with overlap
     c_bands:  1 eigenvalues not converged
     ethr =  4.62E-07,  avg # of iterations = 20.0

     total cpu time spent up to now is       15.6 secs

     total energy              =    -501.35347572 Ry
     estimated scf accuracy    <       0.02649301 Ry

     iteration # 97     ecut=    30.00 Ry     beta= 0.50
     Davidson diagonalization with overlap
     ethr =  4.62E-07,  avg # of iterations =  6.0

     total cpu time spent up to now is       15.7 secs

     total energy              =    -501.35312726 Ry
     estimated scf accuracy    <       0.01462143 Ry

     iteration # 98     ecut=    30.00 Ry     beta= 0.50
     Davidson diagonalization with overlap
     ethr =  4.62E-07,  avg # of iterations =  3.0

     total cpu time spent up to now is       15.8 secs

     total energy              =    -501.35206830 Ry
     estimated scf accuracy    <       0.01124130 Ry

     iteration # 99     ecut=    30.00 Ry     beta= 0.50
     Davidson diagonalization with overlap
     c_bands:  1 eigenvalues not converged
     ethr =  4.62E-07,  avg # of iterations = 20.0

     total cpu time spent up to now is       16.0 secs

     total energy              =    -501.35222825 Ry
     estimated scf accuracy    <       0.00528687 Ry

     iteration #100     ecut=    30.00 Ry     beta= 0.50
     Davidson diagonalization with overlap
     ethr =  4.62E-07,  avg # of iterations =  2.0

     total cpu time spent up to now is       16.0 secs

     total energy              =    -501.35220596 Ry
     estimated scf accuracy    <       0.00491895 Ry

     End of self-consistent calculation

     convergence NOT achieved after 100 iterations: stopping

     Writing config to output data dir ./pwscf.save/
     Message from routine punch:
     wavefunctions written to file
 
     init_run     :      0.92s CPU      4.09s WALL (       1 calls)
     electrons    :     11.19s CPU     11.90s WALL (       1 calls)

     Called by init_run:
     wfcinit      :      0.43s CPU      3.43s WALL (       1 calls)
                                        3.43s GPU  (       1 calls)
     potinit      :      0.03s CPU      0.12s WALL (       1 calls)
     hinit0       :      0.45s CPU      0.48s WALL (       1 calls)

     Called by electrons:
     c_bands      :      8.10s CPU      8.52s WALL (     101 calls)
     sum_band     :      1.40s CPU      1.61s WALL (     101 calls)
     v_of_rho     :      0.58s CPU      0.69s WALL (     101 calls)
     mix_rho      :      0.89s CPU      0.93s WALL (     101 calls)

     Called by c_bands:
     init_us_2    :      0.25s CPU      0.27s WALL (     203 calls)
     init_us_2:gp :      0.24s CPU      0.27s WALL (     203 calls)
     regterg      :      7.37s CPU      7.75s WALL (     101 calls)

     Called by *egterg:
     rdiaghg      :      3.75s CPU      4.53s WALL (    1165 calls)
                                        4.37s GPU  (    1165 calls)
     h_psi        :      3.00s CPU      5.54s WALL (    1167 calls)
                                        5.52s GPU  (    1167 calls)
     g_psi        :      0.00s CPU      0.02s WALL (    1065 calls)
                                        0.02s GPU  (    1065 calls)

     Called by h_psi:
     h_psi:calbec :      0.69s CPU      3.06s WALL (    1167 calls)
                                        3.05s GPU  (    1167 calls)
     vloc_psi     :      1.68s CPU      1.85s WALL (    1167 calls)
                                        1.82s GPU  (    1167 calls)
     add_vuspsi   :      0.48s CPU      0.58s WALL (    1167 calls)
                                        0.57s GPU  (    1167 calls)

     General routines
     calbec       :      0.68s CPU      3.04s WALL (    1167 calls)
     fft          :      0.90s CPU      1.06s WALL (     809 calls)
                                        0.18s GPU  (     505 calls)
     ffts         :      0.15s CPU      0.16s WALL (     101 calls)
     fftw         :      1.98s CPU      2.48s WALL (   10252 calls)
                                        2.16s GPU  (   10252 calls)
     davcio       :      0.00s CPU      0.00s WALL (      19 calls)
 
     Parallel routines
 
     PWSCF        :     12.16s CPU     16.07s WALL

 
   This run was terminated on:  15:27:49   9May2023            

=------------------------------------------------------------------------------=
   JOB DONE.
=------------------------------------------------------------------------------=
