
     Program PWSCF v.7.1 starts on  9May2023 at 15:25:56 

     This program is part of the open-source Quantum ESPRESSO suite
     for quantum simulation of materials; please cite
         "P. Giannozzi et al., J. Phys.:Condens. Matter 21 395502 (2009);
         "P. Giannozzi et al., J. Phys.:Condens. Matter 29 465901 (2017);
         "P. Giannozzi et al., J. Chem. Phys. 152 154105 (2020);
          URL http://www.quantum-espresso.org", 
     in publications or presentations arising from this work. More details at
     http://www.quantum-espresso.org/quote

     Parallel version (MPI & OpenMP), running on       4 processor cores
     Number of MPI processes:                 4
     Threads/MPI process:                     1

     MPI processes distributed on     1 nodes
     9365 MiB available memory on the printing compute node when the environment starts
 
     Reading input from pw-si-87.in
Warning: card &CELL ignored
Warning: card / ignored

     Current dimensions of program PWSCF are:
     Max number of different atomic species (ntypx) = 10
     Max number of k-points (npk) =  40000
     Max angular momentum in pseudopotentials (lmaxx) =  4

     IMPORTANT: XC functional enforced from input :
     Exchange-correlation= PBE
                           (   1   4   3   4   0   0   0)
     Any further DFT definition will be discarded
     Please, verify this is what you really want


     gamma-point specific algorithms are used
 
     K-points division:     npool     =       2
     R & G space division:  proc/nbgrp/npool/nimage =       2
     Subspace diagonalization in iterative solution of the eigenvalue problem:
     a serial algorithm will be used

     Message from routine divide_et_impera:
     suboptimal parallelization: some nodes have no k-points
 
     Parallelization info
     --------------------
     sticks:   dense  smooth     PW     G-vecs:    dense   smooth      PW
     Min        1951    1951    519                91625    91625   12442
     Max        1958    1958    522                91626    91626   12443
     Sum        3909    3909   1041               183251   183251   24885
 
     Using Slab Decomposition
 


     bravais-lattice index     =            0
     lattice parameter (alat)  =      20.2118  a.u.
     unit-cell volume          =    8256.8730 (a.u.)^3
     number of atoms/cell      =           64
     number of atomic types    =            1
     number of electrons       =       256.00
     number of Kohn-Sham states=          128
     kinetic-energy cutoff     =      30.0000  Ry
     charge density cutoff     =     120.0000  Ry
     scf convergence threshold =      1.0E-06
     mixing beta               =       0.5000
     number of iterations used =            8  plain     mixing
     Exchange-correlation= PBE
                           (   1   4   3   4   0   0   0)

     GPU acceleration is ACTIVE.
     GPU-aware MPI enabled

     Message from routine print_cuda_info:
     High GPU oversubscription detected. Are you sure this is what you want?

     celldm(1)=  20.211810  celldm(2)=   0.000000  celldm(3)=   0.000000
     celldm(4)=   0.000000  celldm(5)=   0.000000  celldm(6)=   0.000000

     crystal axes: (cart. coord. in units of alat)
               a(1) = (   1.000000   0.000000   0.000000 )  
               a(2) = (   0.000000   1.000000   0.000000 )  
               a(3) = (   0.000000   0.000000   1.000000 )  

     reciprocal axes: (cart. coord. in units 2 pi/alat)
               b(1) = (  1.000000  0.000000  0.000000 )  
               b(2) = (  0.000000  1.000000  0.000000 )  
               b(3) = (  0.000000  0.000000  1.000000 )  


     PseudoPot. # 1 for Si read from file:
     /home/ppiaggi/pseudos/Si_ONCV_PBE_sr.upf
     MD5 check sum: 8553c464762ac42b85b1eed164b4d029
     Pseudo is Norm-conserving, Zval =  4.0
     Generated using ONCVPSP code by D. R. Hamann
     Using radial grid of 1510 points,  4 beta functions with: 
                l(1) =   0
                l(2) =   0
                l(3) =   1
                l(4) =   1

     atomic species   valence    mass     pseudopotential
        Si             4.00    28.08500     Si( 1.00)

     No symmetry found



   Cartesian axes

     site n.     atom                  positions (alat units)
         1           Si  tau(   1) = (   0.4717380   0.9975140   0.0815540  )
         2           Si  tau(   2) = (   0.8480630   0.8190200   0.2282270  )
         3           Si  tau(   3) = (   0.6077260   0.7632850   0.7380340  )
         4           Si  tau(   4) = (   0.6424960   0.3758580   0.7734930  )
         5           Si  tau(   5) = (   0.4487010   0.5765140   0.8430570  )
         6           Si  tau(   6) = (   0.6509470   0.3958050   0.2620460  )
         7           Si  tau(   7) = (   0.0365303   0.8589630   0.9274270  )
         8           Si  tau(   8) = (   0.9582900   0.8215340   0.5760360  )
         9           Si  tau(   9) = (   0.3742890   0.9716880   0.5194030  )
        10           Si  tau(  10) = (   0.4152020   0.7257590   0.4320670  )
        11           Si  tau(  11) = (   0.9703530   0.5928770   0.3625830  )
        12           Si  tau(  12) = (   0.9713620   0.4010290   0.6277480  )
        13           Si  tau(  13) = (   0.7279620   0.3170900   0.5536400  )
        14           Si  tau(  14) = (   0.4430880   0.9415200   0.8470570  )
        15           Si  tau(  15) = (   0.0769596   0.2458300   0.1247940  )
        16           Si  tau(  16) = (   0.1860120   0.3638630   0.3529350  )
        17           Si  tau(  17) = (   0.3477400   0.4193590   0.6504620  )
        18           Si  tau(  18) = (   0.5411090   0.2103130   0.0412935  )
        19           Si  tau(  19) = (   0.5367780   0.7418820   0.1317410  )
        20           Si  tau(  20) = (   0.5172790   0.5575320   0.5974870  )
        21           Si  tau(  21) = (   0.6540250   0.7733890   0.3177330  )
        22           Si  tau(  22) = (   0.2194580   0.4761770   0.0969613  )
        23           Si  tau(  23) = (   0.1864040   0.5802440   0.4504550  )
        24           Si  tau(  24) = (   0.2535670   0.0998117   0.3414880  )
        25           Si  tau(  25) = (   0.3715710   0.6168610   0.2017860  )
        26           Si  tau(  26) = (   0.2014280   0.3897390   0.8681260  )
        27           Si  tau(  27) = (   0.6614910   0.0731134   0.2008000  )
        28           Si  tau(  28) = (   0.2446850   0.6296460   0.9063860  )
        29           Si  tau(  29) = (   0.8565740   0.6150630   0.5902890  )
        30           Si  tau(  30) = (   0.2604720   0.0129234   0.1162420  )
        31           Si  tau(  31) = (   0.0346145   0.0780329   0.3352480  )
        32           Si  tau(  32) = (   0.0385208   0.1213790   0.9701560  )
        33           Si  tau(  33) = (   0.6855110   0.5678590   0.4343030  )
        34           Si  tau(  34) = (   0.9954170   0.5124200   0.1520270  )
        35           Si  tau(  35) = (   0.1563290   0.2468250   0.5722200  )
        36           Si  tau(  36) = (   0.7390090   0.2373110   0.9316350  )
        37           Si  tau(  37) = (   0.7055930   0.8704620   0.5722020  )
        38           Si  tau(  38) = (   0.4776980   0.1061880   0.7054260  )
        39           Si  tau(  39) = (   0.8538930   0.2705390   0.1650110  )
        40           Si  tau(  40) = (   0.9915360   0.3119320   0.8383050  )
        41           Si  tau(  41) = (   0.2319800   0.8114790   0.3143080  )
        42           Si  tau(  42) = (   0.8731670   0.6988070   0.0192664  )
        43           Si  tau(  43) = (   0.5599250   0.9785630   0.4063480  )
        44           Si  tau(  44) = (   0.8041910   0.9940910   0.9267990  )
        45           Si  tau(  45) = (   0.6428180   0.8116120   0.9359180  )
        46           Si  tau(  46) = (   0.0670820   0.0628345   0.7208060  )
        47           Si  tau(  47) = (   0.3542870   0.8091420   0.6598410  )
        48           Si  tau(  48) = (   0.4097200   0.4586970   0.3586040  )
        49           Si  tau(  49) = (   0.2489750   0.1098770   0.8861200  )
        50           Si  tau(  50) = (   0.1236300   0.7796190   0.7144660  )
        51           Si  tau(  51) = (   0.0128010   0.8303880   0.3765200  )
        52           Si  tau(  52) = (   0.9326540   0.3053520   0.3890230  )
        53           Si  tau(  53) = (   0.8904310   0.0075461   0.1451450  )
        54           Si  tau(  54) = (   0.6135270   0.2213290   0.3863270  )
        55           Si  tau(  55) = (   0.1455390   0.5464940   0.6439210  )
        56           Si  tau(  56) = (   0.8085960   0.4531340   0.0133185  )
        57           Si  tau(  57) = (   0.2343360   0.7999720   0.0863561  )
        58           Si  tau(  58) = (   0.7024700   0.0902519   0.7044750  )
        59           Si  tau(  59) = (   0.4380300   0.2977460   0.8569410  )
        60           Si  tau(  60) = (   0.4066780   0.2327290   0.4902080  )
        61           Si  tau(  61) = (   0.9105730   0.1127600   0.5392320  )
        62           Si  tau(  62) = (   0.5793990   0.4942330   0.0466272  )
        63           Si  tau(  63) = (   0.3302590   0.2806530   0.1525420  )
        64           Si  tau(  64) = (   0.7507360   0.5844580   0.8069000  )

     number of k points=     1
                       cart. coord. in units 2pi/alat
        k(    1) = (   0.0000000   0.0000000   0.0000000), wk =   2.0000000

     Dense  grid:    91626 G-vectors     FFT dimensions: (  72,  72,  72)

     Estimated max dynamical RAM per process >     134.80 MB

     Estimated total dynamical RAM >     516.84 MB

     Initial potential from superposition of free atoms

     starting charge     255.9608, renormalised to     256.0000
     Starting wfcs are  256 randomized atomic wfcs

     total cpu time spent up to now is        4.2 secs

     Self-consistent Calculation

     iteration #  1     ecut=    30.00 Ry     beta= 0.50
     Davidson diagonalization with overlap
     ethr =  1.00E-02,  avg # of iterations =  2.0

     Threshold (ethr) on eigenvalues was too large:
     Diagonalizing with lowered threshold

     Davidson diagonalization with overlap
     ethr =  3.41E-04,  avg # of iterations =  5.0

     total cpu time spent up to now is        4.4 secs

     total energy              =    -501.00442209 Ry
     estimated scf accuracy    <       1.13153426 Ry

     iteration #  2     ecut=    30.00 Ry     beta= 0.50
     Davidson diagonalization with overlap
     ethr =  4.42E-04,  avg # of iterations = 15.0

     total cpu time spent up to now is        4.5 secs

     total energy              =    -500.76911084 Ry
     estimated scf accuracy    <       2.76776114 Ry

     iteration #  3     ecut=    30.00 Ry     beta= 0.50
     Davidson diagonalization with overlap
     ethr =  4.42E-04,  avg # of iterations = 10.0

     total cpu time spent up to now is        4.6 secs

     total energy              =    -501.03040857 Ry
     estimated scf accuracy    <       1.98665884 Ry

     iteration #  4     ecut=    30.00 Ry     beta= 0.50
     Davidson diagonalization with overlap
     ethr =  4.42E-04,  avg # of iterations =  6.0

     total cpu time spent up to now is        4.7 secs

     total energy              =    -501.19555652 Ry
     estimated scf accuracy    <       0.27825309 Ry

     iteration #  5     ecut=    30.00 Ry     beta= 0.50
     Davidson diagonalization with overlap
     ethr =  1.09E-04,  avg # of iterations = 17.0

     total cpu time spent up to now is        4.9 secs

     total energy              =    -501.22079112 Ry
     estimated scf accuracy    <       0.13905931 Ry

     iteration #  6     ecut=    30.00 Ry     beta= 0.50
     Davidson diagonalization with overlap
     ethr =  5.43E-05,  avg # of iterations = 16.0

     total cpu time spent up to now is        5.0 secs

     total energy              =    -501.22954115 Ry
     estimated scf accuracy    <       0.20565876 Ry

     iteration #  7     ecut=    30.00 Ry     beta= 0.50
     Davidson diagonalization with overlap
     ethr =  5.43E-05,  avg # of iterations = 11.0

     total cpu time spent up to now is        5.1 secs

     total energy              =    -501.23940432 Ry
     estimated scf accuracy    <       0.03413749 Ry

     iteration #  8     ecut=    30.00 Ry     beta= 0.50
     Davidson diagonalization with overlap
     ethr =  1.33E-05,  avg # of iterations = 17.0

     total cpu time spent up to now is        5.3 secs

     total energy              =    -501.24548643 Ry
     estimated scf accuracy    <       0.02100828 Ry

     iteration #  9     ecut=    30.00 Ry     beta= 0.50
     Davidson diagonalization with overlap
     ethr =  8.21E-06,  avg # of iterations =  7.0

     total cpu time spent up to now is        5.4 secs

     total energy              =    -501.24638530 Ry
     estimated scf accuracy    <       0.00902892 Ry

     iteration # 10     ecut=    30.00 Ry     beta= 0.50
     Davidson diagonalization with overlap
     c_bands:  1 eigenvalues not converged
     ethr =  3.53E-06,  avg # of iterations = 20.0

     total cpu time spent up to now is        5.6 secs

     total energy              =    -501.24666371 Ry
     estimated scf accuracy    <       0.00722198 Ry

     iteration # 11     ecut=    30.00 Ry     beta= 0.50
     Davidson diagonalization with overlap
     ethr =  2.82E-06,  avg # of iterations =  2.0

     total cpu time spent up to now is        5.6 secs

     total energy              =    -501.24644133 Ry
     estimated scf accuracy    <       0.00344739 Ry

     iteration # 12     ecut=    30.00 Ry     beta= 0.50
     Davidson diagonalization with overlap
     c_bands:  1 eigenvalues not converged
     ethr =  1.35E-06,  avg # of iterations = 20.0

     total cpu time spent up to now is        5.8 secs

     total energy              =    -501.24689401 Ry
     estimated scf accuracy    <       0.00455327 Ry

     iteration # 13     ecut=    30.00 Ry     beta= 0.50
     Davidson diagonalization with overlap
     ethr =  1.35E-06,  avg # of iterations = 17.0

     total cpu time spent up to now is        5.9 secs

     total energy              =    -501.24699301 Ry
     estimated scf accuracy    <       0.00165250 Ry

     iteration # 14     ecut=    30.00 Ry     beta= 0.50
     Davidson diagonalization with overlap
     c_bands:  1 eigenvalues not converged
     ethr =  6.46E-07,  avg # of iterations = 20.0

     total cpu time spent up to now is        6.1 secs

     total energy              =    -501.24708964 Ry
     estimated scf accuracy    <       0.00036927 Ry

     iteration # 15     ecut=    30.00 Ry     beta= 0.50
     Davidson diagonalization with overlap
     ethr =  1.44E-07,  avg # of iterations = 15.0

     total cpu time spent up to now is        6.2 secs

     total energy              =    -501.24714298 Ry
     estimated scf accuracy    <       0.00014521 Ry

     iteration # 16     ecut=    30.00 Ry     beta= 0.50
     Davidson diagonalization with overlap
     ethr =  5.67E-08,  avg # of iterations = 14.0

     total cpu time spent up to now is        6.3 secs

     total energy              =    -501.24715228 Ry
     estimated scf accuracy    <       0.00013331 Ry

     iteration # 17     ecut=    30.00 Ry     beta= 0.50
     Davidson diagonalization with overlap
     ethr =  5.21E-08,  avg # of iterations =  8.0

     total cpu time spent up to now is        6.4 secs

     total energy              =    -501.24715816 Ry
     estimated scf accuracy    <       0.00005659 Ry

     iteration # 18     ecut=    30.00 Ry     beta= 0.50
     Davidson diagonalization with overlap
     ethr =  2.21E-08,  avg # of iterations =  7.0

     total cpu time spent up to now is        6.5 secs

     total energy              =    -501.24715931 Ry
     estimated scf accuracy    <       0.00003397 Ry

     iteration # 19     ecut=    30.00 Ry     beta= 0.50
     Davidson diagonalization with overlap
     c_bands:  1 eigenvalues not converged
     ethr =  1.33E-08,  avg # of iterations = 20.0

     total cpu time spent up to now is        6.7 secs

     total energy              =    -501.24715974 Ry
     estimated scf accuracy    <       0.00001947 Ry

     iteration # 20     ecut=    30.00 Ry     beta= 0.50
     Davidson diagonalization with overlap
     c_bands:  1 eigenvalues not converged
     ethr =  7.61E-09,  avg # of iterations = 20.0

     total cpu time spent up to now is        6.9 secs

     total energy              =    -501.24716149 Ry
     estimated scf accuracy    <       0.00000456 Ry

     iteration # 21     ecut=    30.00 Ry     beta= 0.50
     Davidson diagonalization with overlap
     ethr =  1.78E-09,  avg # of iterations = 17.0

     total cpu time spent up to now is        7.0 secs

     total energy              =    -501.24716198 Ry
     estimated scf accuracy    <       0.00001094 Ry

     iteration # 22     ecut=    30.00 Ry     beta= 0.50
     Davidson diagonalization with overlap
     ethr =  1.78E-09,  avg # of iterations = 14.0

     total cpu time spent up to now is        7.1 secs

     total energy              =    -501.24716227 Ry
     estimated scf accuracy    <       0.00000392 Ry

     iteration # 23     ecut=    30.00 Ry     beta= 0.50
     Davidson diagonalization with overlap
     ethr =  1.53E-09,  avg # of iterations =  3.0

     total cpu time spent up to now is        7.2 secs

     total energy              =    -501.24716239 Ry
     estimated scf accuracy    <       0.00000105 Ry

     iteration # 24     ecut=    30.00 Ry     beta= 0.50
     Davidson diagonalization with overlap
     ethr =  4.10E-10,  avg # of iterations = 19.0

     total cpu time spent up to now is        7.4 secs

     total energy              =    -501.24716258 Ry
     estimated scf accuracy    <       0.00000146 Ry

     iteration # 25     ecut=    30.00 Ry     beta= 0.50
     Davidson diagonalization with overlap
     ethr =  4.10E-10,  avg # of iterations =  3.0

     total cpu time spent up to now is        7.4 secs

     End of self-consistent calculation

          k = 0.0000 0.0000 0.0000 ( 11492 PWs)   bands (ev):

    -5.4310  -4.5536  -4.4511  -4.2868  -4.1780  -4.0800  -4.0108  -3.5869
    -3.4075  -3.3196  -3.2210  -3.1626  -3.1073  -3.0320  -2.9454  -2.8328
    -2.7352  -2.6288  -2.4771  -2.2421  -2.0524  -1.9704  -1.8351  -1.6336
    -1.6029  -1.4893  -1.4762  -1.1277  -0.9834  -0.7178  -0.6543  -0.5110
    -0.4033  -0.3912  -0.2245  -0.1077  -0.0456   0.0330   0.1348   0.1972
     0.2662   0.3407   0.4160   0.5011   0.5652   0.6071   0.8416   0.9441
     0.9998   1.0486   1.0597   1.1047   1.2131   1.3288   1.4597   1.5271
     1.6240   1.6678   1.7270   1.9393   2.0474   2.1732   2.2137   2.3555
     2.4372   2.5278   2.5974   2.6327   2.6679   2.7607   2.8012   2.8786
     3.0100   3.0268   3.1380   3.2128   3.3173   3.4528   3.4976   3.6816
     3.7736   3.9293   4.1069   4.1880   4.2884   4.3710   4.3788   4.5209
     4.6423   4.6444   4.7603   4.7761   4.8232   4.9129   4.9691   5.0475
     5.0992   5.2242   5.2796   5.3736   5.4242   5.4433   5.4661   5.5920
     5.6078   5.6756   5.7018   5.7541   5.7994   5.8662   5.9764   6.0052
     6.0589   6.1039   6.2084   6.2581   6.3808   6.4469   6.4866   6.5585
     6.6133   6.6792   6.7357   6.8353   6.8454   6.9082   6.9321   7.0052

     highest occupied level (ev):     7.0052

!    total energy              =    -501.24716201 Ry
     estimated scf accuracy    <       0.00000072 Ry

     The total energy is the sum of the following terms:
     one-electron contribution =     182.86136881 Ry
     hartree contribution      =      25.33115577 Ry
     xc contribution           =    -150.28942504 Ry
     ewald contribution        =    -559.15026154 Ry

     convergence has been achieved in  25 iterations

     Forces acting on atoms (cartesian axes, Ry/au):

     atom    1 type  1   force =     0.02123456   -0.02908467   -0.01260114
     atom    2 type  1   force =    -0.00409703   -0.04313578   -0.01615511
     atom    3 type  1   force =    -0.04414260   -0.05881943   -0.05516399
     atom    4 type  1   force =     0.00775532    0.02816737   -0.02152054
     atom    5 type  1   force =     0.04110394   -0.02059480   -0.00818211
     atom    6 type  1   force =    -0.00660887    0.03633503   -0.01325324
     atom    7 type  1   force =    -0.00317676   -0.00985013    0.00172161
     atom    8 type  1   force =    -0.07537556   -0.00591608    0.04275660
     atom    9 type  1   force =    -0.00778607    0.03055140   -0.01892287
     atom   10 type  1   force =    -0.02140901    0.00141231    0.00146471
     atom   11 type  1   force =     0.00692268   -0.00584716    0.00208574
     atom   12 type  1   force =     0.01554809    0.01002835   -0.01860597
     atom   13 type  1   force =     0.03834699   -0.01082092    0.01514999
     atom   14 type  1   force =    -0.00785617   -0.01992318    0.01059901
     atom   15 type  1   force =     0.03375538    0.05272358    0.08639781
     atom   16 type  1   force =     0.02814655   -0.00057654    0.00680754
     atom   17 type  1   force =     0.00111709   -0.00800184    0.01333521
     atom   18 type  1   force =     0.00656560    0.02469145    0.01318231
     atom   19 type  1   force =     0.01422310   -0.00199228   -0.04438439
     atom   20 type  1   force =     0.01240264    0.01474620    0.01092791
     atom   21 type  1   force =    -0.02531900    0.00932715    0.01581960
     atom   22 type  1   force =    -0.00574596   -0.00211464   -0.03026191
     atom   23 type  1   force =     0.01525600    0.00841367   -0.09797065
     atom   24 type  1   force =     0.02715396    0.00508131   -0.02010465
     atom   25 type  1   force =    -0.02227203   -0.00571308    0.00485231
     atom   26 type  1   force =     0.01948636    0.02362291    0.01866238
     atom   27 type  1   force =     0.01942309   -0.00400470    0.01095676
     atom   28 type  1   force =    -0.02731505   -0.00533795    0.00635766
     atom   29 type  1   force =    -0.02434849   -0.01932267    0.00566132
     atom   30 type  1   force =    -0.00702900    0.02882190    0.02590626
     atom   31 type  1   force =    -0.03576895    0.00577703    0.00060849
     atom   32 type  1   force =    -0.01622770   -0.07382197   -0.08689161
     atom   33 type  1   force =     0.02845789   -0.01825365    0.01451204
     atom   34 type  1   force =    -0.00784803    0.00521830   -0.02159878
     atom   35 type  1   force =    -0.02266233    0.01859003   -0.01747554
     atom   36 type  1   force =     0.00506753   -0.02202590    0.00885792
     atom   37 type  1   force =     0.03218561    0.05255738    0.00321335
     atom   38 type  1   force =     0.00087582    0.03084496   -0.01572773
     atom   39 type  1   force =    -0.01926500    0.00099688    0.02614391
     atom   40 type  1   force =    -0.01812012   -0.00150912    0.00093728
     atom   41 type  1   force =    -0.00838262   -0.00639023   -0.00093576
     atom   42 type  1   force =     0.02296255    0.00335832    0.00857976
     atom   43 type  1   force =     0.04917121   -0.02450734   -0.00794617
     atom   44 type  1   force =     0.00101311    0.02491284   -0.02271594
     atom   45 type  1   force =     0.01299624    0.02610376    0.06989775
     atom   46 type  1   force =     0.01574389    0.01358542    0.00867040
     atom   47 type  1   force =     0.00165348   -0.01566058    0.02561672
     atom   48 type  1   force =    -0.01658160   -0.02148987   -0.00135451
     atom   49 type  1   force =    -0.00040311   -0.00580278    0.00704302
     atom   50 type  1   force =     0.02394775   -0.02315033    0.04406927
     atom   51 type  1   force =     0.03566438    0.00462303   -0.05299384
     atom   52 type  1   force =    -0.00790785   -0.01031413    0.01380860
     atom   53 type  1   force =    -0.02250428    0.06777878    0.01086643
     atom   54 type  1   force =    -0.04108436   -0.03895749    0.02650542
     atom   55 type  1   force =    -0.00690825   -0.00209345    0.10003554
     atom   56 type  1   force =     0.00344249    0.01852963   -0.02721614
     atom   57 type  1   force =    -0.01797536   -0.01757496   -0.02138529
     atom   58 type  1   force =     0.02550154   -0.01541170   -0.01927760
     atom   59 type  1   force =    -0.01653424   -0.00644123   -0.04617931
     atom   60 type  1   force =    -0.01356089    0.01318327   -0.00324259
     atom   61 type  1   force =     0.00208423    0.00637117    0.00136567
     atom   62 type  1   force =    -0.00318626    0.00903404    0.00832867
     atom   63 type  1   force =    -0.02470566   -0.01061541    0.04287901
     atom   64 type  1   force =     0.01289913   -0.01031150   -0.01251659

     Total force =     0.371613     Total SCF correction =     0.001566


     Computing stress (Cartesian axis) and pressure

          total   stress  (Ry/bohr**3)                   (kbar)     P=      -41.86
  -0.00029246   0.00004003  -0.00003107          -43.02        5.89       -4.57
   0.00004003  -0.00032776  -0.00000023            5.89      -48.21       -0.03
  -0.00003107  -0.00000023  -0.00023344           -4.57       -0.03      -34.34

 
     init_run     :      0.95s CPU      4.13s WALL (       1 calls)
     electrons    :      3.08s CPU      3.25s WALL (       1 calls)
     forces       :      0.03s CPU      0.03s WALL (       1 calls)
     stress       :      0.12s CPU      0.13s WALL (       1 calls)

     Called by init_run:
     wfcinit      :      0.45s CPU      3.48s WALL (       1 calls)
                                        3.48s GPU  (       1 calls)
     potinit      :      0.04s CPU      0.12s WALL (       1 calls)
     hinit0       :      0.45s CPU      0.48s WALL (       1 calls)

     Called by electrons:
     c_bands      :      2.32s CPU      2.41s WALL (      26 calls)
     sum_band     :      0.36s CPU      0.41s WALL (      26 calls)
     v_of_rho     :      0.17s CPU      0.25s WALL (      26 calls)
     mix_rho      :      0.20s CPU      0.21s WALL (      26 calls)

     Called by c_bands:
     init_us_2    :      0.06s CPU      0.07s WALL (      53 calls)
     init_us_2:gp :      0.06s CPU      0.07s WALL (      53 calls)
     regterg      :      2.13s CPU      2.22s WALL (      26 calls)

     Called by *egterg:
     rdiaghg      :      1.15s CPU      1.77s WALL (     350 calls)
                                        1.72s GPU  (     350 calls)
     h_psi        :      1.12s CPU      3.58s WALL (     352 calls)
                                        3.58s GPU  (     352 calls)
     g_psi        :      0.00s CPU      0.01s WALL (     325 calls)
                                        0.01s GPU  (     325 calls)

     Called by h_psi:
     h_psi:calbec :      0.48s CPU      2.87s WALL (     352 calls)
                                        2.86s GPU  (     352 calls)
     vloc_psi     :      0.46s CPU      0.53s WALL (     352 calls)
                                        0.53s GPU  (     352 calls)
     add_vuspsi   :      0.14s CPU      0.17s WALL (     352 calls)
                                        0.17s GPU  (     352 calls)

     General routines
     calbec       :      0.48s CPU      2.87s WALL (     357 calls)
     fft          :      0.58s CPU      0.69s WALL (     215 calls)
                                        0.12s GPU  (     136 calls)
     ffts         :      0.04s CPU      0.04s WALL (      26 calls)
     fftw         :      0.53s CPU      0.69s WALL (    2752 calls)
                                        0.60s GPU  (    2752 calls)
 
     Parallel routines
 
     PWSCF        :      4.22s CPU      7.61s WALL

 
   This run was terminated on:  15:26: 3   9May2023            

=------------------------------------------------------------------------------=
   JOB DONE.
=------------------------------------------------------------------------------=
