An instance of this daemon is already running
An instance of this daemon is already running

     Program PWSCF v.7.1 starts on  9May2023 at 15:27: 6 

     This program is part of the open-source Quantum ESPRESSO suite
     for quantum simulation of materials; please cite
         "P. Giannozzi et al., J. Phys.:Condens. Matter 21 395502 (2009);
         "P. Giannozzi et al., J. Phys.:Condens. Matter 29 465901 (2017);
         "P. Giannozzi et al., J. Chem. Phys. 152 154105 (2020);
          URL http://www.quantum-espresso.org", 
     in publications or presentations arising from this work. More details at
     http://www.quantum-espresso.org/quote

     Parallel version (MPI & OpenMP), running on       4 processor cores
     Number of MPI processes:                 4
     Threads/MPI process:                     1

     MPI processes distributed on     1 nodes
     8228 MiB available memory on the printing compute node when the environment starts
 
     Reading input from pw-si-93.in
Warning: card &CELL ignored
Warning: card / ignored

     Current dimensions of program PWSCF are:
     Max number of different atomic species (ntypx) = 10
     Max number of k-points (npk) =  40000
     Max angular momentum in pseudopotentials (lmaxx) =  4

     IMPORTANT: XC functional enforced from input :
     Exchange-correlation= PBE
                           (   1   4   3   4   0   0   0)
     Any further DFT definition will be discarded
     Please, verify this is what you really want


     gamma-point specific algorithms are used
 
     K-points division:     npool     =       2
     R & G space division:  proc/nbgrp/npool/nimage =       2
     Subspace diagonalization in iterative solution of the eigenvalue problem:
     a serial algorithm will be used

     Message from routine divide_et_impera:
     suboptimal parallelization: some nodes have no k-points
 
     Parallelization info
     --------------------
     sticks:   dense  smooth     PW     G-vecs:    dense   smooth      PW
     Min        1953    1953    519                91863    91863   12442
     Max        1956    1956    522                91868    91868   12443
     Sum        3909    3909   1041               183731   183731   24885
 
     Using Slab Decomposition
 


     bravais-lattice index     =            0
     lattice parameter (alat)  =      20.2293  a.u.
     unit-cell volume          =    8278.3401 (a.u.)^3
     number of atoms/cell      =           64
     number of atomic types    =            1
     number of electrons       =       256.00
     number of Kohn-Sham states=          128
     kinetic-energy cutoff     =      30.0000  Ry
     charge density cutoff     =     120.0000  Ry
     scf convergence threshold =      1.0E-06
     mixing beta               =       0.5000
     number of iterations used =            8  plain     mixing
     Exchange-correlation= PBE
                           (   1   4   3   4   0   0   0)

     GPU acceleration is ACTIVE.
     GPU-aware MPI enabled

     Message from routine print_cuda_info:
     High GPU oversubscription detected. Are you sure this is what you want?

     celldm(1)=  20.229311  celldm(2)=   0.000000  celldm(3)=   0.000000
     celldm(4)=   0.000000  celldm(5)=   0.000000  celldm(6)=   0.000000

     crystal axes: (cart. coord. in units of alat)
               a(1) = (   1.000000   0.000000   0.000000 )  
               a(2) = (   0.000000   1.000000   0.000000 )  
               a(3) = (   0.000000   0.000000   1.000000 )  

     reciprocal axes: (cart. coord. in units 2 pi/alat)
               b(1) = (  1.000000  0.000000  0.000000 )  
               b(2) = (  0.000000  1.000000  0.000000 )  
               b(3) = (  0.000000  0.000000  1.000000 )  


     PseudoPot. # 1 for Si read from file:
     /home/ppiaggi/pseudos/Si_ONCV_PBE_sr.upf
     MD5 check sum: 8553c464762ac42b85b1eed164b4d029
     Pseudo is Norm-conserving, Zval =  4.0
     Generated using ONCVPSP code by D. R. Hamann
     Using radial grid of 1510 points,  4 beta functions with: 
                l(1) =   0
                l(2) =   0
                l(3) =   1
                l(4) =   1

     atomic species   valence    mass     pseudopotential
        Si             4.00    28.08500     Si( 1.00)

     No symmetry found



   Cartesian axes

     site n.     atom                  positions (alat units)
         1           Si  tau(   1) = (   0.6141870   0.9336010   0.2696550  )
         2           Si  tau(   2) = (   0.9644180   0.3378150   0.1985640  )
         3           Si  tau(   3) = (   0.9299890   0.7993250   0.0587173  )
         4           Si  tau(   4) = (   0.4333800   0.7843670   0.3393000  )
         5           Si  tau(   5) = (   0.4924860   0.5396530   0.2512480  )
         6           Si  tau(   6) = (   0.4387850   0.2388040   0.5626970  )
         7           Si  tau(   7) = (   0.2535530   0.9107960   0.0599529  )
         8           Si  tau(   8) = (   0.4496290   0.0296315   0.1133810  )
         9           Si  tau(   9) = (   0.0577369   0.5193520   0.2270030  )
        10           Si  tau(  10) = (   0.4963020   0.7833090   0.6170330  )
        11           Si  tau(  11) = (   0.2485750   0.6554860   0.4081700  )
        12           Si  tau(  12) = (   0.9304420   0.0292328   0.7873050  )
        13           Si  tau(  13) = (   0.9134620   0.7396300   0.5538020  )
        14           Si  tau(  14) = (   0.6216240   0.4735040   0.6235970  )
        15           Si  tau(  15) = (   0.3498720   0.9558950   0.5003640  )
        16           Si  tau(  16) = (   0.3296000   0.6106430   0.6304820  )
        17           Si  tau(  17) = (   0.2539130   0.8214270   0.7451160  )
        18           Si  tau(  18) = (   0.7424620   0.6719060   0.6921300  )
        19           Si  tau(  19) = (   0.7026900   0.0748639   0.0793353  )
        20           Si  tau(  20) = (   0.0854551   0.8720790   0.8848200  )
        21           Si  tau(  21) = (   0.0523843   0.7625070   0.2758480  )
        22           Si  tau(  22) = (   0.8137110   0.3733660   0.5026740  )
        23           Si  tau(  23) = (   0.0858794   0.0895381   0.6184690  )
        24           Si  tau(  24) = (   0.6985450   0.8736880   0.9513030  )
        25           Si  tau(  25) = (   0.5979930   0.6105390   0.4361030  )
        26           Si  tau(  26) = (   0.8166980   0.5717610   0.1156180  )
        27           Si  tau(  27) = (   0.2630810   0.2944700   0.4213280  )
        28           Si  tau(  28) = (   0.1777600   0.5691470   0.0168960  )
        29           Si  tau(  29) = (   0.4298250   0.4206840   0.7090040  )
        30           Si  tau(  30) = (   0.7675900   0.9345090   0.7068010  )
        31           Si  tau(  31) = (   0.8983320   0.1643350   0.9734400  )
        32           Si  tau(  32) = (   0.9247730   0.9864580   0.1917740  )
        33           Si  tau(  33) = (   0.8342140   0.8294980   0.3418870  )
        34           Si  tau(  34) = (   0.4810500   0.6229050   0.0127198  )
        35           Si  tau(  35) = (   0.5635070   0.3121840   0.2127810  )
        36           Si  tau(  36) = (   0.6289050   0.2546960   0.4239260  )
        37           Si  tau(  37) = (   0.8213050   0.5643150   0.3774590  )
        38           Si  tau(  38) = (   0.2626840   0.1900200   0.7477530  )
        39           Si  tau(  39) = (   0.1391200   0.3664680   0.8303250  )
        40           Si  tau(  40) = (   0.7420690   0.3569290   0.0661399  )
        41           Si  tau(  41) = (   0.1027390   0.6422230   0.8295960  )
        42           Si  tau(  42) = (   0.0835147   0.5832970   0.5956950  )
        43           Si  tau(  43) = (   0.8989570   0.3657310   0.8613510  )
        44           Si  tau(  44) = (   0.1406450   0.0464217   0.1683520  )
        45           Si  tau(  45) = (   0.9481990   0.2035320   0.3751870  )
        46           Si  tau(  46) = (   0.1406350   0.8540050   0.5395690  )
        47           Si  tau(  47) = (   0.5331560   0.7672340   0.8349690  )
        48           Si  tau(  48) = (   0.8776450   0.6114470   0.8859950  )
        49           Si  tau(  49) = (   0.8772100   0.0107950   0.4685340  )
        50           Si  tau(  50) = (   0.5557140   0.0187712   0.6949320  )
        51           Si  tau(  51) = (   0.6276800   0.4564110   0.8943050  )
        52           Si  tau(  52) = (   0.0836695   0.3447650   0.5837750  )
        53           Si  tau(  53) = (   0.3772280   0.4073110   0.9428230  )
        54           Si  tau(  54) = (   0.1737270   0.1053820   0.3858090  )
        55           Si  tau(  55) = (   0.5281540   0.1756830   0.9550060  )
        56           Si  tau(  56) = (   0.2717040   0.4381430   0.2526950  )
        57           Si  tau(  57) = (   0.6451670   0.0282676   0.4616390  )
        58           Si  tau(  58) = (   0.1029090   0.2461700   0.0633183  )
        59           Si  tau(  59) = (   0.3780000   0.0165492   0.8557990  )
        60           Si  tau(  60) = (   0.6440060   0.2091980   0.7442770  )
        61           Si  tau(  61) = (   0.6519490   0.7556330   0.1185130  )
        62           Si  tau(  62) = (   0.2844880   0.7253150   0.1592370  )
        63           Si  tau(  63) = (   0.3345650   0.2604400   0.1251330  )
        64           Si  tau(  64) = (   0.8625760   0.2568610   0.6864630  )

     number of k points=     1
                       cart. coord. in units 2pi/alat
        k(    1) = (   0.0000000   0.0000000   0.0000000), wk =   2.0000000

     Dense  grid:    91866 G-vectors     FFT dimensions: (  72,  72,  72)

     Estimated max dynamical RAM per process >     135.10 MB

     Estimated total dynamical RAM >     517.97 MB

     Initial potential from superposition of free atoms

     starting charge     255.9608, renormalised to     256.0000
     Starting wfcs are  256 randomized atomic wfcs

     total cpu time spent up to now is        4.2 secs

     Self-consistent Calculation

     iteration #  1     ecut=    30.00 Ry     beta= 0.50
     Davidson diagonalization with overlap
     ethr =  1.00E-02,  avg # of iterations =  2.0

     Threshold (ethr) on eigenvalues was too large:
     Diagonalizing with lowered threshold

     Davidson diagonalization with overlap
     ethr =  3.77E-04,  avg # of iterations =  5.0

     total cpu time spent up to now is        4.3 secs

     total energy              =    -501.23276939 Ry
     estimated scf accuracy    <       1.16173117 Ry

     iteration #  2     ecut=    30.00 Ry     beta= 0.50
     Davidson diagonalization with overlap
     ethr =  4.54E-04,  avg # of iterations = 11.0

     total cpu time spent up to now is        4.4 secs

     total energy              =    -500.97494802 Ry
     estimated scf accuracy    <       2.85392588 Ry

     iteration #  3     ecut=    30.00 Ry     beta= 0.50
     Davidson diagonalization with overlap
     ethr =  4.54E-04,  avg # of iterations = 11.0

     total cpu time spent up to now is        4.6 secs

     total energy              =    -501.27039182 Ry
     estimated scf accuracy    <       1.81362504 Ry

     iteration #  4     ecut=    30.00 Ry     beta= 0.50
     Davidson diagonalization with overlap
     ethr =  4.54E-04,  avg # of iterations =  8.0

     total cpu time spent up to now is        4.7 secs

     total energy              =    -501.40739451 Ry
     estimated scf accuracy    <       0.35727435 Ry

     iteration #  5     ecut=    30.00 Ry     beta= 0.50
     Davidson diagonalization with overlap
     ethr =  1.40E-04,  avg # of iterations =  6.0

     total cpu time spent up to now is        4.8 secs

     total energy              =    -501.44372693 Ry
     estimated scf accuracy    <       0.10834122 Ry

     iteration #  6     ecut=    30.00 Ry     beta= 0.50
     Davidson diagonalization with overlap
     ethr =  4.23E-05,  avg # of iterations =  8.0

     total cpu time spent up to now is        4.9 secs

     total energy              =    -501.45838496 Ry
     estimated scf accuracy    <       0.08076332 Ry

     iteration #  7     ecut=    30.00 Ry     beta= 0.50
     Davidson diagonalization with overlap
     ethr =  3.15E-05,  avg # of iterations =  3.0

     total cpu time spent up to now is        5.0 secs

     total energy              =    -501.46359414 Ry
     estimated scf accuracy    <       0.01316143 Ry

     iteration #  8     ecut=    30.00 Ry     beta= 0.50
     Davidson diagonalization with overlap
     ethr =  5.14E-06,  avg # of iterations = 14.0

     total cpu time spent up to now is        5.1 secs

     total energy              =    -501.46686083 Ry
     estimated scf accuracy    <       0.01691332 Ry

     iteration #  9     ecut=    30.00 Ry     beta= 0.50
     Davidson diagonalization with overlap
     ethr =  5.14E-06,  avg # of iterations =  6.0

     total cpu time spent up to now is        5.2 secs

     total energy              =    -501.46632941 Ry
     estimated scf accuracy    <       0.00944037 Ry

     iteration # 10     ecut=    30.00 Ry     beta= 0.50
     Davidson diagonalization with overlap
     ethr =  3.69E-06,  avg # of iterations =  3.0

     total cpu time spent up to now is        5.3 secs

     total energy              =    -501.46686159 Ry
     estimated scf accuracy    <       0.00124172 Ry

     iteration # 11     ecut=    30.00 Ry     beta= 0.50
     Davidson diagonalization with overlap
     ethr =  4.85E-07,  avg # of iterations = 20.0

     total cpu time spent up to now is        5.4 secs

     total energy              =    -501.46740957 Ry
     estimated scf accuracy    <       0.00427309 Ry

     iteration # 12     ecut=    30.00 Ry     beta= 0.50
     Davidson diagonalization with overlap
     ethr =  4.85E-07,  avg # of iterations =  2.0

     total cpu time spent up to now is        5.5 secs

     total energy              =    -501.46711729 Ry
     estimated scf accuracy    <       0.00314140 Ry

     iteration # 13     ecut=    30.00 Ry     beta= 0.50
     Davidson diagonalization with overlap
     c_bands:  1 eigenvalues not converged
     ethr =  4.85E-07,  avg # of iterations = 20.0

     total cpu time spent up to now is        5.7 secs

     total energy              =    -501.46721362 Ry
     estimated scf accuracy    <       0.00046073 Ry

     iteration # 14     ecut=    30.00 Ry     beta= 0.50
     Davidson diagonalization with overlap
     ethr =  1.80E-07,  avg # of iterations =  9.0

     total cpu time spent up to now is        5.8 secs

     total energy              =    -501.46730957 Ry
     estimated scf accuracy    <       0.00020874 Ry

     iteration # 15     ecut=    30.00 Ry     beta= 0.50
     Davidson diagonalization with overlap
     ethr =  8.15E-08,  avg # of iterations =  3.0

     total cpu time spent up to now is        5.9 secs

     total energy              =    -501.46730106 Ry
     estimated scf accuracy    <       0.00018181 Ry

     iteration # 16     ecut=    30.00 Ry     beta= 0.50
     Davidson diagonalization with overlap
     ethr =  7.10E-08,  avg # of iterations =  2.0

     total cpu time spent up to now is        6.0 secs

     total energy              =    -501.46730141 Ry
     estimated scf accuracy    <       0.00006554 Ry

     iteration # 17     ecut=    30.00 Ry     beta= 0.50
     Davidson diagonalization with overlap
     ethr =  2.56E-08,  avg # of iterations =  8.0

     total cpu time spent up to now is        6.1 secs

     total energy              =    -501.46731054 Ry
     estimated scf accuracy    <       0.00002025 Ry

     iteration # 18     ecut=    30.00 Ry     beta= 0.50
     Davidson diagonalization with overlap
     c_bands:  1 eigenvalues not converged
     ethr =  7.91E-09,  avg # of iterations = 20.0

     total cpu time spent up to now is        6.2 secs

     total energy              =    -501.46731127 Ry
     estimated scf accuracy    <       0.00000913 Ry

     iteration # 19     ecut=    30.00 Ry     beta= 0.50
     Davidson diagonalization with overlap
     ethr =  3.57E-09,  avg # of iterations =  6.0

     total cpu time spent up to now is        6.3 secs

     total energy              =    -501.46731185 Ry
     estimated scf accuracy    <       0.00000170 Ry

     iteration # 20     ecut=    30.00 Ry     beta= 0.50
     Davidson diagonalization with overlap
     c_bands:  1 eigenvalues not converged
     ethr =  6.62E-10,  avg # of iterations = 20.0

     total cpu time spent up to now is        6.5 secs

     total energy              =    -501.46731215 Ry
     estimated scf accuracy    <       0.00001406 Ry

     iteration # 21     ecut=    30.00 Ry     beta= 0.50
     Davidson diagonalization with overlap
     ethr =  6.62E-10,  avg # of iterations = 10.0

     total cpu time spent up to now is        6.6 secs

     total energy              =    -501.46731197 Ry
     estimated scf accuracy    <       0.00000553 Ry

     iteration # 22     ecut=    30.00 Ry     beta= 0.50
     Davidson diagonalization with overlap
     ethr =  6.62E-10,  avg # of iterations = 10.0

     total cpu time spent up to now is        6.7 secs

     total energy              =    -501.46731227 Ry
     estimated scf accuracy    <       0.00000101 Ry

     iteration # 23     ecut=    30.00 Ry     beta= 0.50
     Davidson diagonalization with overlap
     ethr =  3.94E-10,  avg # of iterations =  3.0

     total cpu time spent up to now is        6.8 secs

     End of self-consistent calculation

          k = 0.0000 0.0000 0.0000 ( 11492 PWs)   bands (ev):

    -5.3904  -4.4422  -4.3601  -4.3050  -4.2806  -4.0606  -4.0188  -3.4853
    -3.3679  -3.3332  -3.2950  -3.2585  -3.0832  -3.0338  -2.9238  -2.8992
    -2.7455  -2.6001  -2.5275  -2.3278  -2.1372  -2.0359  -1.9687  -1.8897
    -1.8399  -1.5288  -1.3217  -1.0179  -0.8973  -0.7951  -0.6898  -0.5902
    -0.4371  -0.3235  -0.2034  -0.1297  -0.1143   0.1211   0.1571   0.2055
     0.2447   0.3236   0.3489   0.4909   0.5135   0.5680   0.6800   0.7466
     0.8716   0.9082   0.9808   1.0474   1.2952   1.3587   1.4355   1.5204
     1.6100   1.6991   1.8229   1.9175   2.0287   2.1120   2.2472   2.3323
     2.4119   2.5222   2.5472   2.5824   2.6331   2.7538   2.8464   2.9423
     3.0093   3.0680   3.1252   3.1839   3.3138   3.3682   3.4522   3.6070
     3.6841   4.0073   4.2236   4.2486   4.2907   4.3708   4.5093   4.5161
     4.5915   4.6182   4.7227   4.8150   4.8511   4.8790   4.9489   5.0560
     5.1045   5.1305   5.1703   5.2376   5.2938   5.3734   5.4283   5.4789
     5.5493   5.6213   5.6630   5.7271   5.7540   5.7947   5.8689   5.9532
     6.0035   6.0199   6.1238   6.1400   6.2005   6.2590   6.3493   6.4368
     6.4749   6.5599   6.6094   6.6371   6.6725   6.8041   6.8594   6.9484

     highest occupied level (ev):     6.9484

!    total energy              =    -501.46731218 Ry
     estimated scf accuracy    <       0.00000021 Ry

     The total energy is the sum of the following terms:
     one-electron contribution =     186.58703738 Ry
     hartree contribution      =      23.19107329 Ry
     xc contribution           =    -150.39669896 Ry
     ewald contribution        =    -560.84872389 Ry

     convergence has been achieved in  23 iterations

     Forces acting on atoms (cartesian axes, Ry/au):

     atom    1 type  1   force =    -0.03201291   -0.03519363   -0.03420701
     atom    2 type  1   force =    -0.05741171   -0.04114321   -0.00024003
     atom    3 type  1   force =     0.00368066   -0.01746191   -0.01773525
     atom    4 type  1   force =     0.00121223    0.02725191    0.01275420
     atom    5 type  1   force =    -0.02843251   -0.03722505   -0.02737026
     atom    6 type  1   force =    -0.01570582   -0.00481468    0.01446632
     atom    7 type  1   force =     0.02711922    0.00872876   -0.07090380
     atom    8 type  1   force =    -0.02042072    0.02138917   -0.01045269
     atom    9 type  1   force =     0.03134230    0.09280253   -0.01923242
     atom   10 type  1   force =    -0.01800291    0.01422262   -0.02261381
     atom   11 type  1   force =    -0.00682548    0.02252709    0.02516102
     atom   12 type  1   force =     0.07480346    0.03567616    0.03904055
     atom   13 type  1   force =    -0.00603880    0.00733804   -0.02257439
     atom   14 type  1   force =     0.04719303    0.03095973   -0.02254354
     atom   15 type  1   force =     0.01069535   -0.02350085   -0.01184891
     atom   16 type  1   force =    -0.01344053    0.02351591    0.00092195
     atom   17 type  1   force =     0.03128937   -0.00405384   -0.03592257
     atom   18 type  1   force =    -0.00889901    0.00601280    0.04400266
     atom   19 type  1   force =     0.02820115   -0.01706520   -0.01472576
     atom   20 type  1   force =    -0.01678468   -0.00643797    0.04130885
     atom   21 type  1   force =     0.00177553   -0.02659165   -0.02206283
     atom   22 type  1   force =    -0.03647740   -0.02470113   -0.00588301
     atom   23 type  1   force =    -0.02231801    0.00031623   -0.00515702
     atom   24 type  1   force =     0.02910980    0.03983997   -0.03985144
     atom   25 type  1   force =    -0.01257806    0.01560482    0.01557362
     atom   26 type  1   force =     0.00032040    0.02814182    0.01116132
     atom   27 type  1   force =    -0.00210307    0.03527773    0.04894829
     atom   28 type  1   force =     0.02799911   -0.03028974    0.04640315
     atom   29 type  1   force =    -0.02170844   -0.00355553    0.02582004
     atom   30 type  1   force =    -0.04599588   -0.05207076   -0.02063728
     atom   31 type  1   force =     0.01069636    0.01172249   -0.01187292
     atom   32 type  1   force =    -0.01230087   -0.01012418    0.00440807
     atom   33 type  1   force =     0.01582155   -0.00515869   -0.01131407
     atom   34 type  1   force =     0.00205790   -0.02456402    0.02072805
     atom   35 type  1   force =    -0.01562500    0.02160838   -0.01327917
     atom   36 type  1   force =     0.00418669   -0.01047191    0.00987645
     atom   37 type  1   force =    -0.00870488    0.02885799    0.00056630
     atom   38 type  1   force =     0.00204842   -0.01316310   -0.02017991
     atom   39 type  1   force =    -0.00006186   -0.00528120    0.01586155
     atom   40 type  1   force =    -0.00237095   -0.00415016    0.01136985
     atom   41 type  1   force =    -0.04724528    0.00186614   -0.03118240
     atom   42 type  1   force =     0.02002294   -0.01616953    0.01936934
     atom   43 type  1   force =     0.00080536    0.03090646    0.04389964
     atom   44 type  1   force =    -0.03401708    0.05247384    0.06184473
     atom   45 type  1   force =     0.03365062    0.00099543    0.00047052
     atom   46 type  1   force =     0.02087885   -0.01077180    0.00071928
     atom   47 type  1   force =     0.00826474    0.00765696    0.01316067
     atom   48 type  1   force =     0.01303254    0.00018096   -0.01452389
     atom   49 type  1   force =    -0.01680986    0.00263106    0.02741166
     atom   50 type  1   force =    -0.03021567   -0.04432676   -0.02822526
     atom   51 type  1   force =    -0.00636576   -0.00149780    0.00809871
     atom   52 type  1   force =     0.00456007   -0.00357215   -0.00699471
     atom   53 type  1   force =    -0.00113796    0.02229001   -0.01224732
     atom   54 type  1   force =    -0.02485123   -0.02652938   -0.01908119
     atom   55 type  1   force =    -0.00041262   -0.01172587   -0.00648676
     atom   56 type  1   force =     0.02272167    0.02722760    0.01985026
     atom   57 type  1   force =     0.01477105    0.02396473    0.02367808
     atom   58 type  1   force =    -0.00629196   -0.03981851   -0.05257303
     atom   59 type  1   force =     0.01189263   -0.02413131   -0.00973085
     atom   60 type  1   force =     0.00399267    0.02370529    0.01684635
     atom   61 type  1   force =    -0.00355181   -0.03104778    0.03137620
     atom   62 type  1   force =     0.01098013   -0.02325592    0.00852169
     atom   63 type  1   force =     0.05786247   -0.01199157   -0.00128342
     atom   64 type  1   force =     0.00213046   -0.02383582   -0.02068247

     Total force =     0.351480     Total SCF correction =     0.000871


     Computing stress (Cartesian axis) and pressure

          total   stress  (Ry/bohr**3)                   (kbar)     P=      -40.03
  -0.00029199   0.00007710   0.00004515          -42.95       11.34        6.64
   0.00007710  -0.00026326  -0.00002056           11.34      -38.73       -3.02
   0.00004515  -0.00002056  -0.00026103            6.64       -3.02      -38.40

 
     init_run     :      0.96s CPU      4.10s WALL (       1 calls)
     electrons    :      2.51s CPU      2.64s WALL (       1 calls)
     forces       :      0.03s CPU      0.03s WALL (       1 calls)
     stress       :      0.12s CPU      0.13s WALL (       1 calls)

     Called by init_run:
     wfcinit      :      0.45s CPU      3.44s WALL (       1 calls)
                                        3.44s GPU  (       1 calls)
     potinit      :      0.03s CPU      0.12s WALL (       1 calls)
     hinit0       :      0.46s CPU      0.48s WALL (       1 calls)

     Called by electrons:
     c_bands      :      1.78s CPU      1.85s WALL (      24 calls)
     sum_band     :      0.35s CPU      0.40s WALL (      24 calls)
     v_of_rho     :      0.16s CPU      0.24s WALL (      24 calls)
     mix_rho      :      0.18s CPU      0.19s WALL (      24 calls)

     Called by c_bands:
     init_us_2    :      0.06s CPU      0.07s WALL (      49 calls)
     init_us_2:gp :      0.06s CPU      0.07s WALL (      49 calls)
     regterg      :      1.60s CPU      1.66s WALL (      24 calls)

     Called by *egterg:
     rdiaghg      :      0.80s CPU      1.40s WALL (     233 calls)
                                        1.37s GPU  (     233 calls)
     h_psi        :      1.00s CPU      3.44s WALL (     235 calls)
                                        3.43s GPU  (     235 calls)
     g_psi        :      0.00s CPU      0.01s WALL (     210 calls)
                                        0.00s GPU  (     210 calls)

     Called by h_psi:
     h_psi:calbec :      0.45s CPU      2.81s WALL (     235 calls)
                                        2.81s GPU  (     235 calls)
     vloc_psi     :      0.42s CPU      0.49s WALL (     235 calls)
                                        0.48s GPU  (     235 calls)
     add_vuspsi   :      0.10s CPU      0.12s WALL (     235 calls)
                                        0.12s GPU  (     235 calls)

     General routines
     calbec       :      0.45s CPU      2.81s WALL (     240 calls)
     fft          :      0.56s CPU      0.67s WALL (     199 calls)
                                        0.11s GPU  (     126 calls)
     ffts         :      0.04s CPU      0.04s WALL (      24 calls)
     fftw         :      0.50s CPU      0.64s WALL (    2378 calls)
                                        0.56s GPU  (    2378 calls)
 
     Parallel routines
 
     PWSCF        :      3.66s CPU      6.97s WALL

 
   This run was terminated on:  15:27:13   9May2023            

=------------------------------------------------------------------------------=
   JOB DONE.
=------------------------------------------------------------------------------=
