An instance of this daemon is already running
An instance of this daemon is already running

     Program PWSCF v.7.1 starts on  9May2023 at 15:17:27 

     This program is part of the open-source Quantum ESPRESSO suite
     for quantum simulation of materials; please cite
         "P. Giannozzi et al., J. Phys.:Condens. Matter 21 395502 (2009);
         "P. Giannozzi et al., J. Phys.:Condens. Matter 29 465901 (2017);
         "P. Giannozzi et al., J. Chem. Phys. 152 154105 (2020);
          URL http://www.quantum-espresso.org", 
     in publications or presentations arising from this work. More details at
     http://www.quantum-espresso.org/quote

     Parallel version (MPI & OpenMP), running on       4 processor cores
     Number of MPI processes:                 4
     Threads/MPI process:                     1

     MPI processes distributed on     1 nodes
     12172 MiB available memory on the printing compute node when the environment starts
 
     Reading input from pw-si-52.in
Warning: card &CELL ignored
Warning: card / ignored

     Current dimensions of program PWSCF are:
     Max number of different atomic species (ntypx) = 10
     Max number of k-points (npk) =  40000
     Max angular momentum in pseudopotentials (lmaxx) =  4

     IMPORTANT: XC functional enforced from input :
     Exchange-correlation= PBE
                           (   1   4   3   4   0   0   0)
     Any further DFT definition will be discarded
     Please, verify this is what you really want


     gamma-point specific algorithms are used
 
     K-points division:     npool     =       2
     R & G space division:  proc/nbgrp/npool/nimage =       2
     Subspace diagonalization in iterative solution of the eigenvalue problem:
     a serial algorithm will be used

     Message from routine divide_et_impera:
     suboptimal parallelization: some nodes have no k-points
 
     Parallelization info
     --------------------
     sticks:   dense  smooth     PW     G-vecs:    dense   smooth      PW
     Min        1933    1933    515                90495    90495   12286
     Max        1936    1936    518                90500    90500   12287
     Sum        3869    3869   1033               180995   180995   24573
 
     Using Slab Decomposition
 


     bravais-lattice index     =            0
     lattice parameter (alat)  =      20.1307  a.u.
     unit-cell volume          =    8157.8654 (a.u.)^3
     number of atoms/cell      =           64
     number of atomic types    =            1
     number of electrons       =       256.00
     number of Kohn-Sham states=          128
     kinetic-energy cutoff     =      30.0000  Ry
     charge density cutoff     =     120.0000  Ry
     scf convergence threshold =      1.0E-06
     mixing beta               =       0.5000
     number of iterations used =            8  plain     mixing
     Exchange-correlation= PBE
                           (   1   4   3   4   0   0   0)

     GPU acceleration is ACTIVE.
     GPU-aware MPI enabled

     Message from routine print_cuda_info:
     High GPU oversubscription detected. Are you sure this is what you want?

     celldm(1)=  20.130698  celldm(2)=   0.000000  celldm(3)=   0.000000
     celldm(4)=   0.000000  celldm(5)=   0.000000  celldm(6)=   0.000000

     crystal axes: (cart. coord. in units of alat)
               a(1) = (   1.000000   0.000000   0.000000 )  
               a(2) = (   0.000000   1.000000   0.000000 )  
               a(3) = (   0.000000   0.000000   1.000000 )  

     reciprocal axes: (cart. coord. in units 2 pi/alat)
               b(1) = (  1.000000  0.000000  0.000000 )  
               b(2) = (  0.000000  1.000000  0.000000 )  
               b(3) = (  0.000000  0.000000  1.000000 )  


     PseudoPot. # 1 for Si read from file:
     /home/ppiaggi/pseudos/Si_ONCV_PBE_sr.upf
     MD5 check sum: 8553c464762ac42b85b1eed164b4d029
     Pseudo is Norm-conserving, Zval =  4.0
     Generated using ONCVPSP code by D. R. Hamann
     Using radial grid of 1510 points,  4 beta functions with: 
                l(1) =   0
                l(2) =   0
                l(3) =   1
                l(4) =   1

     atomic species   valence    mass     pseudopotential
        Si             4.00    28.08500     Si( 1.00)

     No symmetry found



   Cartesian axes

     site n.     atom                  positions (alat units)
         1           Si  tau(   1) = (   0.0935321   0.8289280   0.8811210  )
         2           Si  tau(   2) = (   0.3896450   0.6376680   0.4177180  )
         3           Si  tau(   3) = (   0.5925290   0.5529520   0.0040597  )
         4           Si  tau(   4) = (   0.5927980   0.3475360   0.9862020  )
         5           Si  tau(   5) = (   0.4533810   0.4242610   0.3696730  )
         6           Si  tau(   6) = (   0.0957008   0.3161060   0.0122022  )
         7           Si  tau(   7) = (   0.4324220   0.0107109   0.0534708  )
         8           Si  tau(   8) = (   0.3618000   0.8410790   0.9030410  )
         9           Si  tau(   9) = (   0.7116760   0.3204230   0.7675520  )
        10           Si  tau(  10) = (   0.8074770   0.1669660   0.5233490  )
        11           Si  tau(  11) = (   0.1280510   0.4444580   0.5775810  )
        12           Si  tau(  12) = (   0.8791950   0.3643390   0.9783400  )
        13           Si  tau(  13) = (   0.0006786   0.1283010   0.4484920  )
        14           Si  tau(  14) = (   0.8391740   0.1167680   0.0336693  )
        15           Si  tau(  15) = (   0.6228550   0.5585130   0.2701180  )
        16           Si  tau(  16) = (   0.5965540   0.2021050   0.3948230  )
        17           Si  tau(  17) = (   0.2070230   0.8951040   0.3555480  )
        18           Si  tau(  18) = (   0.9546890   0.4092780   0.2407290  )
        19           Si  tau(  19) = (   0.8338080   0.1420910   0.7456550  )
        20           Si  tau(  20) = (   0.9216760   0.6345240   0.2058520  )
        21           Si  tau(  21) = (   0.5459120   0.9712930   0.2502880  )
        22           Si  tau(  22) = (   0.3629930   0.0386059   0.7023160  )
        23           Si  tau(  23) = (   0.2482600   0.7603880   0.7054470  )
        24           Si  tau(  24) = (   0.5561890   0.5776830   0.5942850  )
        25           Si  tau(  25) = (   0.3297020   0.3154960   0.5191220  )
        26           Si  tau(  26) = (   0.3725970   0.4166040   0.1611180  )
        27           Si  tau(  27) = (   0.4365340   0.8280110   0.5856030  )
        28           Si  tau(  28) = (   0.7652780   0.5943240   0.4191420  )
        29           Si  tau(  29) = (   0.5231050   0.2240260   0.6362420  )
        30           Si  tau(  30) = (   0.0005465   0.8999300   0.1110490  )
        31           Si  tau(  31) = (   0.2196440   0.0773747   0.1657320  )
        32           Si  tau(  32) = (   0.4175170   0.3476660   0.8063100  )
        33           Si  tau(  33) = (   0.4850440   0.7461050   0.2354960  )
        34           Si  tau(  34) = (   0.2015980   0.2136610   0.3592340  )
        35           Si  tau(  35) = (   0.3999950   0.0332523   0.4287360  )
        36           Si  tau(  36) = (   0.7759500   0.0717705   0.2525240  )
        37           Si  tau(  37) = (   0.1644950   0.4040990   0.2507410  )
        38           Si  tau(  38) = (   0.5441160   0.7302500   0.8374350  )
        39           Si  tau(  39) = (   0.8038920   0.8177970   0.9913090  )
        40           Si  tau(  40) = (   0.3587690   0.6665880   0.0653600  )
        41           Si  tau(  41) = (   0.3908380   0.5597320   0.7732800  )
        42           Si  tau(  42) = (   0.7954620   0.8129840   0.4848520  )
        43           Si  tau(  43) = (   0.7268410   0.3287860   0.1883460  )
        44           Si  tau(  44) = (   0.1290730   0.5743710   0.0278371  )
        45           Si  tau(  45) = (   0.2340950   0.2317030   0.7497230  )
        46           Si  tau(  46) = (   0.1773780   0.7240240   0.2032350  )
        47           Si  tau(  47) = (   0.1670680   0.5801150   0.3970480  )
        48           Si  tau(  48) = (   0.0531571   0.7343610   0.5391950  )
        49           Si  tau(  49) = (   0.9212970   0.3882570   0.4779110  )
        50           Si  tau(  50) = (   0.1156060   0.0921544   0.9588420  )
        51           Si  tau(  51) = (   0.8406740   0.5935920   0.9844390  )
        52           Si  tau(  52) = (   0.9596690   0.9356410   0.3560460  )
        53           Si  tau(  53) = (   0.6388310   0.9564930   0.5851870  )
        54           Si  tau(  54) = (   0.3541450   0.2394550   0.0089584  )
        55           Si  tau(  55) = (   0.9952280   0.3226900   0.7665740  )
        56           Si  tau(  56) = (   0.8675210   0.8138780   0.7154900  )
        57           Si  tau(  57) = (   0.1144520   0.5579170   0.7924060  )
        58           Si  tau(  58) = (   0.7775990   0.5218520   0.6642480  )
        59           Si  tau(  59) = (   0.6337850   0.0614641   0.9433790  )
        60           Si  tau(  60) = (   0.0081066   0.9959620   0.7486880  )
        61           Si  tau(  61) = (   0.7490520   0.8263310   0.2256700  )
        62           Si  tau(  62) = (   0.9178690   0.6176770   0.7944280  )
        63           Si  tau(  63) = (   0.6864900   0.9001380   0.7921320  )
        64           Si  tau(  64) = (   0.1511860   0.0123056   0.5932950  )

     number of k points=     1
                       cart. coord. in units 2pi/alat
        k(    1) = (   0.0000000   0.0000000   0.0000000), wk =   2.0000000

     Dense  grid:    90498 G-vectors     FFT dimensions: (  72,  72,  72)

     Estimated max dynamical RAM per process >     133.35 MB

     Estimated total dynamical RAM >     511.33 MB

     Initial potential from superposition of free atoms

     starting charge     255.9608, renormalised to     256.0000
     Starting wfcs are  256 randomized atomic wfcs

     total cpu time spent up to now is        4.1 secs

     Self-consistent Calculation

     iteration #  1     ecut=    30.00 Ry     beta= 0.50
     Davidson diagonalization with overlap
     ethr =  1.00E-02,  avg # of iterations =  2.0

     Threshold (ethr) on eigenvalues was too large:
     Diagonalizing with lowered threshold

     Davidson diagonalization with overlap
     ethr =  3.93E-04,  avg # of iterations =  6.0

     total cpu time spent up to now is        4.3 secs

     total energy              =    -501.00907289 Ry
     estimated scf accuracy    <       1.30198669 Ry

     iteration #  2     ecut=    30.00 Ry     beta= 0.50
     Davidson diagonalization with overlap
     ethr =  5.09E-04,  avg # of iterations = 18.0

     total cpu time spent up to now is        4.5 secs

     total energy              =    -500.66536343 Ry
     estimated scf accuracy    <       4.21443439 Ry

     iteration #  3     ecut=    30.00 Ry     beta= 0.50
     Davidson diagonalization with overlap
     ethr =  5.09E-04,  avg # of iterations = 17.0

     total cpu time spent up to now is        4.6 secs

     total energy              =    -501.03511112 Ry
     estimated scf accuracy    <       2.88030361 Ry

     iteration #  4     ecut=    30.00 Ry     beta= 0.50
     Davidson diagonalization with overlap
     ethr =  5.09E-04,  avg # of iterations = 10.0

     total cpu time spent up to now is        4.7 secs

     total energy              =    -501.24652907 Ry
     estimated scf accuracy    <       0.39506855 Ry

     iteration #  5     ecut=    30.00 Ry     beta= 0.50
     Davidson diagonalization with overlap
     ethr =  1.54E-04,  avg # of iterations = 13.0

     total cpu time spent up to now is        4.9 secs

     total energy              =    -501.27028308 Ry
     estimated scf accuracy    <       0.40535074 Ry

     iteration #  6     ecut=    30.00 Ry     beta= 0.50
     Davidson diagonalization with overlap
     ethr =  1.54E-04,  avg # of iterations = 13.0

     total cpu time spent up to now is        5.0 secs

     total energy              =    -501.31305993 Ry
     estimated scf accuracy    <       0.09361371 Ry

     iteration #  7     ecut=    30.00 Ry     beta= 0.50
     Davidson diagonalization with overlap
     ethr =  3.66E-05,  avg # of iterations = 10.0

     total cpu time spent up to now is        5.1 secs

     total energy              =    -501.31963905 Ry
     estimated scf accuracy    <       0.04196953 Ry

     iteration #  8     ecut=    30.00 Ry     beta= 0.50
     Davidson diagonalization with overlap
     ethr =  1.64E-05,  avg # of iterations =  9.0

     total cpu time spent up to now is        5.2 secs

     total energy              =    -501.32267210 Ry
     estimated scf accuracy    <       0.01784938 Ry

     iteration #  9     ecut=    30.00 Ry     beta= 0.50
     Davidson diagonalization with overlap
     ethr =  6.97E-06,  avg # of iterations =  6.0

     total cpu time spent up to now is        5.3 secs

     total energy              =    -501.32390874 Ry
     estimated scf accuracy    <       0.00274837 Ry

     iteration # 10     ecut=    30.00 Ry     beta= 0.50
     Davidson diagonalization with overlap
     ethr =  1.07E-06,  avg # of iterations = 19.0

     total cpu time spent up to now is        5.5 secs

     total energy              =    -501.32449944 Ry
     estimated scf accuracy    <       0.00711627 Ry

     iteration # 11     ecut=    30.00 Ry     beta= 0.50
     Davidson diagonalization with overlap
     ethr =  1.07E-06,  avg # of iterations = 11.0

     total cpu time spent up to now is        5.6 secs

     total energy              =    -501.32465545 Ry
     estimated scf accuracy    <       0.00300397 Ry

     iteration # 12     ecut=    30.00 Ry     beta= 0.50
     Davidson diagonalization with overlap
     ethr =  1.07E-06,  avg # of iterations = 16.0

     total cpu time spent up to now is        5.7 secs

     total energy              =    -501.32472827 Ry
     estimated scf accuracy    <       0.00061900 Ry

     iteration # 13     ecut=    30.00 Ry     beta= 0.50
     Davidson diagonalization with overlap
     ethr =  2.42E-07,  avg # of iterations = 12.0

     total cpu time spent up to now is        5.9 secs

     total energy              =    -501.32486921 Ry
     estimated scf accuracy    <       0.00044015 Ry

     iteration # 14     ecut=    30.00 Ry     beta= 0.50
     Davidson diagonalization with overlap
     ethr =  1.72E-07,  avg # of iterations =  8.0

     total cpu time spent up to now is        6.0 secs

     total energy              =    -501.32487882 Ry
     estimated scf accuracy    <       0.00049814 Ry

     iteration # 15     ecut=    30.00 Ry     beta= 0.50
     Davidson diagonalization with overlap
     ethr =  1.72E-07,  avg # of iterations =  6.0

     total cpu time spent up to now is        6.1 secs

     total energy              =    -501.32485916 Ry
     estimated scf accuracy    <       0.00036278 Ry

     iteration # 16     ecut=    30.00 Ry     beta= 0.50
     Davidson diagonalization with overlap
     ethr =  1.42E-07,  avg # of iterations =  2.0

     total cpu time spent up to now is        6.1 secs

     total energy              =    -501.32485186 Ry
     estimated scf accuracy    <       0.00016396 Ry

     iteration # 17     ecut=    30.00 Ry     beta= 0.50
     Davidson diagonalization with overlap
     c_bands:  1 eigenvalues not converged
     ethr =  6.40E-08,  avg # of iterations = 20.0

     total cpu time spent up to now is        6.3 secs

     total energy              =    -501.32487643 Ry
     estimated scf accuracy    <       0.00015350 Ry

     iteration # 18     ecut=    30.00 Ry     beta= 0.50
     Davidson diagonalization with overlap
     ethr =  6.00E-08,  avg # of iterations =  6.0

     total cpu time spent up to now is        6.4 secs

     total energy              =    -501.32487709 Ry
     estimated scf accuracy    <       0.00013103 Ry

     iteration # 19     ecut=    30.00 Ry     beta= 0.50
     Davidson diagonalization with overlap
     ethr =  5.12E-08,  avg # of iterations =  1.0

     total cpu time spent up to now is        6.4 secs

     total energy              =    -501.32485848 Ry
     estimated scf accuracy    <       0.00012373 Ry

     iteration # 20     ecut=    30.00 Ry     beta= 0.50
     Davidson diagonalization with overlap
     c_bands:  1 eigenvalues not converged
     ethr =  4.83E-08,  avg # of iterations = 20.0

     total cpu time spent up to now is        6.6 secs

     total energy              =    -501.32487600 Ry
     estimated scf accuracy    <       0.00037570 Ry

     iteration # 21     ecut=    30.00 Ry     beta= 0.50
     Davidson diagonalization with overlap
     ethr =  4.83E-08,  avg # of iterations = 16.0

     total cpu time spent up to now is        6.7 secs

     total energy              =    -501.32488099 Ry
     estimated scf accuracy    <       0.00032659 Ry

     iteration # 22     ecut=    30.00 Ry     beta= 0.50
     Davidson diagonalization with overlap
     ethr =  4.83E-08,  avg # of iterations =  1.0

     total cpu time spent up to now is        6.8 secs

     total energy              =    -501.32487364 Ry
     estimated scf accuracy    <       0.00030328 Ry

     iteration # 23     ecut=    30.00 Ry     beta= 0.50
     Davidson diagonalization with overlap
     ethr =  4.83E-08,  avg # of iterations =  1.0

     total cpu time spent up to now is        6.9 secs

     total energy              =    -501.32487439 Ry
     estimated scf accuracy    <       0.00026539 Ry

     iteration # 24     ecut=    30.00 Ry     beta= 0.50
     Davidson diagonalization with overlap
     ethr =  4.83E-08,  avg # of iterations =  1.0

     total cpu time spent up to now is        6.9 secs

     total energy              =    -501.32486417 Ry
     estimated scf accuracy    <       0.00025891 Ry

     iteration # 25     ecut=    30.00 Ry     beta= 0.50
     Davidson diagonalization with overlap
     ethr =  4.83E-08,  avg # of iterations =  1.0

     total cpu time spent up to now is        7.0 secs

     total energy              =    -501.32484030 Ry
     estimated scf accuracy    <       0.00021013 Ry

     iteration # 26     ecut=    30.00 Ry     beta= 0.50
     Davidson diagonalization with overlap
     c_bands:  1 eigenvalues not converged
     ethr =  4.83E-08,  avg # of iterations = 20.0

     total cpu time spent up to now is        7.1 secs

     total energy              =    -501.32487990 Ry
     estimated scf accuracy    <       0.00069345 Ry

     iteration # 27     ecut=    30.00 Ry     beta= 0.50
     Davidson diagonalization with overlap
     c_bands:  1 eigenvalues not converged
     ethr =  4.83E-08,  avg # of iterations = 20.0

     total cpu time spent up to now is        7.3 secs

     total energy              =    -501.32489434 Ry
     estimated scf accuracy    <       0.00058574 Ry

     iteration # 28     ecut=    30.00 Ry     beta= 0.50
     Davidson diagonalization with overlap
     ethr =  4.83E-08,  avg # of iterations =  2.0

     total cpu time spent up to now is        7.4 secs

     total energy              =    -501.32486943 Ry
     estimated scf accuracy    <       0.00057401 Ry

     iteration # 29     ecut=    30.00 Ry     beta= 0.50
     Davidson diagonalization with overlap
     ethr =  4.83E-08,  avg # of iterations =  1.0

     total cpu time spent up to now is        7.4 secs

     total energy              =    -501.32485999 Ry
     estimated scf accuracy    <       0.00047720 Ry

     iteration # 30     ecut=    30.00 Ry     beta= 0.50
     Davidson diagonalization with overlap
     ethr =  4.83E-08,  avg # of iterations =  2.0

     total cpu time spent up to now is        7.5 secs

     total energy              =    -501.32485705 Ry
     estimated scf accuracy    <       0.00042558 Ry

     iteration # 31     ecut=    30.00 Ry     beta= 0.50
     Davidson diagonalization with overlap
     ethr =  4.83E-08,  avg # of iterations =  1.0

     total cpu time spent up to now is        7.6 secs

     total energy              =    -501.32485111 Ry
     estimated scf accuracy    <       0.00039982 Ry

     iteration # 32     ecut=    30.00 Ry     beta= 0.50
     Davidson diagonalization with overlap
     ethr =  4.83E-08,  avg # of iterations =  1.0

     total cpu time spent up to now is        7.6 secs

     total energy              =    -501.32484446 Ry
     estimated scf accuracy    <       0.00036568 Ry

     iteration # 33     ecut=    30.00 Ry     beta= 0.50
     Davidson diagonalization with overlap
     c_bands:  1 eigenvalues not converged
     ethr =  4.83E-08,  avg # of iterations = 20.0

     total cpu time spent up to now is        7.8 secs

     total energy              =    -501.32488762 Ry
     estimated scf accuracy    <       0.00014122 Ry

     iteration # 34     ecut=    30.00 Ry     beta= 0.50
     Davidson diagonalization with overlap
     c_bands:  1 eigenvalues not converged
     ethr =  4.83E-08,  avg # of iterations = 20.0

     total cpu time spent up to now is        7.9 secs

     total energy              =    -501.32490055 Ry
     estimated scf accuracy    <       0.00024424 Ry

     iteration # 35     ecut=    30.00 Ry     beta= 0.50
     Davidson diagonalization with overlap
     ethr =  4.83E-08,  avg # of iterations =  2.0

     total cpu time spent up to now is        8.0 secs

     total energy              =    -501.32487575 Ry
     estimated scf accuracy    <       0.00026677 Ry

     iteration # 36     ecut=    30.00 Ry     beta= 0.50
     Davidson diagonalization with overlap
     ethr =  4.83E-08,  avg # of iterations =  1.0

     total cpu time spent up to now is        8.1 secs

     total energy              =    -501.32487500 Ry
     estimated scf accuracy    <       0.00019153 Ry

     iteration # 37     ecut=    30.00 Ry     beta= 0.50
     Davidson diagonalization with overlap
     ethr =  4.83E-08,  avg # of iterations =  1.0

     total cpu time spent up to now is        8.1 secs

     total energy              =    -501.32487565 Ry
     estimated scf accuracy    <       0.00017505 Ry

     iteration # 38     ecut=    30.00 Ry     beta= 0.50
     Davidson diagonalization with overlap
     ethr =  4.83E-08,  avg # of iterations =  1.0

     total cpu time spent up to now is        8.2 secs

     total energy              =    -501.32487555 Ry
     estimated scf accuracy    <       0.00016724 Ry

     iteration # 39     ecut=    30.00 Ry     beta= 0.50
     Davidson diagonalization with overlap
     ethr =  4.83E-08,  avg # of iterations =  1.0

     total cpu time spent up to now is        8.2 secs

     total energy              =    -501.32487473 Ry
     estimated scf accuracy    <       0.00015717 Ry

     iteration # 40     ecut=    30.00 Ry     beta= 0.50
     Davidson diagonalization with overlap
     ethr =  4.83E-08,  avg # of iterations =  1.0

     total cpu time spent up to now is        8.3 secs

     total energy              =    -501.32487191 Ry
     estimated scf accuracy    <       0.00015001 Ry

     iteration # 41     ecut=    30.00 Ry     beta= 0.50
     Davidson diagonalization with overlap
     ethr =  4.83E-08,  avg # of iterations =  1.0

     total cpu time spent up to now is        8.4 secs

     total energy              =    -501.32482185 Ry
     estimated scf accuracy    <       0.00013637 Ry

     iteration # 42     ecut=    30.00 Ry     beta= 0.50
     Davidson diagonalization with overlap
     c_bands:  1 eigenvalues not converged
     ethr =  4.83E-08,  avg # of iterations = 20.0

     total cpu time spent up to now is        8.6 secs

     total energy              =    -501.32487309 Ry
     estimated scf accuracy    <       0.00636625 Ry

     iteration # 43     ecut=    30.00 Ry     beta= 0.50
     Davidson diagonalization with overlap
     c_bands:  1 eigenvalues not converged
     ethr =  4.83E-08,  avg # of iterations = 20.0

     total cpu time spent up to now is        8.7 secs

     total energy              =    -501.32486386 Ry
     estimated scf accuracy    <       0.00496471 Ry

     iteration # 44     ecut=    30.00 Ry     beta= 0.50
     Davidson diagonalization with overlap
     c_bands:  1 eigenvalues not converged
     ethr =  4.83E-08,  avg # of iterations = 20.0

     total cpu time spent up to now is        8.9 secs

     total energy              =    -501.32479536 Ry
     estimated scf accuracy    <       0.00292139 Ry

     iteration # 45     ecut=    30.00 Ry     beta= 0.50
     Davidson diagonalization with overlap
     c_bands:  1 eigenvalues not converged
     ethr =  4.83E-08,  avg # of iterations = 20.0

     total cpu time spent up to now is        9.0 secs

     total energy              =    -501.32481592 Ry
     estimated scf accuracy    <       0.00163917 Ry

     iteration # 46     ecut=    30.00 Ry     beta= 0.50
     Davidson diagonalization with overlap
     c_bands:  1 eigenvalues not converged
     ethr =  4.83E-08,  avg # of iterations = 20.0

     total cpu time spent up to now is        9.1 secs

     total energy              =    -501.32482584 Ry
     estimated scf accuracy    <       0.00101854 Ry

     iteration # 47     ecut=    30.00 Ry     beta= 0.50
     Davidson diagonalization with overlap
     c_bands:  1 eigenvalues not converged
     ethr =  4.83E-08,  avg # of iterations = 20.0

     total cpu time spent up to now is        9.3 secs

     total energy              =    -501.32485240 Ry
     estimated scf accuracy    <       0.00047506 Ry

     iteration # 48     ecut=    30.00 Ry     beta= 0.50
     Davidson diagonalization with overlap
     c_bands:  1 eigenvalues not converged
     ethr =  4.83E-08,  avg # of iterations = 20.0

     total cpu time spent up to now is        9.4 secs

     total energy              =    -501.32486491 Ry
     estimated scf accuracy    <       0.00034857 Ry

     iteration # 49     ecut=    30.00 Ry     beta= 0.50
     Davidson diagonalization with overlap
     c_bands:  1 eigenvalues not converged
     ethr =  4.83E-08,  avg # of iterations = 20.0

     total cpu time spent up to now is        9.6 secs

     total energy              =    -501.32487325 Ry
     estimated scf accuracy    <       0.00018379 Ry

     iteration # 50     ecut=    30.00 Ry     beta= 0.50
     Davidson diagonalization with overlap
     ethr =  4.83E-08,  avg # of iterations = 12.0

     total cpu time spent up to now is        9.7 secs

     total energy              =    -501.32488259 Ry
     estimated scf accuracy    <       0.00018261 Ry

     iteration # 51     ecut=    30.00 Ry     beta= 0.50
     Davidson diagonalization with overlap
     ethr =  4.83E-08,  avg # of iterations =  1.0

     total cpu time spent up to now is        9.8 secs

     total energy              =    -501.32488691 Ry
     estimated scf accuracy    <       0.00023160 Ry

     iteration # 52     ecut=    30.00 Ry     beta= 0.50
     Davidson diagonalization with overlap
     ethr =  4.83E-08,  avg # of iterations =  1.0

     total cpu time spent up to now is        9.8 secs

     total energy              =    -501.32489958 Ry
     estimated scf accuracy    <       0.00024402 Ry

     iteration # 53     ecut=    30.00 Ry     beta= 0.50
     Davidson diagonalization with overlap
     ethr =  4.83E-08,  avg # of iterations =  1.0

     total cpu time spent up to now is        9.9 secs

     total energy              =    -501.32491107 Ry
     estimated scf accuracy    <       0.00030021 Ry

     iteration # 54     ecut=    30.00 Ry     beta= 0.50
     Davidson diagonalization with overlap
     ethr =  4.83E-08,  avg # of iterations =  2.0

     total cpu time spent up to now is       10.0 secs

     total energy              =    -501.32492638 Ry
     estimated scf accuracy    <       0.00034925 Ry

     iteration # 55     ecut=    30.00 Ry     beta= 0.50
     Davidson diagonalization with overlap
     c_bands:  1 eigenvalues not converged
     ethr =  4.83E-08,  avg # of iterations = 20.0

     total cpu time spent up to now is       10.1 secs

     total energy              =    -501.32493318 Ry
     estimated scf accuracy    <       0.00373364 Ry

     iteration # 56     ecut=    30.00 Ry     beta= 0.50
     Davidson diagonalization with overlap
     ethr =  4.83E-08,  avg # of iterations = 17.0

     total cpu time spent up to now is       10.2 secs

     total energy              =    -501.32497343 Ry
     estimated scf accuracy    <       0.00355433 Ry

     iteration # 57     ecut=    30.00 Ry     beta= 0.50
     Davidson diagonalization with overlap
     ethr =  4.83E-08,  avg # of iterations =  1.0

     total cpu time spent up to now is       10.3 secs

     total energy              =    -501.32485921 Ry
     estimated scf accuracy    <       0.00365575 Ry

     iteration # 58     ecut=    30.00 Ry     beta= 0.50
     Davidson diagonalization with overlap
     c_bands:  1 eigenvalues not converged
     ethr =  4.83E-08,  avg # of iterations = 20.0

     total cpu time spent up to now is       10.5 secs

     total energy              =    -501.32488075 Ry
     estimated scf accuracy    <       0.00273503 Ry

     iteration # 59     ecut=    30.00 Ry     beta= 0.50
     Davidson diagonalization with overlap
     ethr =  4.83E-08,  avg # of iterations = 13.0

     total cpu time spent up to now is       10.6 secs

     total energy              =    -501.32483476 Ry
     estimated scf accuracy    <       0.00259971 Ry

     iteration # 60     ecut=    30.00 Ry     beta= 0.50
     Davidson diagonalization with overlap
     c_bands:  1 eigenvalues not converged
     ethr =  4.83E-08,  avg # of iterations = 20.0

     total cpu time spent up to now is       10.7 secs

     total energy              =    -501.32484822 Ry
     estimated scf accuracy    <       0.00076683 Ry

     iteration # 61     ecut=    30.00 Ry     beta= 0.50
     Davidson diagonalization with overlap
     c_bands:  1 eigenvalues not converged
     ethr =  4.83E-08,  avg # of iterations = 20.0

     total cpu time spent up to now is       10.9 secs

     total energy              =    -501.32487669 Ry
     estimated scf accuracy    <       0.00054943 Ry

     iteration # 62     ecut=    30.00 Ry     beta= 0.50
     Davidson diagonalization with overlap
     ethr =  4.83E-08,  avg # of iterations = 11.0

     total cpu time spent up to now is       11.0 secs

     total energy              =    -501.32487472 Ry
     estimated scf accuracy    <       0.00057978 Ry

     iteration # 63     ecut=    30.00 Ry     beta= 0.50
     Davidson diagonalization with overlap
     ethr =  4.83E-08,  avg # of iterations =  1.0

     total cpu time spent up to now is       11.1 secs

     total energy              =    -501.32482984 Ry
     estimated scf accuracy    <       0.00055928 Ry

     iteration # 64     ecut=    30.00 Ry     beta= 0.50
     Davidson diagonalization with overlap
     c_bands:  1 eigenvalues not converged
     ethr =  4.83E-08,  avg # of iterations = 20.0

     total cpu time spent up to now is       11.2 secs

     total energy              =    -501.32487722 Ry
     estimated scf accuracy    <       0.00068622 Ry

     iteration # 65     ecut=    30.00 Ry     beta= 0.50
     Davidson diagonalization with overlap
     ethr =  4.83E-08,  avg # of iterations = 18.0

     total cpu time spent up to now is       11.3 secs

     total energy              =    -501.32489657 Ry
     estimated scf accuracy    <       0.00065344 Ry

     iteration # 66     ecut=    30.00 Ry     beta= 0.50
     Davidson diagonalization with overlap
     ethr =  4.83E-08,  avg # of iterations =  1.0

     total cpu time spent up to now is       11.4 secs

     total energy              =    -501.32488494 Ry
     estimated scf accuracy    <       0.00062864 Ry

     iteration # 67     ecut=    30.00 Ry     beta= 0.50
     Davidson diagonalization with overlap
     ethr =  4.83E-08,  avg # of iterations =  2.0

     total cpu time spent up to now is       11.5 secs

     total energy              =    -501.32487797 Ry
     estimated scf accuracy    <       0.00057008 Ry

     iteration # 68     ecut=    30.00 Ry     beta= 0.50
     Davidson diagonalization with overlap
     ethr =  4.83E-08,  avg # of iterations =  1.0

     total cpu time spent up to now is       11.5 secs

     total energy              =    -501.32483571 Ry
     estimated scf accuracy    <       0.00053219 Ry

     iteration # 69     ecut=    30.00 Ry     beta= 0.50
     Davidson diagonalization with overlap
     c_bands:  1 eigenvalues not converged
     ethr =  4.83E-08,  avg # of iterations = 20.0

     total cpu time spent up to now is       11.7 secs

     total energy              =    -501.32482751 Ry
     estimated scf accuracy    <       0.00062246 Ry

     iteration # 70     ecut=    30.00 Ry     beta= 0.50
     Davidson diagonalization with overlap
     c_bands:  1 eigenvalues not converged
     ethr =  4.83E-08,  avg # of iterations = 20.0

     total cpu time spent up to now is       11.9 secs

     total energy              =    -501.32486150 Ry
     estimated scf accuracy    <       0.00008023 Ry

     iteration # 71     ecut=    30.00 Ry     beta= 0.50
     Davidson diagonalization with overlap
     c_bands:  1 eigenvalues not converged
     ethr =  3.13E-08,  avg # of iterations = 20.0

     total cpu time spent up to now is       12.0 secs

     total energy              =    -501.32487621 Ry
     estimated scf accuracy    <       0.00002806 Ry

     iteration # 72     ecut=    30.00 Ry     beta= 0.50
     Davidson diagonalization with overlap
     c_bands:  1 eigenvalues not converged
     ethr =  1.10E-08,  avg # of iterations = 20.0

     total cpu time spent up to now is       12.2 secs

     total energy              =    -501.32488108 Ry
     estimated scf accuracy    <       0.00006541 Ry

     iteration # 73     ecut=    30.00 Ry     beta= 0.50
     Davidson diagonalization with overlap
     c_bands:  1 eigenvalues not converged
     ethr =  1.10E-08,  avg # of iterations = 20.0

     total cpu time spent up to now is       12.4 secs

     total energy              =    -501.32487242 Ry
     estimated scf accuracy    <       0.00015154 Ry

     iteration # 74     ecut=    30.00 Ry     beta= 0.50
     Davidson diagonalization with overlap
     ethr =  1.10E-08,  avg # of iterations = 15.0

     total cpu time spent up to now is       12.5 secs

     total energy              =    -501.32487829 Ry
     estimated scf accuracy    <       0.00006598 Ry

     iteration # 75     ecut=    30.00 Ry     beta= 0.50
     Davidson diagonalization with overlap
     ethr =  1.10E-08,  avg # of iterations =  3.0

     total cpu time spent up to now is       12.6 secs

     total energy              =    -501.32487886 Ry
     estimated scf accuracy    <       0.00005039 Ry

     iteration # 76     ecut=    30.00 Ry     beta= 0.50
     Davidson diagonalization with overlap
     ethr =  1.10E-08,  avg # of iterations =  2.0

     total cpu time spent up to now is       12.7 secs

     total energy              =    -501.32487820 Ry
     estimated scf accuracy    <       0.00004747 Ry

     iteration # 77     ecut=    30.00 Ry     beta= 0.50
     Davidson diagonalization with overlap
     ethr =  1.10E-08,  avg # of iterations =  1.0

     total cpu time spent up to now is       12.7 secs

     total energy              =    -501.32486850 Ry
     estimated scf accuracy    <       0.00004391 Ry

     iteration # 78     ecut=    30.00 Ry     beta= 0.50
     Davidson diagonalization with overlap
     c_bands:  1 eigenvalues not converged
     ethr =  1.10E-08,  avg # of iterations = 20.0

     total cpu time spent up to now is       12.9 secs

     total energy              =    -501.32484458 Ry
     estimated scf accuracy    <       0.00125156 Ry

     iteration # 79     ecut=    30.00 Ry     beta= 0.50
     Davidson diagonalization with overlap
     c_bands:  1 eigenvalues not converged
     ethr =  1.10E-08,  avg # of iterations = 20.0

     total cpu time spent up to now is       13.1 secs

     total energy              =    -501.32486524 Ry
     estimated scf accuracy    <       0.00054291 Ry

     iteration # 80     ecut=    30.00 Ry     beta= 0.50
     Davidson diagonalization with overlap
     c_bands:  1 eigenvalues not converged
     ethr =  1.10E-08,  avg # of iterations = 20.0

     total cpu time spent up to now is       13.2 secs

     total energy              =    -501.32486963 Ry
     estimated scf accuracy    <       0.00032273 Ry

     iteration # 81     ecut=    30.00 Ry     beta= 0.50
     Davidson diagonalization with overlap
     c_bands:  1 eigenvalues not converged
     ethr =  1.10E-08,  avg # of iterations = 20.0

     total cpu time spent up to now is       13.4 secs

     total energy              =    -501.32486774 Ry
     estimated scf accuracy    <       0.00022579 Ry

     iteration # 82     ecut=    30.00 Ry     beta= 0.50
     Davidson diagonalization with overlap
     c_bands:  1 eigenvalues not converged
     ethr =  1.10E-08,  avg # of iterations = 20.0

     total cpu time spent up to now is       13.5 secs

     total energy              =    -501.32487240 Ry
     estimated scf accuracy    <       0.00007062 Ry

     iteration # 83     ecut=    30.00 Ry     beta= 0.50
     Davidson diagonalization with overlap
     c_bands:  1 eigenvalues not converged
     ethr =  1.10E-08,  avg # of iterations = 20.0

     total cpu time spent up to now is       13.7 secs

     total energy              =    -501.32487535 Ry
     estimated scf accuracy    <       0.00003960 Ry

     iteration # 84     ecut=    30.00 Ry     beta= 0.50
     Davidson diagonalization with overlap
     c_bands:  1 eigenvalues not converged
     ethr =  1.10E-08,  avg # of iterations = 20.0

     total cpu time spent up to now is       13.8 secs

     total energy              =    -501.32487700 Ry
     estimated scf accuracy    <       0.00001067 Ry

     iteration # 85     ecut=    30.00 Ry     beta= 0.50
     Davidson diagonalization with overlap
     c_bands:  1 eigenvalues not converged
     ethr =  4.17E-09,  avg # of iterations = 20.0

     total cpu time spent up to now is       13.9 secs

     total energy              =    -501.32487826 Ry
     estimated scf accuracy    <       0.00000472 Ry

     iteration # 86     ecut=    30.00 Ry     beta= 0.50
     Davidson diagonalization with overlap
     ethr =  1.84E-09,  avg # of iterations = 18.0

     total cpu time spent up to now is       14.1 secs

     total energy              =    -501.32487856 Ry
     estimated scf accuracy    <       0.00000499 Ry

     iteration # 87     ecut=    30.00 Ry     beta= 0.50
     Davidson diagonalization with overlap
     ethr =  1.84E-09,  avg # of iterations =  3.0

     total cpu time spent up to now is       14.2 secs

     total energy              =    -501.32487834 Ry
     estimated scf accuracy    <       0.00000618 Ry

     iteration # 88     ecut=    30.00 Ry     beta= 0.50
     Davidson diagonalization with overlap
     ethr =  1.84E-09,  avg # of iterations =  1.0

     total cpu time spent up to now is       14.2 secs

     total energy              =    -501.32487737 Ry
     estimated scf accuracy    <       0.00000437 Ry

     iteration # 89     ecut=    30.00 Ry     beta= 0.50
     Davidson diagonalization with overlap
     c_bands:  1 eigenvalues not converged
     ethr =  1.71E-09,  avg # of iterations = 20.0

     total cpu time spent up to now is       14.4 secs

     total energy              =    -501.32487929 Ry
     estimated scf accuracy    <       0.00005181 Ry

     iteration # 90     ecut=    30.00 Ry     beta= 0.50
     Davidson diagonalization with overlap
     c_bands:  1 eigenvalues not converged
     ethr =  1.71E-09,  avg # of iterations = 20.0

     total cpu time spent up to now is       14.6 secs

     total energy              =    -501.32487931 Ry
     estimated scf accuracy    <       0.00004790 Ry

     iteration # 91     ecut=    30.00 Ry     beta= 0.50
     Davidson diagonalization with overlap
     ethr =  1.71E-09,  avg # of iterations =  2.0

     total cpu time spent up to now is       14.6 secs

     total energy              =    -501.32487942 Ry
     estimated scf accuracy    <       0.00004408 Ry

     iteration # 92     ecut=    30.00 Ry     beta= 0.50
     Davidson diagonalization with overlap
     ethr =  1.71E-09,  avg # of iterations =  1.0

     total cpu time spent up to now is       14.7 secs

     total energy              =    -501.32487963 Ry
     estimated scf accuracy    <       0.00004370 Ry

     iteration # 93     ecut=    30.00 Ry     beta= 0.50
     Davidson diagonalization with overlap
     ethr =  1.71E-09,  avg # of iterations =  1.0

     total cpu time spent up to now is       14.8 secs

     total energy              =    -501.32488007 Ry
     estimated scf accuracy    <       0.00004352 Ry

     iteration # 94     ecut=    30.00 Ry     beta= 0.50
     Davidson diagonalization with overlap
     ethr =  1.71E-09,  avg # of iterations =  3.0

     total cpu time spent up to now is       14.8 secs

     total energy              =    -501.32487915 Ry
     estimated scf accuracy    <       0.00004656 Ry

     iteration # 95     ecut=    30.00 Ry     beta= 0.50
     Davidson diagonalization with overlap
     ethr =  1.71E-09,  avg # of iterations =  3.0

     total cpu time spent up to now is       14.9 secs

     total energy              =    -501.32487892 Ry
     estimated scf accuracy    <       0.00004568 Ry

     iteration # 96     ecut=    30.00 Ry     beta= 0.50
     Davidson diagonalization with overlap
     ethr =  1.71E-09,  avg # of iterations =  3.0

     total cpu time spent up to now is       15.0 secs

     total energy              =    -501.32487856 Ry
     estimated scf accuracy    <       0.00004332 Ry

     iteration # 97     ecut=    30.00 Ry     beta= 0.50
     Davidson diagonalization with overlap
     ethr =  1.71E-09,  avg # of iterations =  2.0

     total cpu time spent up to now is       15.1 secs

     total energy              =    -501.32486156 Ry
     estimated scf accuracy    <       0.00004043 Ry

     iteration # 98     ecut=    30.00 Ry     beta= 0.50
     Davidson diagonalization with overlap
     c_bands:  1 eigenvalues not converged
     ethr =  1.71E-09,  avg # of iterations = 20.0

     total cpu time spent up to now is       15.3 secs

     total energy              =    -501.32487156 Ry
     estimated scf accuracy    <       0.00076079 Ry

     iteration # 99     ecut=    30.00 Ry     beta= 0.50
     Davidson diagonalization with overlap
     c_bands:  1 eigenvalues not converged
     ethr =  1.71E-09,  avg # of iterations = 20.0

     total cpu time spent up to now is       15.4 secs

     total energy              =    -501.32486716 Ry
     estimated scf accuracy    <       0.00033983 Ry

     iteration #100     ecut=    30.00 Ry     beta= 0.50
     Davidson diagonalization with overlap
     c_bands:  1 eigenvalues not converged
     ethr =  1.71E-09,  avg # of iterations = 20.0

     total cpu time spent up to now is       15.6 secs

     total energy              =    -501.32487267 Ry
     estimated scf accuracy    <       0.00013596 Ry

     End of self-consistent calculation

     convergence NOT achieved after 100 iterations: stopping

     Writing config to output data dir ./pwscf.save/
     Message from routine punch:
     wavefunctions written to file
 
     init_run     :      0.94s CPU      4.06s WALL (       1 calls)
     electrons    :     10.86s CPU     11.49s WALL (       1 calls)

     Called by init_run:
     wfcinit      :      0.44s CPU      3.41s WALL (       1 calls)
                                        3.41s GPU  (       1 calls)
     potinit      :      0.03s CPU      0.12s WALL (       1 calls)
     hinit0       :      0.45s CPU      0.48s WALL (       1 calls)

     Called by electrons:
     c_bands      :      7.84s CPU      8.18s WALL (     101 calls)
     sum_band     :      1.37s CPU      1.58s WALL (     101 calls)
     v_of_rho     :      0.55s CPU      0.66s WALL (     101 calls)
     mix_rho      :      0.88s CPU      0.91s WALL (     101 calls)

     Called by c_bands:
     init_us_2    :      0.25s CPU      0.27s WALL (     203 calls)
     init_us_2:gp :      0.24s CPU      0.27s WALL (     203 calls)
     regterg      :      7.14s CPU      7.45s WALL (     101 calls)

     Called by *egterg:
     rdiaghg      :      3.69s CPU      4.39s WALL (    1200 calls)
                                        4.22s GPU  (    1200 calls)
     h_psi        :      2.94s CPU      5.47s WALL (    1202 calls)
                                        5.45s GPU  (    1202 calls)
     g_psi        :      0.00s CPU      0.02s WALL (    1100 calls)
                                        0.02s GPU  (    1100 calls)

     Called by h_psi:
     h_psi:calbec :      0.70s CPU      3.06s WALL (    1202 calls)
                                        3.05s GPU  (    1202 calls)
     vloc_psi     :      1.57s CPU      1.74s WALL (    1202 calls)
                                        1.71s GPU  (    1202 calls)
     add_vuspsi   :      0.51s CPU      0.62s WALL (    1202 calls)
                                        0.61s GPU  (    1202 calls)

     General routines
     calbec       :      0.69s CPU      3.03s WALL (    1202 calls)
     fft          :      0.91s CPU      1.05s WALL (     809 calls)
                                        0.17s GPU  (     505 calls)
     ffts         :      0.14s CPU      0.15s WALL (     101 calls)
     fftw         :      1.87s CPU      2.37s WALL (   10224 calls)
                                        2.05s GPU  (   10224 calls)
     davcio       :      0.00s CPU      0.00s WALL (      19 calls)
 
     Parallel routines
 
     PWSCF        :     11.84s CPU     15.64s WALL

 
   This run was terminated on:  15:17:42   9May2023            

=------------------------------------------------------------------------------=
   JOB DONE.
=------------------------------------------------------------------------------=
