An instance of this daemon is already running

     Program PWSCF v.7.1 starts on  9May2023 at 15:26:14 

     This program is part of the open-source Quantum ESPRESSO suite
     for quantum simulation of materials; please cite
         "P. Giannozzi et al., J. Phys.:Condens. Matter 21 395502 (2009);
         "P. Giannozzi et al., J. Phys.:Condens. Matter 29 465901 (2017);
         "P. Giannozzi et al., J. Chem. Phys. 152 154105 (2020);
          URL http://www.quantum-espresso.org", 
     in publications or presentations arising from this work. More details at
     http://www.quantum-espresso.org/quote

     Parallel version (MPI & OpenMP), running on       4 processor cores
     Number of MPI processes:                 4
     Threads/MPI process:                     1

     MPI processes distributed on     1 nodes
     8077 MiB available memory on the printing compute node when the environment starts
 
     Reading input from pw-si-89.in
Warning: card &CELL ignored
Warning: card / ignored

     Current dimensions of program PWSCF are:
     Max number of different atomic species (ntypx) = 10
     Max number of k-points (npk) =  40000
     Max angular momentum in pseudopotentials (lmaxx) =  4

     IMPORTANT: XC functional enforced from input :
     Exchange-correlation= PBE
                           (   1   4   3   4   0   0   0)
     Any further DFT definition will be discarded
     Please, verify this is what you really want


     gamma-point specific algorithms are used
 
     K-points division:     npool     =       2
     R & G space division:  proc/nbgrp/npool/nimage =       2
     Subspace diagonalization in iterative solution of the eigenvalue problem:
     a serial algorithm will be used

     Message from routine divide_et_impera:
     suboptimal parallelization: some nodes have no k-points
 
     Parallelization info
     --------------------
     sticks:   dense  smooth     PW     G-vecs:    dense   smooth      PW
     Min        1991    1991    524                94089    94089   12765
     Max        1994    1994    525                94094    94094   12768
     Sum        3985    3985   1049               188183   188183   25533
 
     Using Slab Decomposition
 


     bravais-lattice index     =            0
     lattice parameter (alat)  =      20.3761  a.u.
     unit-cell volume          =    8459.8925 (a.u.)^3
     number of atoms/cell      =           64
     number of atomic types    =            1
     number of electrons       =       256.00
     number of Kohn-Sham states=          128
     kinetic-energy cutoff     =      30.0000  Ry
     charge density cutoff     =     120.0000  Ry
     scf convergence threshold =      1.0E-06
     mixing beta               =       0.5000
     number of iterations used =            8  plain     mixing
     Exchange-correlation= PBE
                           (   1   4   3   4   0   0   0)

     GPU acceleration is ACTIVE.
     GPU-aware MPI enabled

     Message from routine print_cuda_info:
     High GPU oversubscription detected. Are you sure this is what you want?

     celldm(1)=  20.376126  celldm(2)=   0.000000  celldm(3)=   0.000000
     celldm(4)=   0.000000  celldm(5)=   0.000000  celldm(6)=   0.000000

     crystal axes: (cart. coord. in units of alat)
               a(1) = (   1.000000   0.000000   0.000000 )  
               a(2) = (   0.000000   1.000000   0.000000 )  
               a(3) = (   0.000000   0.000000   1.000000 )  

     reciprocal axes: (cart. coord. in units 2 pi/alat)
               b(1) = (  1.000000  0.000000  0.000000 )  
               b(2) = (  0.000000  1.000000  0.000000 )  
               b(3) = (  0.000000  0.000000  1.000000 )  


     PseudoPot. # 1 for Si read from file:
     /home/ppiaggi/pseudos/Si_ONCV_PBE_sr.upf
     MD5 check sum: 8553c464762ac42b85b1eed164b4d029
     Pseudo is Norm-conserving, Zval =  4.0
     Generated using ONCVPSP code by D. R. Hamann
     Using radial grid of 1510 points,  4 beta functions with: 
                l(1) =   0
                l(2) =   0
                l(3) =   1
                l(4) =   1

     atomic species   valence    mass     pseudopotential
        Si             4.00    28.08500     Si( 1.00)

     No symmetry found



   Cartesian axes

     site n.     atom                  positions (alat units)
         1           Si  tau(   1) = (   0.1051550   0.0035112   0.5038970  )
         2           Si  tau(   2) = (   0.3663480   0.7410890   0.6180940  )
         3           Si  tau(   3) = (   0.8975420   0.2046690   0.7492420  )
         4           Si  tau(   4) = (   0.9253070   0.0480379   0.0876660  )
         5           Si  tau(   5) = (   0.3145450   0.3961670   0.1168950  )
         6           Si  tau(   6) = (   0.9695250   0.8697850   0.2189880  )
         7           Si  tau(   7) = (   0.2963520   0.1659630   0.9135690  )
         8           Si  tau(   8) = (   0.5535130   0.8296700   0.1194410  )
         9           Si  tau(   9) = (   0.8249370   0.0038259   0.3544880  )
        10           Si  tau(  10) = (   0.5411620   0.6791890   0.4854030  )
        11           Si  tau(  11) = (   0.1991380   0.6194720   0.1526460  )
        12           Si  tau(  12) = (   0.6794200   0.1780820   0.6490010  )
        13           Si  tau(  13) = (   0.7060990   0.3012990   0.2384450  )
        14           Si  tau(  14) = (   0.0394478   0.9548150   0.9177980  )
        15           Si  tau(  15) = (   0.9487930   0.3458310   0.1381500  )
        16           Si  tau(  16) = (   0.9902260   0.6561660   0.7320830  )
        17           Si  tau(  17) = (   0.3509500   0.2095000   0.5001500  )
        18           Si  tau(  18) = (   0.6346050   0.9190970   0.6767710  )
        19           Si  tau(  19) = (   0.8190420   0.2453530   0.9728950  )
        20           Si  tau(  20) = (   0.7623090   0.7308180   0.8820720  )
        21           Si  tau(  21) = (   0.6837820   0.3775220   0.5082580  )
        22           Si  tau(  22) = (   0.5183280   0.5015550   0.0398528  )
        23           Si  tau(  23) = (   0.6378290   0.5084800   0.2201280  )
        24           Si  tau(  24) = (   0.2130410   0.5651430   0.8002100  )
        25           Si  tau(  25) = (   0.5997550   0.3540250   0.8889840  )
        26           Si  tau(  26) = (   0.9006950   0.9269670   0.5392830  )
        27           Si  tau(  27) = (   0.6350140   0.0155951   0.4499330  )
        28           Si  tau(  28) = (   0.2055540   0.2844730   0.7577690  )
        29           Si  tau(  29) = (   0.7729650   0.6815840   0.2698160  )
        30           Si  tau(  30) = (   0.2932550   0.9589600   0.9481250  )
        31           Si  tau(  31) = (   0.1882310   0.7900860   0.3377960  )
        32           Si  tau(  32) = (   0.1119310   0.0813436   0.7244670  )
        33           Si  tau(  33) = (   0.1412370   0.1146420   0.3073790  )
        34           Si  tau(  34) = (   0.4424540   0.5652210   0.7580920  )
        35           Si  tau(  35) = (   0.9920110   0.7160380   0.5306980  )
        36           Si  tau(  36) = (   0.5295370   0.2124810   0.3479460  )
        37           Si  tau(  37) = (   0.5041540   0.4763470   0.3989990  )
        38           Si  tau(  38) = (   0.6063990   0.8158340   0.3256030  )
        39           Si  tau(  39) = (   0.1222200   0.4415190   0.9756970  )
        40           Si  tau(  40) = (   0.9019910   0.3117820   0.5175000  )
        41           Si  tau(  41) = (   0.3185000   0.8569760   0.1352650  )
        42           Si  tau(  42) = (   0.8394700   0.9483280   0.7776510  )
        43           Si  tau(  43) = (   0.7433600   0.6798670   0.6134780  )
        44           Si  tau(  44) = (   0.9241440   0.1971200   0.3240160  )
        45           Si  tau(  45) = (   0.1659810   0.3098360   0.4258120  )
        46           Si  tau(  46) = (   0.7108010   0.4951800   0.7557850  )
        47           Si  tau(  47) = (   0.9345160   0.4459650   0.7992370  )
        48           Si  tau(  48) = (   0.3373710   0.0166929   0.6036750  )
        49           Si  tau(  49) = (   0.8760130   0.5435860   0.4307700  )
        50           Si  tau(  50) = (   0.8997590   0.7176010   0.0629662  )
        51           Si  tau(  51) = (   0.4063400   0.8556230   0.7954190  )
        52           Si  tau(  52) = (   0.3689980   0.9813980   0.3556570  )
        53           Si  tau(  53) = (   0.0820909   0.4289750   0.6024900  )
        54           Si  tau(  54) = (   0.6935000   0.9803170   0.9983820  )
        55           Si  tau(  55) = (   0.0022505   0.5569890   0.2186760  )
        56           Si  tau(  56) = (   0.4423590   0.3558660   0.6428080  )
        57           Si  tau(  57) = (   0.4878510   0.2065980   0.7826300  )
        58           Si  tau(  58) = (   0.1254820   0.1879340   0.0639803  )
        59           Si  tau(  59) = (   0.1179880   0.7382220   0.9638770  )
        60           Si  tau(  60) = (   0.2607360   0.4604640   0.3469010  )
        61           Si  tau(  61) = (   0.1997890   0.6402220   0.5053480  )
        62           Si  tau(  62) = (   0.3871710   0.1711890   0.1534030  )
        63           Si  tau(  63) = (   0.5697800   0.6954840   0.9287720  )
        64           Si  tau(  64) = (   0.6131820   0.1865480   0.0566653  )

     number of k points=     1
                       cart. coord. in units 2pi/alat
        k(    1) = (   0.0000000   0.0000000   0.0000000), wk =   2.0000000

     Dense  grid:    94092 G-vectors     FFT dimensions: (  72,  72,  72)

     Estimated max dynamical RAM per process >     137.78 MB

     Estimated total dynamical RAM >     528.13 MB

     Initial potential from superposition of free atoms

     starting charge     255.9608, renormalised to     256.0000
     Starting wfcs are  256 randomized atomic wfcs

     total cpu time spent up to now is        3.9 secs

     Self-consistent Calculation

     iteration #  1     ecut=    30.00 Ry     beta= 0.50
     Davidson diagonalization with overlap
     ethr =  1.00E-02,  avg # of iterations =  2.0

     Threshold (ethr) on eigenvalues was too large:
     Diagonalizing with lowered threshold

     Davidson diagonalization with overlap
     ethr =  4.29E-04,  avg # of iterations =  4.0

     total cpu time spent up to now is        4.1 secs

     total energy              =    -501.13479586 Ry
     estimated scf accuracy    <       1.34417087 Ry

     iteration #  2     ecut=    30.00 Ry     beta= 0.50
     Davidson diagonalization with overlap
     ethr =  5.25E-04,  avg # of iterations = 12.0

     total cpu time spent up to now is        4.2 secs

     total energy              =    -500.67634633 Ry
     estimated scf accuracy    <       5.08919075 Ry

     iteration #  3     ecut=    30.00 Ry     beta= 0.50
     Davidson diagonalization with overlap
     ethr =  5.25E-04,  avg # of iterations = 11.0

     total cpu time spent up to now is        4.3 secs

     total energy              =    -501.25462420 Ry
     estimated scf accuracy    <       1.50315014 Ry

     iteration #  4     ecut=    30.00 Ry     beta= 0.50
     Davidson diagonalization with overlap
     ethr =  5.25E-04,  avg # of iterations =  5.0

     total cpu time spent up to now is        4.4 secs

     total energy              =    -501.37115838 Ry
     estimated scf accuracy    <       0.36705426 Ry

     iteration #  5     ecut=    30.00 Ry     beta= 0.50
     Davidson diagonalization with overlap
     ethr =  1.43E-04,  avg # of iterations =  5.0

     total cpu time spent up to now is        4.5 secs

     total energy              =    -501.40427404 Ry
     estimated scf accuracy    <       0.09118491 Ry

     iteration #  6     ecut=    30.00 Ry     beta= 0.50
     Davidson diagonalization with overlap
     ethr =  3.56E-05,  avg # of iterations =  6.0

     total cpu time spent up to now is        4.6 secs

     total energy              =    -501.41990844 Ry
     estimated scf accuracy    <       0.06634128 Ry

     iteration #  7     ecut=    30.00 Ry     beta= 0.50
     Davidson diagonalization with overlap
     ethr =  2.59E-05,  avg # of iterations =  3.0

     total cpu time spent up to now is        4.7 secs

     total energy              =    -501.42569448 Ry
     estimated scf accuracy    <       0.00707687 Ry

     iteration #  8     ecut=    30.00 Ry     beta= 0.50
     Davidson diagonalization with overlap
     c_bands:  1 eigenvalues not converged
     ethr =  2.76E-06,  avg # of iterations = 20.0

     total cpu time spent up to now is        4.9 secs

     total energy              =    -501.42880889 Ry
     estimated scf accuracy    <       0.03387969 Ry

     iteration #  9     ecut=    30.00 Ry     beta= 0.50
     Davidson diagonalization with overlap
     c_bands:  1 eigenvalues not converged
     ethr =  2.76E-06,  avg # of iterations = 20.0

     total cpu time spent up to now is        5.0 secs

     total energy              =    -501.42875735 Ry
     estimated scf accuracy    <       0.01710980 Ry

     iteration # 10     ecut=    30.00 Ry     beta= 0.50
     Davidson diagonalization with overlap
     ethr =  2.76E-06,  avg # of iterations =  2.0

     total cpu time spent up to now is        5.1 secs

     total energy              =    -501.42709514 Ry
     estimated scf accuracy    <       0.01327491 Ry

     iteration # 11     ecut=    30.00 Ry     beta= 0.50
     Davidson diagonalization with overlap
     c_bands:  1 eigenvalues not converged
     ethr =  2.76E-06,  avg # of iterations = 20.0

     total cpu time spent up to now is        5.3 secs

     total energy              =    -501.42809925 Ry
     estimated scf accuracy    <       0.00529175 Ry

     iteration # 12     ecut=    30.00 Ry     beta= 0.50
     Davidson diagonalization with overlap
     ethr =  2.07E-06,  avg # of iterations = 13.0

     total cpu time spent up to now is        5.4 secs

     total energy              =    -501.42856798 Ry
     estimated scf accuracy    <       0.00365584 Ry

     iteration # 13     ecut=    30.00 Ry     beta= 0.50
     Davidson diagonalization with overlap
     ethr =  1.43E-06,  avg # of iterations =  8.0

     total cpu time spent up to now is        5.5 secs

     total energy              =    -501.42825531 Ry
     estimated scf accuracy    <       0.00355165 Ry

     iteration # 14     ecut=    30.00 Ry     beta= 0.50
     Davidson diagonalization with overlap
     ethr =  1.39E-06,  avg # of iterations =  3.0

     total cpu time spent up to now is        5.6 secs

     total energy              =    -501.42820020 Ry
     estimated scf accuracy    <       0.00150419 Ry

     iteration # 15     ecut=    30.00 Ry     beta= 0.50
     Davidson diagonalization with overlap
     c_bands:  1 eigenvalues not converged
     ethr =  5.88E-07,  avg # of iterations = 20.0

     total cpu time spent up to now is        5.8 secs

     total energy              =    -501.42861965 Ry
     estimated scf accuracy    <       0.00277680 Ry

     iteration # 16     ecut=    30.00 Ry     beta= 0.50
     Davidson diagonalization with overlap
     ethr =  5.88E-07,  avg # of iterations =  7.0

     total cpu time spent up to now is        5.9 secs

     total energy              =    -501.42849083 Ry
     estimated scf accuracy    <       0.00187364 Ry

     iteration # 17     ecut=    30.00 Ry     beta= 0.50
     Davidson diagonalization with overlap
     ethr =  5.88E-07,  avg # of iterations =  2.0

     total cpu time spent up to now is        5.9 secs

     total energy              =    -501.42842277 Ry
     estimated scf accuracy    <       0.00111126 Ry

     iteration # 18     ecut=    30.00 Ry     beta= 0.50
     Davidson diagonalization with overlap
     c_bands:  1 eigenvalues not converged
     ethr =  4.34E-07,  avg # of iterations = 20.0

     total cpu time spent up to now is        6.1 secs

     total energy              =    -501.42860617 Ry
     estimated scf accuracy    <       0.00027339 Ry

     iteration # 19     ecut=    30.00 Ry     beta= 0.50
     Davidson diagonalization with overlap
     ethr =  1.07E-07,  avg # of iterations = 17.0

     total cpu time spent up to now is        6.2 secs

     total energy              =    -501.42862899 Ry
     estimated scf accuracy    <       0.00038544 Ry

     iteration # 20     ecut=    30.00 Ry     beta= 0.50
     Davidson diagonalization with overlap
     ethr =  1.07E-07,  avg # of iterations =  1.0

     total cpu time spent up to now is        6.3 secs

     total energy              =    -501.42860733 Ry
     estimated scf accuracy    <       0.00035111 Ry

     iteration # 21     ecut=    30.00 Ry     beta= 0.50
     Davidson diagonalization with overlap
     ethr =  1.07E-07,  avg # of iterations =  2.0

     total cpu time spent up to now is        6.4 secs

     total energy              =    -501.42859637 Ry
     estimated scf accuracy    <       0.00023590 Ry

     iteration # 22     ecut=    30.00 Ry     beta= 0.50
     Davidson diagonalization with overlap
     ethr =  9.21E-08,  avg # of iterations =  1.0

     total cpu time spent up to now is        6.4 secs

     total energy              =    -501.42859465 Ry
     estimated scf accuracy    <       0.00016819 Ry

     iteration # 23     ecut=    30.00 Ry     beta= 0.50
     Davidson diagonalization with overlap
     ethr =  6.57E-08,  avg # of iterations =  2.0

     total cpu time spent up to now is        6.5 secs

     total energy              =    -501.42858428 Ry
     estimated scf accuracy    <       0.00013293 Ry

     iteration # 24     ecut=    30.00 Ry     beta= 0.50
     Davidson diagonalization with overlap
     c_bands:  1 eigenvalues not converged
     ethr =  5.19E-08,  avg # of iterations = 20.0

     total cpu time spent up to now is        6.6 secs

     total energy              =    -501.42861828 Ry
     estimated scf accuracy    <       0.00015911 Ry

     iteration # 25     ecut=    30.00 Ry     beta= 0.50
     Davidson diagonalization with overlap
     ethr =  5.19E-08,  avg # of iterations = 12.0

     total cpu time spent up to now is        6.8 secs

     total energy              =    -501.42862863 Ry
     estimated scf accuracy    <       0.00016214 Ry

     iteration # 26     ecut=    30.00 Ry     beta= 0.50
     Davidson diagonalization with overlap
     ethr =  5.19E-08,  avg # of iterations =  1.0

     total cpu time spent up to now is        6.8 secs

     total energy              =    -501.42863015 Ry
     estimated scf accuracy    <       0.00018898 Ry

     iteration # 27     ecut=    30.00 Ry     beta= 0.50
     Davidson diagonalization with overlap
     ethr =  5.19E-08,  avg # of iterations =  2.0

     total cpu time spent up to now is        6.9 secs

     total energy              =    -501.42861074 Ry
     estimated scf accuracy    <       0.00020732 Ry

     iteration # 28     ecut=    30.00 Ry     beta= 0.50
     Davidson diagonalization with overlap
     ethr =  5.19E-08,  avg # of iterations =  2.0

     total cpu time spent up to now is        7.0 secs

     total energy              =    -501.42860329 Ry
     estimated scf accuracy    <       0.00014466 Ry

     iteration # 29     ecut=    30.00 Ry     beta= 0.50
     Davidson diagonalization with overlap
     ethr =  5.19E-08,  avg # of iterations =  2.0

     total cpu time spent up to now is        7.1 secs

     total energy              =    -501.42860219 Ry
     estimated scf accuracy    <       0.00009730 Ry

     iteration # 30     ecut=    30.00 Ry     beta= 0.50
     Davidson diagonalization with overlap
     ethr =  3.80E-08,  avg # of iterations =  2.0

     total cpu time spent up to now is        7.1 secs

     total energy              =    -501.42859651 Ry
     estimated scf accuracy    <       0.00007996 Ry

     iteration # 31     ecut=    30.00 Ry     beta= 0.50
     Davidson diagonalization with overlap
     c_bands:  1 eigenvalues not converged
     ethr =  3.12E-08,  avg # of iterations = 20.0

     total cpu time spent up to now is        7.3 secs

     total energy              =    -501.42860683 Ry
     estimated scf accuracy    <       0.00002603 Ry

     iteration # 32     ecut=    30.00 Ry     beta= 0.50
     Davidson diagonalization with overlap
     c_bands:  1 eigenvalues not converged
     ethr =  1.02E-08,  avg # of iterations = 20.0

     total cpu time spent up to now is        7.4 secs

     total energy              =    -501.42861341 Ry
     estimated scf accuracy    <       0.00000717 Ry

     iteration # 33     ecut=    30.00 Ry     beta= 0.50
     Davidson diagonalization with overlap
     c_bands:  2 eigenvalues not converged
     ethr =  2.80E-09,  avg # of iterations = 20.0

     total cpu time spent up to now is        7.6 secs

     total energy              =    -501.42861403 Ry
     estimated scf accuracy    <       0.00023078 Ry

     iteration # 34     ecut=    30.00 Ry     beta= 0.50
     Davidson diagonalization with overlap
     c_bands:  1 eigenvalues not converged
     ethr =  2.80E-09,  avg # of iterations = 20.0

     total cpu time spent up to now is        7.7 secs

     total energy              =    -501.42861916 Ry
     estimated scf accuracy    <       0.00016075 Ry

     iteration # 35     ecut=    30.00 Ry     beta= 0.50
     Davidson diagonalization with overlap
     ethr =  2.80E-09,  avg # of iterations =  2.0

     total cpu time spent up to now is        7.8 secs

     total energy              =    -501.42862170 Ry
     estimated scf accuracy    <       0.00016320 Ry

     iteration # 36     ecut=    30.00 Ry     beta= 0.50
     Davidson diagonalization with overlap
     ethr =  2.80E-09,  avg # of iterations =  2.0

     total cpu time spent up to now is        7.9 secs

     total energy              =    -501.42862120 Ry
     estimated scf accuracy    <       0.00017446 Ry

     iteration # 37     ecut=    30.00 Ry     beta= 0.50
     Davidson diagonalization with overlap
     ethr =  2.80E-09,  avg # of iterations =  1.0

     total cpu time spent up to now is        8.0 secs

     total energy              =    -501.42862069 Ry
     estimated scf accuracy    <       0.00017452 Ry

     iteration # 38     ecut=    30.00 Ry     beta= 0.50
     Davidson diagonalization with overlap
     ethr =  2.80E-09,  avg # of iterations =  1.0

     total cpu time spent up to now is        8.0 secs

     total energy              =    -501.42862072 Ry
     estimated scf accuracy    <       0.00017462 Ry

     iteration # 39     ecut=    30.00 Ry     beta= 0.50
     Davidson diagonalization with overlap
     ethr =  2.80E-09,  avg # of iterations =  1.0

     total cpu time spent up to now is        8.1 secs

     total energy              =    -501.42861015 Ry
     estimated scf accuracy    <       0.00017672 Ry

     iteration # 40     ecut=    30.00 Ry     beta= 0.50
     Davidson diagonalization with overlap
     c_bands:  1 eigenvalues not converged
     ethr =  2.80E-09,  avg # of iterations = 20.0

     total cpu time spent up to now is        8.3 secs

     total energy              =    -501.42860599 Ry
     estimated scf accuracy    <       0.00020100 Ry

     iteration # 41     ecut=    30.00 Ry     beta= 0.50
     Davidson diagonalization with overlap
     c_bands:  1 eigenvalues not converged
     ethr =  2.80E-09,  avg # of iterations = 20.0

     total cpu time spent up to now is        8.4 secs

     total energy              =    -501.42860722 Ry
     estimated scf accuracy    <       0.00002325 Ry

     iteration # 42     ecut=    30.00 Ry     beta= 0.50
     Davidson diagonalization with overlap
     c_bands:  1 eigenvalues not converged
     ethr =  2.80E-09,  avg # of iterations = 20.0

     total cpu time spent up to now is        8.6 secs

     total energy              =    -501.42861059 Ry
     estimated scf accuracy    <       0.00005766 Ry

     iteration # 43     ecut=    30.00 Ry     beta= 0.50
     Davidson diagonalization with overlap
     ethr =  2.80E-09,  avg # of iterations = 13.0

     total cpu time spent up to now is        8.7 secs

     total energy              =    -501.42861138 Ry
     estimated scf accuracy    <       0.00002956 Ry

     iteration # 44     ecut=    30.00 Ry     beta= 0.50
     Davidson diagonalization with overlap
     ethr =  2.80E-09,  avg # of iterations =  6.0

     total cpu time spent up to now is        8.8 secs

     total energy              =    -501.42861076 Ry
     estimated scf accuracy    <       0.00001761 Ry

     iteration # 45     ecut=    30.00 Ry     beta= 0.50
     Davidson diagonalization with overlap
     ethr =  2.80E-09,  avg # of iterations =  3.0

     total cpu time spent up to now is        8.9 secs

     total energy              =    -501.42861084 Ry
     estimated scf accuracy    <       0.00000882 Ry

     iteration # 46     ecut=    30.00 Ry     beta= 0.50
     Davidson diagonalization with overlap
     c_bands:  1 eigenvalues not converged
     ethr =  2.80E-09,  avg # of iterations = 20.0

     total cpu time spent up to now is        9.1 secs

     total energy              =    -501.42861128 Ry
     estimated scf accuracy    <       0.00000124 Ry

     iteration # 47     ecut=    30.00 Ry     beta= 0.50
     Davidson diagonalization with overlap
     c_bands:  1 eigenvalues not converged
     ethr =  4.85E-10,  avg # of iterations = 20.0

     total cpu time spent up to now is        9.2 secs

     End of self-consistent calculation

          k = 0.0000 0.0000 0.0000 ( 11792 PWs)   bands (ev):

    -5.5549  -4.6485  -4.5192  -4.4738  -4.4683  -4.2929  -4.2392  -3.7031
    -3.6072  -3.5721  -3.4163  -3.3361  -3.2982  -3.2173  -3.1850  -3.1201
    -3.0347  -2.9394  -2.8150  -2.4747  -2.3732  -2.1967  -2.1200  -1.9481
    -1.9147  -1.7547  -1.6881  -1.2338  -1.1474  -1.0657  -0.9353  -0.8603
    -0.6423  -0.5948  -0.5411  -0.4904  -0.3679  -0.2932  -0.1623  -0.0785
     0.0058   0.1374   0.1637   0.2569   0.3959   0.4477   0.6103   0.6503
     0.7176   0.7723   0.8584   0.8794   1.0122   1.0829   1.1895   1.3103
     1.4053   1.4370   1.6199   1.6429   1.8612   2.0066   2.0458   2.0601
     2.1675   2.2670   2.3835   2.4993   2.5148   2.6093   2.6505   2.7009
     2.7254   2.8399   2.9015   3.0180   3.1127   3.1760   3.2024   3.4577
     3.4992   3.7917   3.9173   4.0485   4.1101   4.1411   4.1768   4.2689
     4.3095   4.3616   4.4072   4.4514   4.4821   4.6620   4.7038   4.7819
     4.8193   4.8625   4.9378   4.9589   5.0107   5.0927   5.1784   5.2487
     5.3299   5.3423   5.4157   5.4706   5.4934   5.5985   5.6252   5.7398
     5.7762   5.8051   5.9073   5.9592   5.9821   6.0046   6.0805   6.1381
     6.2446   6.3036   6.3424   6.4484   6.4680   6.5366   6.5955   6.6319

     highest occupied level (ev):     6.6319

!    total energy              =    -501.42861092 Ry
     estimated scf accuracy    <       0.00000093 Ry

     The total energy is the sum of the following terms:
     one-electron contribution =     173.78898258 Ry
     hartree contribution      =      27.32728275 Ry
     xc contribution           =    -150.20488819 Ry
     ewald contribution        =    -552.33998805 Ry

     convergence has been achieved in  47 iterations

     Forces acting on atoms (cartesian axes, Ry/au):

     atom    1 type  1   force =     0.04776703   -0.00963450    0.00391008
     atom    2 type  1   force =     0.02770689   -0.05385406   -0.01788911
     atom    3 type  1   force =     0.00020196   -0.01789283    0.00142538
     atom    4 type  1   force =     0.00122410   -0.00392428   -0.02135535
     atom    5 type  1   force =     0.01071076    0.04152460    0.00161424
     atom    6 type  1   force =     0.00300043    0.00523704    0.02099878
     atom    7 type  1   force =     0.00088525    0.02332791    0.01943274
     atom    8 type  1   force =    -0.03218147    0.01760545   -0.03992916
     atom    9 type  1   force =     0.00717436   -0.00454922   -0.03057737
     atom   10 type  1   force =    -0.00983936   -0.00809840    0.01240573
     atom   11 type  1   force =     0.01246880    0.00943277    0.00167049
     atom   12 type  1   force =     0.00350188   -0.00614744   -0.00929783
     atom   13 type  1   force =     0.01192395   -0.01983830    0.01563937
     atom   14 type  1   force =     0.02086223   -0.00856698   -0.03811387
     atom   15 type  1   force =     0.01754393   -0.00921189   -0.01036829
     atom   16 type  1   force =     0.01294208   -0.00610378    0.08513783
     atom   17 type  1   force =    -0.00219547    0.01978936   -0.00909212
     atom   18 type  1   force =    -0.01188661   -0.00235204   -0.00677806
     atom   19 type  1   force =    -0.00248351    0.02051622   -0.00117399
     atom   20 type  1   force =     0.11054045    0.02661094   -0.04556873
     atom   21 type  1   force =     0.00733546   -0.00800707    0.02118747
     atom   22 type  1   force =    -0.02323105   -0.01835151   -0.02200191
     atom   23 type  1   force =     0.00422346    0.00102915    0.01082817
     atom   24 type  1   force =     0.00363497   -0.00461680    0.03167462
     atom   25 type  1   force =     0.01666471    0.01019265    0.04081951
     atom   26 type  1   force =     0.01881692   -0.05240904    0.04421074
     atom   27 type  1   force =    -0.02003724    0.00790308    0.00364291
     atom   28 type  1   force =     0.00349376    0.04043632   -0.02217231
     atom   29 type  1   force =     0.01307536   -0.02835911   -0.01640447
     atom   30 type  1   force =    -0.03852700   -0.01038711    0.00466009
     atom   31 type  1   force =    -0.01251210    0.04288761   -0.04548338
     atom   32 type  1   force =    -0.02767091    0.01627907    0.01044321
     atom   33 type  1   force =    -0.00820591    0.02141641    0.01812376
     atom   34 type  1   force =    -0.03269406    0.01639869   -0.01123071
     atom   35 type  1   force =    -0.01480917    0.00669497   -0.03304855
     atom   36 type  1   force =    -0.01614831   -0.02458681    0.00366678
     atom   37 type  1   force =    -0.00789861    0.01382198    0.00167475
     atom   38 type  1   force =    -0.01173386    0.01643421    0.03401102
     atom   39 type  1   force =     0.02220675   -0.00331165    0.00213348
     atom   40 type  1   force =    -0.01160178    0.00746299    0.00245921
     atom   41 type  1   force =     0.02643912   -0.01643322    0.04449631
     atom   42 type  1   force =    -0.03181362   -0.00012236    0.01176338
     atom   43 type  1   force =    -0.02981460   -0.00506588   -0.00461268
     atom   44 type  1   force =    -0.00744295    0.02953115   -0.02141943
     atom   45 type  1   force =    -0.03234225   -0.11644658    0.04013173
     atom   46 type  1   force =     0.02971075    0.00414471   -0.01107284
     atom   47 type  1   force =     0.00618904   -0.01449096   -0.00967443
     atom   48 type  1   force =    -0.03676873   -0.00482637   -0.02349227
     atom   49 type  1   force =     0.00412854    0.02120455   -0.02528540
     atom   50 type  1   force =     0.01345210   -0.01223064    0.04174712
     atom   51 type  1   force =     0.07690915   -0.00755003   -0.02841358
     atom   52 type  1   force =    -0.03476663   -0.01075132   -0.01190772
     atom   53 type  1   force =    -0.00141954   -0.00062112    0.02480560
     atom   54 type  1   force =     0.02789530    0.00806245    0.01042938
     atom   55 type  1   force =    -0.04567562   -0.01839247   -0.00508287
     atom   56 type  1   force =    -0.01646369    0.03887231   -0.01415419
     atom   57 type  1   force =     0.02085144   -0.03483321    0.01751718
     atom   58 type  1   force =    -0.02564863    0.01155099    0.01466941
     atom   59 type  1   force =    -0.01070759   -0.00301005   -0.02341753
     atom   60 type  1   force =     0.09125617    0.11340350   -0.06363730
     atom   61 type  1   force =    -0.01121171   -0.02097519   -0.01121433
     atom   62 type  1   force =     0.02921487   -0.00503195    0.00982940
     atom   63 type  1   force =    -0.13057387   -0.02505421    0.02346047
     atom   64 type  1   force =    -0.00564609    0.00426727    0.00324944

     Total force =     0.402501     Total SCF correction =     0.001864


     Computing stress (Cartesian axis) and pressure

          total   stress  (Ry/bohr**3)                   (kbar)     P=      -40.07
  -0.00035571   0.00006021  -0.00000357          -52.33        8.86       -0.53
   0.00006021  -0.00019456  -0.00000960            8.86      -28.62       -1.41
  -0.00000357  -0.00000960  -0.00026698           -0.53       -1.41      -39.27

 
     init_run     :      0.97s CPU      3.86s WALL (       1 calls)
     electrons    :      5.03s CPU      5.31s WALL (       1 calls)
     forces       :      0.03s CPU      0.03s WALL (       1 calls)
     stress       :      0.12s CPU      0.13s WALL (       1 calls)

     Called by init_run:
     wfcinit      :      0.46s CPU      3.21s WALL (       1 calls)
                                        3.21s GPU  (       1 calls)
     potinit      :      0.05s CPU      0.12s WALL (       1 calls)
     hinit0       :      0.45s CPU      0.47s WALL (       1 calls)

     Called by electrons:
     c_bands      :      3.57s CPU      3.73s WALL (      48 calls)
     sum_band     :      0.67s CPU      0.75s WALL (      48 calls)
     v_of_rho     :      0.30s CPU      0.38s WALL (      48 calls)
     mix_rho      :      0.41s CPU      0.43s WALL (      48 calls)

     Called by c_bands:
     init_us_2    :      0.12s CPU      0.13s WALL (      97 calls)
     init_us_2:gp :      0.12s CPU      0.13s WALL (      97 calls)
     regterg      :      3.23s CPU      3.38s WALL (      48 calls)

     Called by *egterg:
     rdiaghg      :      1.65s CPU      2.26s WALL (     503 calls)
                                        2.18s GPU  (     503 calls)
     h_psi        :      1.57s CPU      3.82s WALL (     505 calls)
                                        3.82s GPU  (     505 calls)
     g_psi        :      0.00s CPU      0.01s WALL (     456 calls)
                                        0.01s GPU  (     456 calls)

     Called by h_psi:
     h_psi:calbec :      0.53s CPU      2.70s WALL (     505 calls)
                                        2.70s GPU  (     505 calls)
     vloc_psi     :      0.78s CPU      0.86s WALL (     505 calls)
                                        0.85s GPU  (     505 calls)
     add_vuspsi   :      0.19s CPU      0.24s WALL (     505 calls)
                                        0.23s GPU  (     505 calls)

     General routines
     calbec       :      0.53s CPU      2.69s WALL (     510 calls)
     fft          :      0.67s CPU      0.78s WALL (     391 calls)
                                        0.13s GPU  (     246 calls)
     ffts         :      0.07s CPU      0.08s WALL (      48 calls)
     fftw         :      0.93s CPU      1.17s WALL (    4752 calls)
                                        1.02s GPU  (    4752 calls)
 
     Parallel routines
 
     PWSCF        :      6.20s CPU      9.40s WALL

 
   This run was terminated on:  15:26:23   9May2023            

=------------------------------------------------------------------------------=
   JOB DONE.
=------------------------------------------------------------------------------=
