An instance of this daemon is already running

     Program PWSCF v.7.1 starts on  9May2023 at 15:16:54 

     This program is part of the open-source Quantum ESPRESSO suite
     for quantum simulation of materials; please cite
         "P. Giannozzi et al., J. Phys.:Condens. Matter 21 395502 (2009);
         "P. Giannozzi et al., J. Phys.:Condens. Matter 29 465901 (2017);
         "P. Giannozzi et al., J. Chem. Phys. 152 154105 (2020);
          URL http://www.quantum-espresso.org", 
     in publications or presentations arising from this work. More details at
     http://www.quantum-espresso.org/quote

     Parallel version (MPI & OpenMP), running on       4 processor cores
     Number of MPI processes:                 4
     Threads/MPI process:                     1

     MPI processes distributed on     1 nodes
     6917 MiB available memory on the printing compute node when the environment starts
 
     Reading input from pw-si-49.in
Warning: card &CELL ignored
Warning: card / ignored

     Current dimensions of program PWSCF are:
     Max number of different atomic species (ntypx) = 10
     Max number of k-points (npk) =  40000
     Max angular momentum in pseudopotentials (lmaxx) =  4

     IMPORTANT: XC functional enforced from input :
     Exchange-correlation= PBE
                           (   1   4   3   4   0   0   0)
     Any further DFT definition will be discarded
     Please, verify this is what you really want


     gamma-point specific algorithms are used
 
     K-points division:     npool     =       2
     R & G space division:  proc/nbgrp/npool/nimage =       2
     Subspace diagonalization in iterative solution of the eigenvalue problem:
     a serial algorithm will be used

     Message from routine divide_et_impera:
     suboptimal parallelization: some nodes have no k-points
 
     Parallelization info
     --------------------
     sticks:   dense  smooth     PW     G-vecs:    dense   smooth      PW
     Min        1916    1916    502                89532    89532   12150
     Max        1917    1917    503                89537    89537   12153
     Sum        3833    3833   1005               179069   179069   24303
 
     Using Slab Decomposition
 


     bravais-lattice index     =            0
     lattice parameter (alat)  =      20.0557  a.u.
     unit-cell volume          =    8066.9966 (a.u.)^3
     number of atoms/cell      =           64
     number of atomic types    =            1
     number of electrons       =       256.00
     number of Kohn-Sham states=          128
     kinetic-energy cutoff     =      30.0000  Ry
     charge density cutoff     =     120.0000  Ry
     scf convergence threshold =      1.0E-06
     mixing beta               =       0.5000
     number of iterations used =            8  plain     mixing
     Exchange-correlation= PBE
                           (   1   4   3   4   0   0   0)

     GPU acceleration is ACTIVE.
     GPU-aware MPI enabled

     Message from routine print_cuda_info:
     High GPU oversubscription detected. Are you sure this is what you want?

     celldm(1)=  20.055675  celldm(2)=   0.000000  celldm(3)=   0.000000
     celldm(4)=   0.000000  celldm(5)=   0.000000  celldm(6)=   0.000000

     crystal axes: (cart. coord. in units of alat)
               a(1) = (   1.000000   0.000000   0.000000 )  
               a(2) = (   0.000000   1.000000   0.000000 )  
               a(3) = (   0.000000   0.000000   1.000000 )  

     reciprocal axes: (cart. coord. in units 2 pi/alat)
               b(1) = (  1.000000  0.000000  0.000000 )  
               b(2) = (  0.000000  1.000000  0.000000 )  
               b(3) = (  0.000000  0.000000  1.000000 )  


     PseudoPot. # 1 for Si read from file:
     /home/ppiaggi/pseudos/Si_ONCV_PBE_sr.upf
     MD5 check sum: 8553c464762ac42b85b1eed164b4d029
     Pseudo is Norm-conserving, Zval =  4.0
     Generated using ONCVPSP code by D. R. Hamann
     Using radial grid of 1510 points,  4 beta functions with: 
                l(1) =   0
                l(2) =   0
                l(3) =   1
                l(4) =   1

     atomic species   valence    mass     pseudopotential
        Si             4.00    28.08500     Si( 1.00)

     No symmetry found



   Cartesian axes

     site n.     atom                  positions (alat units)
         1           Si  tau(   1) = (   0.4612990   0.6001630   0.5798990  )
         2           Si  tau(   2) = (   0.0508475   0.0424746   0.5431910  )
         3           Si  tau(   3) = (   0.9624860   0.2801590   0.5662020  )
         4           Si  tau(   4) = (   0.4843680   0.7910890   0.4410110  )
         5           Si  tau(   5) = (   0.3659860   0.0172705   0.1605380  )
         6           Si  tau(   6) = (   0.7922700   0.3860080   0.8588980  )
         7           Si  tau(   7) = (   0.9920870   0.5071190   0.6783550  )
         8           Si  tau(   8) = (   0.5554950   0.4139100   0.8982590  )
         9           Si  tau(   9) = (   0.2441750   0.4462310   0.8192390  )
        10           Si  tau(  10) = (   0.1490540   0.4250360   0.2379140  )
        11           Si  tau(  11) = (   0.5196490   0.0222173   0.6939030  )
        12           Si  tau(  12) = (   0.1804050   0.0095013   0.3091180  )
        13           Si  tau(  13) = (   0.8929550   0.8848280   0.6492410  )
        14           Si  tau(  14) = (   0.7876130   0.8076570   0.4437360  )
        15           Si  tau(  15) = (   0.5651200   0.0160834   0.4460700  )
        16           Si  tau(  16) = (   0.7802190   0.4927660   0.6131900  )
        17           Si  tau(  17) = (   0.2514810   0.5112670   0.5836930  )
        18           Si  tau(  18) = (   0.2416850   0.8916280   0.7738860  )
        19           Si  tau(  19) = (   0.4373150   0.2579330   0.1265990  )
        20           Si  tau(  20) = (   0.4164940   0.5315450   0.0478803  )
        21           Si  tau(  21) = (   0.9774010   0.7450820   0.3166670  )
        22           Si  tau(  22) = (   0.8786830   0.0831359   0.7537950  )
        23           Si  tau(  23) = (   0.6734990   0.1690180   0.7607360  )
        24           Si  tau(  24) = (   0.3060070   0.1606580   0.4239820  )
        25           Si  tau(  25) = (   0.9218320   0.5983090   0.8906630  )
        26           Si  tau(  26) = (   0.6371420   0.2981330   0.5899440  )
        27           Si  tau(  27) = (   0.2683200   0.8153340   0.0962922  )
        28           Si  tau(  28) = (   0.9780320   0.5872270   0.1474000  )
        29           Si  tau(  29) = (   0.2792880   0.8808450   0.5196960  )
        30           Si  tau(  30) = (   0.1726980   0.6445270   0.9637520  )
        31           Si  tau(  31) = (   0.2592100   0.3323240   0.0405410  )
        32           Si  tau(  32) = (   0.6466350   0.8126410   0.6481970  )
        33           Si  tau(  33) = (   0.5308000   0.2362260   0.3705610  )
        34           Si  tau(  34) = (   0.9034840   0.4476810   0.3417130  )
        35           Si  tau(  35) = (   0.3567280   0.5423080   0.2676330  )
        36           Si  tau(  36) = (   0.0503663   0.7726060   0.7817550  )
        37           Si  tau(  37) = (   0.7598520   0.0161751   0.3445140  )
        38           Si  tau(  38) = (   0.7258590   0.0161028   0.0910834  )
        39           Si  tau(  39) = (   0.1462370   0.3437470   0.4387160  )
        40           Si  tau(  40) = (   0.0724144   0.9323790   0.9940870  )
        41           Si  tau(  41) = (   0.4874320   0.8043300   0.9786930  )
        42           Si  tau(  42) = (   0.6089960   0.6056780   0.7729270  )
        43           Si  tau(  43) = (   0.5862410   0.1756280   0.9873020  )
        44           Si  tau(  44) = (   0.3787010   0.6970140   0.8260920  )
        45           Si  tau(  45) = (   0.5531770   0.7002950   0.2337830  )
        46           Si  tau(  46) = (   0.5272490   0.4739770   0.3932550  )
        47           Si  tau(  47) = (   0.9583070   0.9461950   0.2163150  )
        48           Si  tau(  48) = (   0.5559110   0.9184590   0.2016040  )
        49           Si  tau(  49) = (   0.0148941   0.1843640   0.2814930  )
        50           Si  tau(  50) = (   0.2730210   0.1256710   0.6735550  )
        51           Si  tau(  51) = (   0.9746440   0.1940590   0.9269070  )
        52           Si  tau(  52) = (   0.2264240   0.1101140   0.9549600  )
        53           Si  tau(  53) = (   0.4469630   0.0041693   0.8985400  )
        54           Si  tau(  54) = (   0.2087630   0.7477530   0.3146400  )
        55           Si  tau(  55) = (   0.8210320   0.2241810   0.1150230  )
        56           Si  tau(  56) = (   0.7303930   0.6001400   0.4168380  )
        57           Si  tau(  57) = (   0.7527620   0.6041870   0.1415700  )
        58           Si  tau(  58) = (   0.6848310   0.4111150   0.1116170  )
        59           Si  tau(  59) = (   0.4201460   0.3018570   0.7372880  )
        60           Si  tau(  60) = (   0.7101500   0.7250780   0.9561490  )
        61           Si  tau(  61) = (   0.8317480   0.8933660   0.9258280  )
        62           Si  tau(  62) = (   0.1115740   0.2857360   0.7548280  )
        63           Si  tau(  63) = (   0.1071300   0.7243960   0.5576870  )
        64           Si  tau(  64) = (   0.7862480   0.2318140   0.3884510  )

     number of k points=     1
                       cart. coord. in units 2pi/alat
        k(    1) = (   0.0000000   0.0000000   0.0000000), wk =   2.0000000

     Dense  grid:    89535 G-vectors     FFT dimensions: (  72,  72,  72)

     Estimated max dynamical RAM per process >     132.05 MB

     Estimated total dynamical RAM >     506.33 MB

     Initial potential from superposition of free atoms

     starting charge     255.9608, renormalised to     256.0000
     Starting wfcs are  256 randomized atomic wfcs

     total cpu time spent up to now is        4.4 secs

     Self-consistent Calculation

     iteration #  1     ecut=    30.00 Ry     beta= 0.50
     Davidson diagonalization with overlap
     ethr =  1.00E-02,  avg # of iterations =  2.0

     Threshold (ethr) on eigenvalues was too large:
     Diagonalizing with lowered threshold

     Davidson diagonalization with overlap
     ethr =  3.89E-04,  avg # of iterations =  6.0

     total cpu time spent up to now is        4.6 secs

     total energy              =    -501.20431648 Ry
     estimated scf accuracy    <       1.25373047 Ry

     iteration #  2     ecut=    30.00 Ry     beta= 0.50
     Davidson diagonalization with overlap
     ethr =  4.90E-04,  avg # of iterations = 12.0

     total cpu time spent up to now is        4.7 secs

     total energy              =    -500.46849532 Ry
     estimated scf accuracy    <       9.80366398 Ry

     iteration #  3     ecut=    30.00 Ry     beta= 0.50
     Davidson diagonalization with overlap
     ethr =  4.90E-04,  avg # of iterations = 10.0

     total cpu time spent up to now is        4.8 secs

     total energy              =    -501.38075859 Ry
     estimated scf accuracy    <       1.20573985 Ry

     iteration #  4     ecut=    30.00 Ry     beta= 0.50
     Davidson diagonalization with overlap
     ethr =  4.71E-04,  avg # of iterations =  3.0

     total cpu time spent up to now is        4.9 secs

     total energy              =    -501.46249410 Ry
     estimated scf accuracy    <       0.41427754 Ry

     iteration #  5     ecut=    30.00 Ry     beta= 0.50
     Davidson diagonalization with overlap
     ethr =  1.62E-04,  avg # of iterations =  5.0

     total cpu time spent up to now is        5.0 secs

     total energy              =    -501.49490614 Ry
     estimated scf accuracy    <       0.10370856 Ry

     iteration #  6     ecut=    30.00 Ry     beta= 0.50
     Davidson diagonalization with overlap
     ethr =  4.05E-05,  avg # of iterations =  6.0

     total cpu time spent up to now is        5.1 secs

     total energy              =    -501.51155649 Ry
     estimated scf accuracy    <       0.04695785 Ry

     iteration #  7     ecut=    30.00 Ry     beta= 0.50
     Davidson diagonalization with overlap
     ethr =  1.83E-05,  avg # of iterations =  5.0

     total cpu time spent up to now is        5.2 secs

     total energy              =    -501.51636858 Ry
     estimated scf accuracy    <       0.01000448 Ry

     iteration #  8     ecut=    30.00 Ry     beta= 0.50
     Davidson diagonalization with overlap
     ethr =  3.91E-06,  avg # of iterations =  8.0

     total cpu time spent up to now is        5.3 secs

     total energy              =    -501.51703196 Ry
     estimated scf accuracy    <       0.01378985 Ry

     iteration #  9     ecut=    30.00 Ry     beta= 0.50
     Davidson diagonalization with overlap
     ethr =  3.91E-06,  avg # of iterations =  5.0

     total cpu time spent up to now is        5.4 secs

     total energy              =    -501.51773179 Ry
     estimated scf accuracy    <       0.00240734 Ry

     iteration # 10     ecut=    30.00 Ry     beta= 0.50
     Davidson diagonalization with overlap
     ethr =  9.40E-07,  avg # of iterations =  7.0

     total cpu time spent up to now is        5.5 secs

     total energy              =    -501.51810654 Ry
     estimated scf accuracy    <       0.00158631 Ry

     iteration # 11     ecut=    30.00 Ry     beta= 0.50
     Davidson diagonalization with overlap
     ethr =  6.20E-07,  avg # of iterations =  3.0

     total cpu time spent up to now is        5.6 secs

     total energy              =    -501.51812413 Ry
     estimated scf accuracy    <       0.00078127 Ry

     iteration # 12     ecut=    30.00 Ry     beta= 0.50
     Davidson diagonalization with overlap
     ethr =  3.05E-07,  avg # of iterations =  6.0

     total cpu time spent up to now is        5.7 secs

     total energy              =    -501.51818448 Ry
     estimated scf accuracy    <       0.00018627 Ry

     iteration # 13     ecut=    30.00 Ry     beta= 0.50
     Davidson diagonalization with overlap
     ethr =  7.28E-08,  avg # of iterations =  5.0

     total cpu time spent up to now is        5.8 secs

     total energy              =    -501.51820119 Ry
     estimated scf accuracy    <       0.00006018 Ry

     iteration # 14     ecut=    30.00 Ry     beta= 0.50
     Davidson diagonalization with overlap
     ethr =  2.35E-08,  avg # of iterations =  7.0

     total cpu time spent up to now is        5.9 secs

     total energy              =    -501.51821052 Ry
     estimated scf accuracy    <       0.00006939 Ry

     iteration # 15     ecut=    30.00 Ry     beta= 0.50
     Davidson diagonalization with overlap
     ethr =  2.35E-08,  avg # of iterations =  2.0

     total cpu time spent up to now is        5.9 secs

     total energy              =    -501.51820806 Ry
     estimated scf accuracy    <       0.00003851 Ry

     iteration # 16     ecut=    30.00 Ry     beta= 0.50
     Davidson diagonalization with overlap
     ethr =  1.50E-08,  avg # of iterations =  6.0

     total cpu time spent up to now is        6.0 secs

     total energy              =    -501.51821021 Ry
     estimated scf accuracy    <       0.00000686 Ry

     iteration # 17     ecut=    30.00 Ry     beta= 0.50
     Davidson diagonalization with overlap
     ethr =  2.68E-09,  avg # of iterations =  9.0

     total cpu time spent up to now is        6.2 secs

     total energy              =    -501.51821171 Ry
     estimated scf accuracy    <       0.00000509 Ry

     iteration # 18     ecut=    30.00 Ry     beta= 0.50
     Davidson diagonalization with overlap
     ethr =  1.99E-09,  avg # of iterations =  3.0

     total cpu time spent up to now is        6.2 secs

     total energy              =    -501.51821168 Ry
     estimated scf accuracy    <       0.00000397 Ry

     iteration # 19     ecut=    30.00 Ry     beta= 0.50
     Davidson diagonalization with overlap
     ethr =  1.55E-09,  avg # of iterations =  2.0

     total cpu time spent up to now is        6.3 secs

     total energy              =    -501.51821165 Ry
     estimated scf accuracy    <       0.00000212 Ry

     iteration # 20     ecut=    30.00 Ry     beta= 0.50
     Davidson diagonalization with overlap
     ethr =  8.30E-10,  avg # of iterations =  6.0

     total cpu time spent up to now is        6.4 secs

     End of self-consistent calculation

          k = 0.0000 0.0000 0.0000 ( 11168 PWs)   bands (ev):

    -5.2943  -4.3162  -4.2144  -4.1391  -4.1189  -3.9139  -3.8678  -3.3292
    -3.2239  -3.1075  -3.0371  -2.9630  -2.9137  -2.8705  -2.7372  -2.7174
    -2.6585  -2.5434  -2.2857  -2.0204  -1.9682  -1.7631  -1.6615  -1.6332
    -1.4235  -1.3437  -1.3032  -0.9063  -0.8051  -0.6361  -0.3930  -0.2887
    -0.1717  -0.0555   0.0359   0.1014   0.2979   0.3704   0.4048   0.4554
     0.4951   0.6014   0.6726   0.7332   0.8235   0.8867   0.9060   1.0066
     1.0998   1.1240   1.2820   1.3189   1.4794   1.5389   1.5942   1.7106
     1.7622   1.9338   2.0804   2.1453   2.2338   2.3299   2.4226   2.4626
     2.5584   2.6267   2.7041   2.7766   2.8561   2.9670   3.0580   3.0652
     3.1721   3.2638   3.3412   3.4566   3.4938   3.5691   3.7331   3.7550
     3.8800   4.1788   4.3151   4.3798   4.6055   4.6370   4.6988   4.8324
     4.8797   4.9692   5.0091   5.0849   5.1555   5.1780   5.2915   5.3310
     5.3607   5.5117   5.5541   5.6108   5.6613   5.7062   5.8066   5.8391
     5.8747   5.9532   5.9780   6.0517   6.1090   6.1518   6.2277   6.2928
     6.3271   6.3590   6.3999   6.4911   6.5064   6.5929   6.6155   6.6335
     6.7142   6.8147   6.8309   6.8587   6.9109   7.0498   7.0620   7.1130

     highest occupied level (ev):     7.1130

!    total energy              =    -501.51821104 Ry
     estimated scf accuracy    <       0.00000081 Ry

     The total energy is the sum of the following terms:
     one-electron contribution =     193.18416515 Ry
     hartree contribution      =      22.55226239 Ry
     xc contribution           =    -151.00933640 Ry
     ewald contribution        =    -566.24530218 Ry

     convergence has been achieved in  20 iterations

     Forces acting on atoms (cartesian axes, Ry/au):

     atom    1 type  1   force =     0.01232474    0.01165634    0.00760209
     atom    2 type  1   force =     0.02424657    0.01264517   -0.02113730
     atom    3 type  1   force =     0.00968848    0.01608271   -0.00720767
     atom    4 type  1   force =    -0.02056033    0.01409600    0.03399188
     atom    5 type  1   force =    -0.04367913    0.03330857   -0.02738837
     atom    6 type  1   force =    -0.00397120   -0.00453290    0.00797512
     atom    7 type  1   force =     0.02174965   -0.00707134    0.01400566
     atom    8 type  1   force =     0.01464962    0.00060476    0.00992157
     atom    9 type  1   force =     0.00482007    0.01304636    0.00253276
     atom   10 type  1   force =     0.00077004    0.00791863   -0.04805182
     atom   11 type  1   force =     0.01149171   -0.02266361   -0.06134112
     atom   12 type  1   force =     0.00054831   -0.00753436    0.03208348
     atom   13 type  1   force =     0.00229843   -0.00540846    0.00877005
     atom   14 type  1   force =     0.00846248    0.02809317    0.02807300
     atom   15 type  1   force =    -0.02386808   -0.02232806    0.02416625
     atom   16 type  1   force =    -0.03688850   -0.02090359    0.00338699
     atom   17 type  1   force =    -0.03781735    0.01229290    0.01364106
     atom   18 type  1   force =     0.01334098    0.00815349   -0.01194499
     atom   19 type  1   force =     0.03976730   -0.02348090    0.07292155
     atom   20 type  1   force =    -0.01083893   -0.00792846   -0.02276016
     atom   21 type  1   force =     0.01413813   -0.00485203    0.00943488
     atom   22 type  1   force =    -0.02411748   -0.02259166    0.02239773
     atom   23 type  1   force =     0.02530708    0.00324642    0.03522807
     atom   24 type  1   force =    -0.00583279    0.01431845    0.04697014
     atom   25 type  1   force =     0.00335867   -0.01964875   -0.00282676
     atom   26 type  1   force =     0.00166666    0.03022315   -0.02729518
     atom   27 type  1   force =    -0.01474114   -0.00496389   -0.00089809
     atom   28 type  1   force =     0.03691590   -0.02279068   -0.01108162
     atom   29 type  1   force =     0.00240766    0.00125200   -0.02418585
     atom   30 type  1   force =     0.00353397   -0.00837435   -0.02299061
     atom   31 type  1   force =    -0.02424667    0.02792163   -0.01118838
     atom   32 type  1   force =    -0.00522507    0.00855561   -0.01705325
     atom   33 type  1   force =    -0.02520754    0.02902608   -0.01057380
     atom   34 type  1   force =    -0.01537623   -0.01058665    0.01058867
     atom   35 type  1   force =    -0.01776541    0.03465338   -0.01080972
     atom   36 type  1   force =    -0.01258127    0.00790008    0.00693167
     atom   37 type  1   force =    -0.00479483   -0.03497688   -0.01748995
     atom   38 type  1   force =     0.00086097    0.01165117   -0.00473659
     atom   39 type  1   force =     0.00493230    0.00397410    0.03684361
     atom   40 type  1   force =    -0.00490936    0.01358306    0.00935411
     atom   41 type  1   force =     0.02217027    0.00260841    0.05424303
     atom   42 type  1   force =     0.00493996    0.00676883   -0.03570277
     atom   43 type  1   force =     0.01777933   -0.01350661   -0.04139392
     atom   44 type  1   force =    -0.01773346   -0.01878003   -0.00744261
     atom   45 type  1   force =     0.00723969   -0.01297363   -0.00151107
     atom   46 type  1   force =     0.03065632    0.00339777    0.01683292
     atom   47 type  1   force =     0.03397562    0.02224948   -0.02781690
     atom   48 type  1   force =     0.02303151   -0.00010397    0.01351895
     atom   49 type  1   force =    -0.01153104   -0.01727094    0.00480015
     atom   50 type  1   force =     0.00397226   -0.00798218   -0.03052328
     atom   51 type  1   force =    -0.00402214   -0.00129211   -0.00707091
     atom   52 type  1   force =    -0.00102941   -0.01484947    0.01596971
     atom   53 type  1   force =    -0.04617290    0.00401358    0.01959023
     atom   54 type  1   force =     0.04140600    0.00869788   -0.00726442
     atom   55 type  1   force =     0.02434232    0.00621961   -0.00160297
     atom   56 type  1   force =    -0.02196271   -0.06100060   -0.00346703
     atom   57 type  1   force =    -0.00974255    0.06811491    0.00931445
     atom   58 type  1   force =    -0.03918584   -0.08974618   -0.03988403
     atom   59 type  1   force =     0.00099546    0.02317021   -0.00175852
     atom   60 type  1   force =    -0.03313962   -0.04541846   -0.00990387
     atom   61 type  1   force =     0.04971971    0.06917411   -0.02607277
     atom   62 type  1   force =    -0.02526045   -0.00720718    0.01438403
     atom   63 type  1   force =     0.00816340   -0.04922774    0.01136079
     atom   64 type  1   force =     0.01652985    0.03137763    0.00554174

     Total force =     0.330617     Total SCF correction =     0.001863


     Computing stress (Cartesian axis) and pressure

          total   stress  (Ry/bohr**3)                   (kbar)     P=      -34.44
  -0.00025951   0.00010640   0.00005687          -38.18       15.65        8.37
   0.00010640  -0.00012150   0.00001137           15.65      -17.87        1.67
   0.00005687   0.00001137  -0.00032133            8.37        1.67      -47.27

 
     init_run     :      0.96s CPU      4.31s WALL (       1 calls)
     electrons    :      1.87s CPU      2.01s WALL (       1 calls)
     forces       :      0.03s CPU      0.03s WALL (       1 calls)
     stress       :      0.12s CPU      0.12s WALL (       1 calls)

     Called by init_run:
     wfcinit      :      0.46s CPU      3.66s WALL (       1 calls)
                                        3.66s GPU  (       1 calls)
     potinit      :      0.03s CPU      0.11s WALL (       1 calls)
     hinit0       :      0.45s CPU      0.48s WALL (       1 calls)

     Called by electrons:
     c_bands      :      1.25s CPU      1.32s WALL (      21 calls)
     sum_band     :      0.29s CPU      0.34s WALL (      21 calls)
     v_of_rho     :      0.14s CPU      0.22s WALL (      21 calls)
     mix_rho      :      0.16s CPU      0.17s WALL (      21 calls)

     Called by c_bands:
     init_us_2    :      0.05s CPU      0.06s WALL (      43 calls)
     init_us_2:gp :      0.05s CPU      0.06s WALL (      43 calls)
     regterg      :      1.10s CPU      1.17s WALL (      21 calls)

     Called by *egterg:
     rdiaghg      :      0.51s CPU      1.18s WALL (     138 calls)
                                        1.16s GPU  (     138 calls)
     h_psi        :      0.87s CPU      3.46s WALL (     140 calls)
                                        3.45s GPU  (     140 calls)
     g_psi        :      0.00s CPU      0.00s WALL (     118 calls)
                                        0.00s GPU  (     118 calls)

     Called by h_psi:
     h_psi:calbec :      0.45s CPU      2.96s WALL (     140 calls)
                                        2.96s GPU  (     140 calls)
     vloc_psi     :      0.35s CPU      0.42s WALL (     140 calls)
                                        0.42s GPU  (     140 calls)
     add_vuspsi   :      0.05s CPU      0.07s WALL (     140 calls)
                                        0.07s GPU  (     140 calls)

     General routines
     calbec       :      0.45s CPU      2.96s WALL (     145 calls)
     fft          :      0.55s CPU      0.66s WALL (     175 calls)
                                        0.11s GPU  (     111 calls)
     ffts         :      0.03s CPU      0.04s WALL (      21 calls)
     fftw         :      0.41s CPU      0.55s WALL (    1946 calls)
                                        0.48s GPU  (    1946 calls)
 
     Parallel routines
 
     PWSCF        :      3.01s CPU      6.54s WALL

 
   This run was terminated on:  15:17: 0   9May2023            

=------------------------------------------------------------------------------=
   JOB DONE.
=------------------------------------------------------------------------------=
