
     Program PWSCF v.7.1 starts on  9May2023 at 15:28:34 

     This program is part of the open-source Quantum ESPRESSO suite
     for quantum simulation of materials; please cite
         "P. Giannozzi et al., J. Phys.:Condens. Matter 21 395502 (2009);
         "P. Giannozzi et al., J. Phys.:Condens. Matter 29 465901 (2017);
         "P. Giannozzi et al., J. Chem. Phys. 152 154105 (2020);
          URL http://www.quantum-espresso.org", 
     in publications or presentations arising from this work. More details at
     http://www.quantum-espresso.org/quote

     Parallel version (MPI & OpenMP), running on       4 processor cores
     Number of MPI processes:                 4
     Threads/MPI process:                     1

     MPI processes distributed on     1 nodes
     8775 MiB available memory on the printing compute node when the environment starts
 
     Reading input from pw-si-100.in
Warning: card &CELL ignored
Warning: card / ignored

     Current dimensions of program PWSCF are:
     Max number of different atomic species (ntypx) = 10
     Max number of k-points (npk) =  40000
     Max angular momentum in pseudopotentials (lmaxx) =  4

     IMPORTANT: XC functional enforced from input :
     Exchange-correlation= PBE
                           (   1   4   3   4   0   0   0)
     Any further DFT definition will be discarded
     Please, verify this is what you really want


     gamma-point specific algorithms are used
 
     K-points division:     npool     =       2
     R & G space division:  proc/nbgrp/npool/nimage =       2
     Subspace diagonalization in iterative solution of the eigenvalue problem:
     a serial algorithm will be used

     Message from routine divide_et_impera:
     suboptimal parallelization: some nodes have no k-points
 
     Parallelization info
     --------------------
     sticks:   dense  smooth     PW     G-vecs:    dense   smooth      PW
     Min        1916    1916    502                89532    89532   12150
     Max        1917    1917    503                89537    89537   12153
     Sum        3833    3833   1005               179069   179069   24303
 
     Using Slab Decomposition
 


     bravais-lattice index     =            0
     lattice parameter (alat)  =      20.0634  a.u.
     unit-cell volume          =    8076.3658 (a.u.)^3
     number of atoms/cell      =           64
     number of atomic types    =            1
     number of electrons       =       256.00
     number of Kohn-Sham states=          128
     kinetic-energy cutoff     =      30.0000  Ry
     charge density cutoff     =     120.0000  Ry
     scf convergence threshold =      1.0E-06
     mixing beta               =       0.5000
     number of iterations used =            8  plain     mixing
     Exchange-correlation= PBE
                           (   1   4   3   4   0   0   0)

     GPU acceleration is ACTIVE.
     GPU-aware MPI enabled

     Message from routine print_cuda_info:
     High GPU oversubscription detected. Are you sure this is what you want?

     celldm(1)=  20.063437  celldm(2)=   0.000000  celldm(3)=   0.000000
     celldm(4)=   0.000000  celldm(5)=   0.000000  celldm(6)=   0.000000

     crystal axes: (cart. coord. in units of alat)
               a(1) = (   1.000000   0.000000   0.000000 )  
               a(2) = (   0.000000   1.000000   0.000000 )  
               a(3) = (   0.000000   0.000000   1.000000 )  

     reciprocal axes: (cart. coord. in units 2 pi/alat)
               b(1) = (  1.000000  0.000000  0.000000 )  
               b(2) = (  0.000000  1.000000  0.000000 )  
               b(3) = (  0.000000  0.000000  1.000000 )  


     PseudoPot. # 1 for Si read from file:
     /home/ppiaggi/pseudos/Si_ONCV_PBE_sr.upf
     MD5 check sum: 8553c464762ac42b85b1eed164b4d029
     Pseudo is Norm-conserving, Zval =  4.0
     Generated using ONCVPSP code by D. R. Hamann
     Using radial grid of 1510 points,  4 beta functions with: 
                l(1) =   0
                l(2) =   0
                l(3) =   1
                l(4) =   1

     atomic species   valence    mass     pseudopotential
        Si             4.00    28.08500     Si( 1.00)

     No symmetry found



   Cartesian axes

     site n.     atom                  positions (alat units)
         1           Si  tau(   1) = (   0.3993180   0.1009970   0.5035120  )
         2           Si  tau(   2) = (   0.3419060   0.2948250   0.9578550  )
         3           Si  tau(   3) = (   0.1377560   0.2681120   0.8078430  )
         4           Si  tau(   4) = (   0.7592670   0.2362970   0.8315350  )
         5           Si  tau(   5) = (   0.9723180   0.2350380   0.9551460  )
         6           Si  tau(   6) = (   0.5578570   0.7813540   0.3070210  )
         7           Si  tau(   7) = (   0.4847390   0.3086300   0.1662440  )
         8           Si  tau(   8) = (   0.9567270   0.7637110   0.5089130  )
         9           Si  tau(   9) = (   0.7622280   0.4853750   0.8405550  )
        10           Si  tau(  10) = (   0.9816730   0.1014320   0.6672770  )
        11           Si  tau(  11) = (   0.8718700   0.0028297   0.9425810  )
        12           Si  tau(  12) = (   0.2596130   0.0572426   0.9693500  )
        13           Si  tau(  13) = (   0.0284603   0.4093800   0.6666030  )
        14           Si  tau(  14) = (   0.4373590   0.5570350   0.0952321  )
        15           Si  tau(  15) = (   0.0775573   0.7750380   0.0979009  )
        16           Si  tau(  16) = (   0.7354730   0.0362209   0.1399360  )
        17           Si  tau(  17) = (   0.3947870   0.3495710   0.6904150  )
        18           Si  tau(  18) = (   0.1436560   0.2231850   0.1288410  )
        19           Si  tau(  19) = (   0.2660590   0.0995909   0.7049470  )
        20           Si  tau(  20) = (   0.4579660   0.9774770   0.1814880  )
        21           Si  tau(  21) = (   0.0847503   0.5827270   0.4229340  )
        22           Si  tau(  22) = (   0.3753280   0.6933400   0.8038870  )
        23           Si  tau(  23) = (   0.2217180   0.4095850   0.5726850  )
        24           Si  tau(  24) = (   0.6883640   0.7543690   0.5937010  )
        25           Si  tau(  25) = (   0.9079630   0.3724150   0.4930530  )
        26           Si  tau(  26) = (   0.9155420   0.4327290   0.0542134  )
        27           Si  tau(  27) = (   0.6796680   0.5938250   0.0243108  )
        28           Si  tau(  28) = (   0.5585730   0.1406400   0.3391130  )
        29           Si  tau(  29) = (   0.7088250   0.3286050   0.5774280  )
        30           Si  tau(  30) = (   0.3457670   0.7405420   0.2782330  )
        31           Si  tau(  31) = (   0.7913650   0.9690770   0.7153160  )
        32           Si  tau(  32) = (   0.4503370   0.8964870   0.9574680  )
        33           Si  tau(  33) = (   0.6778850   0.9203160   0.4309340  )
        34           Si  tau(  34) = (   0.0820103   0.9302080   0.8888140  )
        35           Si  tau(  35) = (   0.1834480   0.5164320   0.9659160  )
        36           Si  tau(  36) = (   0.7758840   0.2413040   0.3252120  )
        37           Si  tau(  37) = (   0.6348080   0.5211310   0.6531910  )
        38           Si  tau(  38) = (   0.2406110   0.0575619   0.2664260  )
        39           Si  tau(  39) = (   0.8557460   0.7152150   0.2079690  )
        40           Si  tau(  40) = (   0.5964550   0.1719020   0.0143229  )
        41           Si  tau(  41) = (   0.2611780   0.3926430   0.2152640  )
        42           Si  tau(  42) = (   0.3422750   0.5516070   0.4095670  )
        43           Si  tau(  43) = (   0.6389810   0.7851030   0.8256110  )
        44           Si  tau(  44) = (   0.9668940   0.1329740   0.2444450  )
        45           Si  tau(  45) = (   0.1331960   0.7042880   0.7995870  )
        46           Si  tau(  46) = (   0.9357660   0.6064870   0.7359080  )
        47           Si  tau(  47) = (   0.1213590   0.8971980   0.6123290  )
        48           Si  tau(  48) = (   0.5112920   0.3649840   0.4493660  )
        49           Si  tau(  49) = (   0.1243820   0.8605770   0.2888100  )
        50           Si  tau(  50) = (   0.8827500   0.7637580   0.9380090  )
        51           Si  tau(  51) = (   0.3056300   0.7212620   0.0306959  )
        52           Si  tau(  52) = (   0.6357060   0.1135320   0.6337880  )
        53           Si  tau(  53) = (   0.0180144   0.1716900   0.4590520  )
        54           Si  tau(  54) = (   0.6927880   0.8247920   0.0962602  )
        55           Si  tau(  55) = (   0.2578560   0.2559390   0.4240230  )
        56           Si  tau(  56) = (   0.8088800   0.5861630   0.4223320  )
        57           Si  tau(  57) = (   0.4404010   0.7314370   0.5694040  )
        58           Si  tau(  58) = (   0.5938430   0.5510500   0.3118550  )
        59           Si  tau(  59) = (   0.9064280   0.9031990   0.3224160  )
        60           Si  tau(  60) = (   0.2923520   0.9011370   0.4807100  )
        61           Si  tau(  61) = (   0.4855490   0.1078050   0.7989080  )
        62           Si  tau(  62) = (   0.0672148   0.5581380   0.1761280  )
        63           Si  tau(  63) = (   0.4741840   0.4940730   0.8563210  )
        64           Si  tau(  64) = (   0.7336800   0.4273320   0.1687900  )

     number of k points=     1
                       cart. coord. in units 2pi/alat
        k(    1) = (   0.0000000   0.0000000   0.0000000), wk =   2.0000000

     Dense  grid:    89535 G-vectors     FFT dimensions: (  72,  72,  72)

     Estimated max dynamical RAM per process >     132.15 MB

     Estimated total dynamical RAM >     506.75 MB

     Initial potential from superposition of free atoms

     starting charge     255.9608, renormalised to     256.0000
     Starting wfcs are  256 randomized atomic wfcs

     total cpu time spent up to now is        4.2 secs

     Self-consistent Calculation

     iteration #  1     ecut=    30.00 Ry     beta= 0.50
     Davidson diagonalization with overlap
     ethr =  1.00E-02,  avg # of iterations =  2.0

     Threshold (ethr) on eigenvalues was too large:
     Diagonalizing with lowered threshold

     Davidson diagonalization with overlap
     ethr =  3.56E-04,  avg # of iterations =  6.0

     total cpu time spent up to now is        4.3 secs

     total energy              =    -501.15348851 Ry
     estimated scf accuracy    <       1.16444815 Ry

     iteration #  2     ecut=    30.00 Ry     beta= 0.50
     Davidson diagonalization with overlap
     ethr =  4.55E-04,  avg # of iterations = 13.0

     total cpu time spent up to now is        4.5 secs

     total energy              =    -500.73174979 Ry
     estimated scf accuracy    <       5.17194287 Ry

     iteration #  3     ecut=    30.00 Ry     beta= 0.50
     Davidson diagonalization with overlap
     ethr =  4.55E-04,  avg # of iterations = 15.0

     total cpu time spent up to now is        4.6 secs

     total energy              =    -501.22659631 Ry
     estimated scf accuracy    <       1.80076489 Ry

     iteration #  4     ecut=    30.00 Ry     beta= 0.50
     Davidson diagonalization with overlap
     ethr =  4.55E-04,  avg # of iterations =  7.0

     total cpu time spent up to now is        4.7 secs

     total energy              =    -501.36937751 Ry
     estimated scf accuracy    <       0.33181551 Ry

     iteration #  5     ecut=    30.00 Ry     beta= 0.50
     Davidson diagonalization with overlap
     ethr =  1.30E-04,  avg # of iterations =  7.0

     total cpu time spent up to now is        4.8 secs

     total energy              =    -501.39853606 Ry
     estimated scf accuracy    <       0.13847766 Ry

     iteration #  6     ecut=    30.00 Ry     beta= 0.50
     Davidson diagonalization with overlap
     ethr =  5.41E-05,  avg # of iterations = 12.0

     total cpu time spent up to now is        5.0 secs

     total energy              =    -501.41301103 Ry
     estimated scf accuracy    <       0.16939613 Ry

     iteration #  7     ecut=    30.00 Ry     beta= 0.50
     Davidson diagonalization with overlap
     ethr =  5.41E-05,  avg # of iterations =  3.0

     total cpu time spent up to now is        5.0 secs

     total energy              =    -501.41744894 Ry
     estimated scf accuracy    <       0.03801806 Ry

     iteration #  8     ecut=    30.00 Ry     beta= 0.50
     Davidson diagonalization with overlap
     c_bands:  1 eigenvalues not converged
     ethr =  1.49E-05,  avg # of iterations = 20.0

     total cpu time spent up to now is        5.2 secs

     total energy              =    -501.42881510 Ry
     estimated scf accuracy    <       0.05583612 Ry

     iteration #  9     ecut=    30.00 Ry     beta= 0.50
     Davidson diagonalization with overlap
     ethr =  1.49E-05,  avg # of iterations =  8.0

     total cpu time spent up to now is        5.3 secs

     total energy              =    -501.42790105 Ry
     estimated scf accuracy    <       0.04228947 Ry

     iteration # 10     ecut=    30.00 Ry     beta= 0.50
     Davidson diagonalization with overlap
     ethr =  1.49E-05,  avg # of iterations =  2.0

     total cpu time spent up to now is        5.4 secs

     total energy              =    -501.42415912 Ry
     estimated scf accuracy    <       0.03241785 Ry

     iteration # 11     ecut=    30.00 Ry     beta= 0.50
     Davidson diagonalization with overlap
     ethr =  1.27E-05,  avg # of iterations =  2.0

     total cpu time spent up to now is        5.4 secs

     total energy              =    -501.42380960 Ry
     estimated scf accuracy    <       0.00868417 Ry

     iteration # 12     ecut=    30.00 Ry     beta= 0.50
     Davidson diagonalization with overlap
     c_bands:  1 eigenvalues not converged
     ethr =  3.39E-06,  avg # of iterations = 20.0

     total cpu time spent up to now is        5.6 secs

     total energy              =    -501.42955438 Ry
     estimated scf accuracy    <       0.04200134 Ry

     iteration # 13     ecut=    30.00 Ry     beta= 0.50
     Davidson diagonalization with overlap
     c_bands:  1 eigenvalues not converged
     ethr =  3.39E-06,  avg # of iterations = 20.0

     total cpu time spent up to now is        5.7 secs

     total energy              =    -501.43027488 Ry
     estimated scf accuracy    <       0.03849901 Ry

     iteration # 14     ecut=    30.00 Ry     beta= 0.50
     Davidson diagonalization with overlap
     ethr =  3.39E-06,  avg # of iterations =  2.0

     total cpu time spent up to now is        5.8 secs

     total energy              =    -501.42866344 Ry
     estimated scf accuracy    <       0.03308734 Ry

     iteration # 15     ecut=    30.00 Ry     beta= 0.50
     Davidson diagonalization with overlap
     ethr =  3.39E-06,  avg # of iterations =  1.0

     total cpu time spent up to now is        5.9 secs

     total energy              =    -501.42709446 Ry
     estimated scf accuracy    <       0.02434044 Ry

     iteration # 16     ecut=    30.00 Ry     beta= 0.50
     Davidson diagonalization with overlap
     ethr =  3.39E-06,  avg # of iterations =  2.0

     total cpu time spent up to now is        5.9 secs

     total energy              =    -501.42556972 Ry
     estimated scf accuracy    <       0.01549594 Ry

     iteration # 17     ecut=    30.00 Ry     beta= 0.50
     Davidson diagonalization with overlap
     c_bands:  1 eigenvalues not converged
     ethr =  3.39E-06,  avg # of iterations = 20.0

     total cpu time spent up to now is        6.1 secs

     total energy              =    -501.42635975 Ry
     estimated scf accuracy    <       0.00757418 Ry

     iteration # 18     ecut=    30.00 Ry     beta= 0.50
     Davidson diagonalization with overlap
     ethr =  2.96E-06,  avg # of iterations =  2.0

     total cpu time spent up to now is        6.2 secs

     total energy              =    -501.42612212 Ry
     estimated scf accuracy    <       0.00576036 Ry

     iteration # 19     ecut=    30.00 Ry     beta= 0.50
     Davidson diagonalization with overlap
     ethr =  2.25E-06,  avg # of iterations =  2.0

     total cpu time spent up to now is        6.2 secs

     total energy              =    -501.42641785 Ry
     estimated scf accuracy    <       0.00391743 Ry

     iteration # 20     ecut=    30.00 Ry     beta= 0.50
     Davidson diagonalization with overlap
     c_bands:  1 eigenvalues not converged
     ethr =  1.53E-06,  avg # of iterations = 20.0

     total cpu time spent up to now is        6.4 secs

     total energy              =    -501.42526193 Ry
     estimated scf accuracy    <       0.01143334 Ry

     iteration # 21     ecut=    30.00 Ry     beta= 0.50
     Davidson diagonalization with overlap
     c_bands:  1 eigenvalues not converged
     ethr =  1.53E-06,  avg # of iterations = 20.0

     total cpu time spent up to now is        6.6 secs

     total energy              =    -501.42878903 Ry
     estimated scf accuracy    <       0.03174215 Ry

     iteration # 22     ecut=    30.00 Ry     beta= 0.50
     Davidson diagonalization with overlap
     c_bands:  1 eigenvalues not converged
     ethr =  1.53E-06,  avg # of iterations = 20.0

     total cpu time spent up to now is        6.8 secs

     total energy              =    -501.42983570 Ry
     estimated scf accuracy    <       0.03223059 Ry

     iteration # 23     ecut=    30.00 Ry     beta= 0.50
     Davidson diagonalization with overlap
     c_bands:  1 eigenvalues not converged
     ethr =  1.53E-06,  avg # of iterations = 20.0

     total cpu time spent up to now is        6.9 secs

     total energy              =    -501.42908580 Ry
     estimated scf accuracy    <       0.03017727 Ry

     iteration # 24     ecut=    30.00 Ry     beta= 0.50
     Davidson diagonalization with overlap
     ethr =  1.53E-06,  avg # of iterations =  3.0

     total cpu time spent up to now is        7.0 secs

     total energy              =    -501.42881052 Ry
     estimated scf accuracy    <       0.02261642 Ry

     iteration # 25     ecut=    30.00 Ry     beta= 0.50
     Davidson diagonalization with overlap
     ethr =  1.53E-06,  avg # of iterations =  1.0

     total cpu time spent up to now is        7.1 secs

     total energy              =    -501.42728778 Ry
     estimated scf accuracy    <       0.02032572 Ry

     iteration # 26     ecut=    30.00 Ry     beta= 0.50
     Davidson diagonalization with overlap
     c_bands:  1 eigenvalues not converged
     ethr =  1.53E-06,  avg # of iterations = 20.0

     total cpu time spent up to now is        7.2 secs

     total energy              =    -501.42721512 Ry
     estimated scf accuracy    <       0.01267178 Ry

     iteration # 27     ecut=    30.00 Ry     beta= 0.50
     Davidson diagonalization with overlap
     c_bands:  1 eigenvalues not converged
     ethr =  1.53E-06,  avg # of iterations = 20.0

     total cpu time spent up to now is        7.4 secs

     total energy              =    -501.42756962 Ry
     estimated scf accuracy    <       0.00697346 Ry

     iteration # 28     ecut=    30.00 Ry     beta= 0.50
     Davidson diagonalization with overlap
     ethr =  1.53E-06,  avg # of iterations =  1.0

     total cpu time spent up to now is        7.4 secs

     total energy              =    -501.42724576 Ry
     estimated scf accuracy    <       0.00650035 Ry

     iteration # 29     ecut=    30.00 Ry     beta= 0.50
     Davidson diagonalization with overlap
     ethr =  1.53E-06,  avg # of iterations =  2.0

     total cpu time spent up to now is        7.5 secs

     total energy              =    -501.42594280 Ry
     estimated scf accuracy    <       0.00553791 Ry

     iteration # 30     ecut=    30.00 Ry     beta= 0.50
     Davidson diagonalization with overlap
     c_bands:  1 eigenvalues not converged
     ethr =  1.53E-06,  avg # of iterations = 20.0

     total cpu time spent up to now is        7.7 secs

     total energy              =    -501.42822899 Ry
     estimated scf accuracy    <       0.03773939 Ry

     iteration # 31     ecut=    30.00 Ry     beta= 0.50
     Davidson diagonalization with overlap
     c_bands:  1 eigenvalues not converged
     ethr =  1.53E-06,  avg # of iterations = 20.0

     total cpu time spent up to now is        7.8 secs

     total energy              =    -501.42813773 Ry
     estimated scf accuracy    <       0.02913392 Ry

     iteration # 32     ecut=    30.00 Ry     beta= 0.50
     Davidson diagonalization with overlap
     ethr =  1.53E-06,  avg # of iterations = 13.0

     total cpu time spent up to now is        8.0 secs

     total energy              =    -501.42787564 Ry
     estimated scf accuracy    <       0.01688522 Ry

     iteration # 33     ecut=    30.00 Ry     beta= 0.50
     Davidson diagonalization with overlap
     ethr =  1.53E-06,  avg # of iterations =  1.0

     total cpu time spent up to now is        8.0 secs

     total energy              =    -501.42760935 Ry
     estimated scf accuracy    <       0.01307761 Ry

     iteration # 34     ecut=    30.00 Ry     beta= 0.50
     Davidson diagonalization with overlap
     ethr =  1.53E-06,  avg # of iterations =  1.0

     total cpu time spent up to now is        8.1 secs

     total energy              =    -501.42411515 Ry
     estimated scf accuracy    <       0.01127155 Ry

     iteration # 35     ecut=    30.00 Ry     beta= 0.50
     Davidson diagonalization with overlap
     c_bands:  1 eigenvalues not converged
     ethr =  1.53E-06,  avg # of iterations = 20.0

     total cpu time spent up to now is        8.3 secs

     total energy              =    -501.42943845 Ry
     estimated scf accuracy    <       0.05575524 Ry

     iteration # 36     ecut=    30.00 Ry     beta= 0.50
     Davidson diagonalization with overlap
     ethr =  1.53E-06,  avg # of iterations = 17.0

     total cpu time spent up to now is        8.4 secs

     total energy              =    -501.42894921 Ry
     estimated scf accuracy    <       0.03469000 Ry

     iteration # 37     ecut=    30.00 Ry     beta= 0.50
     Davidson diagonalization with overlap
     ethr =  1.53E-06,  avg # of iterations =  2.0

     total cpu time spent up to now is        8.5 secs

     total energy              =    -501.42929791 Ry
     estimated scf accuracy    <       0.02779492 Ry

     iteration # 38     ecut=    30.00 Ry     beta= 0.50
     Davidson diagonalization with overlap
     ethr =  1.53E-06,  avg # of iterations =  1.0

     total cpu time spent up to now is        8.6 secs

     total energy              =    -501.42998277 Ry
     estimated scf accuracy    <       0.02663877 Ry

     iteration # 39     ecut=    30.00 Ry     beta= 0.50
     Davidson diagonalization with overlap
     ethr =  1.53E-06,  avg # of iterations =  1.0

     total cpu time spent up to now is        8.6 secs

     total energy              =    -501.42766320 Ry
     estimated scf accuracy    <       0.02808192 Ry

     iteration # 40     ecut=    30.00 Ry     beta= 0.50
     Davidson diagonalization with overlap
     ethr =  1.53E-06,  avg # of iterations =  2.0

     total cpu time spent up to now is        8.7 secs

     total energy              =    -501.42721470 Ry
     estimated scf accuracy    <       0.01866577 Ry

     iteration # 41     ecut=    30.00 Ry     beta= 0.50
     Davidson diagonalization with overlap
     ethr =  1.53E-06,  avg # of iterations =  2.0

     total cpu time spent up to now is        8.8 secs

     total energy              =    -501.42675998 Ry
     estimated scf accuracy    <       0.01416423 Ry

     iteration # 42     ecut=    30.00 Ry     beta= 0.50
     Davidson diagonalization with overlap
     ethr =  1.53E-06,  avg # of iterations =  1.0

     total cpu time spent up to now is        8.8 secs

     total energy              =    -501.42646624 Ry
     estimated scf accuracy    <       0.01108000 Ry

     iteration # 43     ecut=    30.00 Ry     beta= 0.50
     Davidson diagonalization with overlap
     ethr =  1.53E-06,  avg # of iterations =  1.0

     total cpu time spent up to now is        8.9 secs

     total energy              =    -501.42394216 Ry
     estimated scf accuracy    <       0.00886888 Ry

     iteration # 44     ecut=    30.00 Ry     beta= 0.50
     Davidson diagonalization with overlap
     c_bands:  1 eigenvalues not converged
     ethr =  1.53E-06,  avg # of iterations = 20.0

     total cpu time spent up to now is        9.1 secs

     total energy              =    -501.43246283 Ry
     estimated scf accuracy    <       0.05343386 Ry

     iteration # 45     ecut=    30.00 Ry     beta= 0.50
     Davidson diagonalization with overlap
     ethr =  1.53E-06,  avg # of iterations =  2.0

     total cpu time spent up to now is        9.1 secs

     total energy              =    -501.43030619 Ry
     estimated scf accuracy    <       0.04541672 Ry

     iteration # 46     ecut=    30.00 Ry     beta= 0.50
     Davidson diagonalization with overlap
     ethr =  1.53E-06,  avg # of iterations =  2.0

     total cpu time spent up to now is        9.2 secs

     total energy              =    -501.43131698 Ry
     estimated scf accuracy    <       0.03429653 Ry

     iteration # 47     ecut=    30.00 Ry     beta= 0.50
     Davidson diagonalization with overlap
     ethr =  1.53E-06,  avg # of iterations =  1.0

     total cpu time spent up to now is        9.3 secs

     total energy              =    -501.43139699 Ry
     estimated scf accuracy    <       0.03587128 Ry

     iteration # 48     ecut=    30.00 Ry     beta= 0.50
     Davidson diagonalization with overlap
     ethr =  1.53E-06,  avg # of iterations =  1.0

     total cpu time spent up to now is        9.3 secs

     total energy              =    -501.42801480 Ry
     estimated scf accuracy    <       0.03568929 Ry

     iteration # 49     ecut=    30.00 Ry     beta= 0.50
     Davidson diagonalization with overlap
     ethr =  1.53E-06,  avg # of iterations =  9.0

     total cpu time spent up to now is        9.5 secs

     total energy              =    -501.42781946 Ry
     estimated scf accuracy    <       0.01852069 Ry

     iteration # 50     ecut=    30.00 Ry     beta= 0.50
     Davidson diagonalization with overlap
     ethr =  1.53E-06,  avg # of iterations =  1.0

     total cpu time spent up to now is        9.5 secs

     total energy              =    -501.42712046 Ry
     estimated scf accuracy    <       0.01533312 Ry

     iteration # 51     ecut=    30.00 Ry     beta= 0.50
     Davidson diagonalization with overlap
     ethr =  1.53E-06,  avg # of iterations =  2.0

     total cpu time spent up to now is        9.6 secs

     total energy              =    -501.42610951 Ry
     estimated scf accuracy    <       0.01163534 Ry

     iteration # 52     ecut=    30.00 Ry     beta= 0.50
     Davidson diagonalization with overlap
     ethr =  1.53E-06,  avg # of iterations =  7.0

     total cpu time spent up to now is        9.7 secs

     total energy              =    -501.42485761 Ry
     estimated scf accuracy    <       0.00440832 Ry

     iteration # 53     ecut=    30.00 Ry     beta= 0.50
     Davidson diagonalization with overlap
     c_bands:  1 eigenvalues not converged
     ethr =  1.53E-06,  avg # of iterations = 20.0

     total cpu time spent up to now is        9.8 secs

     total energy              =    -501.42662538 Ry
     estimated scf accuracy    <       0.00750971 Ry

     iteration # 54     ecut=    30.00 Ry     beta= 0.50
     Davidson diagonalization with overlap
     c_bands:  1 eigenvalues not converged
     ethr =  1.53E-06,  avg # of iterations = 20.0

     total cpu time spent up to now is       10.0 secs

     total energy              =    -501.43151044 Ry
     estimated scf accuracy    <       0.05501576 Ry

     iteration # 55     ecut=    30.00 Ry     beta= 0.50
     Davidson diagonalization with overlap
     c_bands:  1 eigenvalues not converged
     ethr =  1.53E-06,  avg # of iterations = 20.0

     total cpu time spent up to now is       10.1 secs

     total energy              =    -501.43077635 Ry
     estimated scf accuracy    <       0.05333486 Ry

     iteration # 56     ecut=    30.00 Ry     beta= 0.50
     Davidson diagonalization with overlap
     ethr =  1.53E-06,  avg # of iterations =  2.0

     total cpu time spent up to now is       10.2 secs

     total energy              =    -501.42808482 Ry
     estimated scf accuracy    <       0.03862863 Ry

     iteration # 57     ecut=    30.00 Ry     beta= 0.50
     Davidson diagonalization with overlap
     ethr =  1.53E-06,  avg # of iterations =  6.0

     total cpu time spent up to now is       10.3 secs

     total energy              =    -501.42744953 Ry
     estimated scf accuracy    <       0.02225068 Ry

     iteration # 58     ecut=    30.00 Ry     beta= 0.50
     Davidson diagonalization with overlap
     ethr =  1.53E-06,  avg # of iterations =  2.0

     total cpu time spent up to now is       10.4 secs

     total energy              =    -501.42766467 Ry
     estimated scf accuracy    <       0.01609249 Ry

     iteration # 59     ecut=    30.00 Ry     beta= 0.50
     Davidson diagonalization with overlap
     ethr =  1.53E-06,  avg # of iterations =  1.0

     total cpu time spent up to now is       10.4 secs

     total energy              =    -501.42787249 Ry
     estimated scf accuracy    <       0.01551475 Ry

     iteration # 60     ecut=    30.00 Ry     beta= 0.50
     Davidson diagonalization with overlap
     ethr =  1.53E-06,  avg # of iterations =  1.0

     total cpu time spent up to now is       10.5 secs

     total energy              =    -501.42819749 Ry
     estimated scf accuracy    <       0.01546079 Ry

     iteration # 61     ecut=    30.00 Ry     beta= 0.50
     Davidson diagonalization with overlap
     ethr =  1.53E-06,  avg # of iterations =  1.0

     total cpu time spent up to now is       10.6 secs

     total energy              =    -501.42424590 Ry
     estimated scf accuracy    <       0.01633816 Ry

     iteration # 62     ecut=    30.00 Ry     beta= 0.50
     Davidson diagonalization with overlap
     c_bands:  1 eigenvalues not converged
     ethr =  1.53E-06,  avg # of iterations = 20.0

     total cpu time spent up to now is       10.7 secs

     total energy              =    -501.43112862 Ry
     estimated scf accuracy    <       0.03510498 Ry

     iteration # 63     ecut=    30.00 Ry     beta= 0.50
     Davidson diagonalization with overlap
     ethr =  1.53E-06,  avg # of iterations = 10.0

     total cpu time spent up to now is       10.8 secs

     total energy              =    -501.42974188 Ry
     estimated scf accuracy    <       0.03209531 Ry

     iteration # 64     ecut=    30.00 Ry     beta= 0.50
     Davidson diagonalization with overlap
     ethr =  1.53E-06,  avg # of iterations =  2.0

     total cpu time spent up to now is       10.9 secs

     total energy              =    -501.42822375 Ry
     estimated scf accuracy    <       0.02599845 Ry

     iteration # 65     ecut=    30.00 Ry     beta= 0.50
     Davidson diagonalization with overlap
     ethr =  1.53E-06,  avg # of iterations =  2.0

     total cpu time spent up to now is       11.0 secs

     total energy              =    -501.42775467 Ry
     estimated scf accuracy    <       0.01861198 Ry

     iteration # 66     ecut=    30.00 Ry     beta= 0.50
     Davidson diagonalization with overlap
     ethr =  1.53E-06,  avg # of iterations =  1.0

     total cpu time spent up to now is       11.1 secs

     total energy              =    -501.42742992 Ry
     estimated scf accuracy    <       0.01552933 Ry

     iteration # 67     ecut=    30.00 Ry     beta= 0.50
     Davidson diagonalization with overlap
     ethr =  1.53E-06,  avg # of iterations =  1.0

     total cpu time spent up to now is       11.1 secs

     total energy              =    -501.42710504 Ry
     estimated scf accuracy    <       0.01301898 Ry

     iteration # 68     ecut=    30.00 Ry     beta= 0.50
     Davidson diagonalization with overlap
     ethr =  1.53E-06,  avg # of iterations =  2.0

     total cpu time spent up to now is       11.2 secs

     total energy              =    -501.42671997 Ry
     estimated scf accuracy    <       0.01063156 Ry

     iteration # 69     ecut=    30.00 Ry     beta= 0.50
     Davidson diagonalization with overlap
     ethr =  1.53E-06,  avg # of iterations =  2.0

     total cpu time spent up to now is       11.3 secs

     total energy              =    -501.42614637 Ry
     estimated scf accuracy    <       0.00798950 Ry

     iteration # 70     ecut=    30.00 Ry     beta= 0.50
     Davidson diagonalization with overlap
     ethr =  1.53E-06,  avg # of iterations = 16.0

     total cpu time spent up to now is       11.4 secs

     total energy              =    -501.42516840 Ry
     estimated scf accuracy    <       0.00385012 Ry

     iteration # 71     ecut=    30.00 Ry     beta= 0.50
     Davidson diagonalization with overlap
     ethr =  1.50E-06,  avg # of iterations = 13.0

     total cpu time spent up to now is       11.5 secs

     total energy              =    -501.42635572 Ry
     estimated scf accuracy    <       0.00228476 Ry

     iteration # 72     ecut=    30.00 Ry     beta= 0.50
     Davidson diagonalization with overlap
     ethr =  8.92E-07,  avg # of iterations =  2.0

     total cpu time spent up to now is       11.6 secs

     total energy              =    -501.42650330 Ry
     estimated scf accuracy    <       0.00230253 Ry

     iteration # 73     ecut=    30.00 Ry     beta= 0.50
     Davidson diagonalization with overlap
     ethr =  8.92E-07,  avg # of iterations =  1.0

     total cpu time spent up to now is       11.7 secs

     total energy              =    -501.42656140 Ry
     estimated scf accuracy    <       0.00301452 Ry

     iteration # 74     ecut=    30.00 Ry     beta= 0.50
     Davidson diagonalization with overlap
     ethr =  8.92E-07,  avg # of iterations =  2.0

     total cpu time spent up to now is       11.7 secs

     total energy              =    -501.42622413 Ry
     estimated scf accuracy    <       0.00366765 Ry

     iteration # 75     ecut=    30.00 Ry     beta= 0.50
     Davidson diagonalization with overlap
     ethr =  8.92E-07,  avg # of iterations =  3.0

     total cpu time spent up to now is       11.8 secs

     total energy              =    -501.42597651 Ry
     estimated scf accuracy    <       0.00206802 Ry

     iteration # 76     ecut=    30.00 Ry     beta= 0.50
     Davidson diagonalization with overlap
     ethr =  8.08E-07,  avg # of iterations =  3.0

     total cpu time spent up to now is       11.9 secs

     total energy              =    -501.42612491 Ry
     estimated scf accuracy    <       0.00042261 Ry

     iteration # 77     ecut=    30.00 Ry     beta= 0.50
     Davidson diagonalization with overlap
     c_bands:  1 eigenvalues not converged
     ethr =  1.65E-07,  avg # of iterations = 20.0

     total cpu time spent up to now is       12.1 secs

     total energy              =    -501.43093876 Ry
     estimated scf accuracy    <       0.03701071 Ry

     iteration # 78     ecut=    30.00 Ry     beta= 0.50
     Davidson diagonalization with overlap
     ethr =  1.65E-07,  avg # of iterations = 15.0

     total cpu time spent up to now is       12.2 secs

     total energy              =    -501.42776250 Ry
     estimated scf accuracy    <       0.03139546 Ry

     iteration # 79     ecut=    30.00 Ry     beta= 0.50
     Davidson diagonalization with overlap
     ethr =  1.65E-07,  avg # of iterations = 10.0

     total cpu time spent up to now is       12.3 secs

     total energy              =    -501.43033101 Ry
     estimated scf accuracy    <       0.01824993 Ry

     iteration # 80     ecut=    30.00 Ry     beta= 0.50
     Davidson diagonalization with overlap
     ethr =  1.65E-07,  avg # of iterations = 14.0

     total cpu time spent up to now is       12.5 secs

     total energy              =    -501.43003068 Ry
     estimated scf accuracy    <       0.02837558 Ry

     iteration # 81     ecut=    30.00 Ry     beta= 0.50
     Davidson diagonalization with overlap
     ethr =  1.65E-07,  avg # of iterations =  8.0

     total cpu time spent up to now is       12.6 secs

     total energy              =    -501.43095623 Ry
     estimated scf accuracy    <       0.02345995 Ry

     iteration # 82     ecut=    30.00 Ry     beta= 0.50
     Davidson diagonalization with overlap
     ethr =  1.65E-07,  avg # of iterations = 10.0

     total cpu time spent up to now is       12.7 secs

     total energy              =    -501.43076060 Ry
     estimated scf accuracy    <       0.02838384 Ry

     iteration # 83     ecut=    30.00 Ry     beta= 0.50
     Davidson diagonalization with overlap
     ethr =  1.65E-07,  avg # of iterations =  3.0

     total cpu time spent up to now is       12.8 secs

     total energy              =    -501.43105144 Ry
     estimated scf accuracy    <       0.02759751 Ry

     iteration # 84     ecut=    30.00 Ry     beta= 0.50
     Davidson diagonalization with overlap
     ethr =  1.65E-07,  avg # of iterations =  2.0

     total cpu time spent up to now is       12.9 secs

     total energy              =    -501.43143246 Ry
     estimated scf accuracy    <       0.02852984 Ry

     iteration # 85     ecut=    30.00 Ry     beta= 0.50
     Davidson diagonalization with overlap
     ethr =  1.65E-07,  avg # of iterations =  1.0

     total cpu time spent up to now is       12.9 secs

     total energy              =    -501.42135090 Ry
     estimated scf accuracy    <       0.03017006 Ry

     iteration # 86     ecut=    30.00 Ry     beta= 0.50
     Davidson diagonalization with overlap
     c_bands:  2 eigenvalues not converged
     ethr =  1.65E-07,  avg # of iterations = 20.0

     total cpu time spent up to now is       13.1 secs

     total energy              =    -501.42956058 Ry
     estimated scf accuracy    <       0.05564978 Ry

     iteration # 87     ecut=    30.00 Ry     beta= 0.50
     Davidson diagonalization with overlap
     c_bands:  1 eigenvalues not converged
     ethr =  1.65E-07,  avg # of iterations = 20.0

     total cpu time spent up to now is       13.3 secs

     total energy              =    -501.42848120 Ry
     estimated scf accuracy    <       0.03237880 Ry

     iteration # 88     ecut=    30.00 Ry     beta= 0.50
     Davidson diagonalization with overlap
     ethr =  1.65E-07,  avg # of iterations = 16.0

     total cpu time spent up to now is       13.5 secs

     total energy              =    -501.42701495 Ry
     estimated scf accuracy    <       0.01573273 Ry

     iteration # 89     ecut=    30.00 Ry     beta= 0.50
     Davidson diagonalization with overlap
     c_bands:  1 eigenvalues not converged
     ethr =  1.65E-07,  avg # of iterations = 20.0

     total cpu time spent up to now is       13.6 secs

     total energy              =    -501.42784664 Ry
     estimated scf accuracy    <       0.01120145 Ry

     iteration # 90     ecut=    30.00 Ry     beta= 0.50
     Davidson diagonalization with overlap
     c_bands:  1 eigenvalues not converged
     ethr =  1.65E-07,  avg # of iterations = 20.0

     total cpu time spent up to now is       13.8 secs

     total energy              =    -501.42758895 Ry
     estimated scf accuracy    <       0.01093746 Ry

     iteration # 91     ecut=    30.00 Ry     beta= 0.50
     Davidson diagonalization with overlap
     ethr =  1.65E-07,  avg # of iterations =  3.0

     total cpu time spent up to now is       13.9 secs

     total energy              =    -501.42747954 Ry
     estimated scf accuracy    <       0.00949899 Ry

     iteration # 92     ecut=    30.00 Ry     beta= 0.50
     Davidson diagonalization with overlap
     ethr =  1.65E-07,  avg # of iterations =  1.0

     total cpu time spent up to now is       13.9 secs

     total energy              =    -501.42726740 Ry
     estimated scf accuracy    <       0.00882586 Ry

     iteration # 93     ecut=    30.00 Ry     beta= 0.50
     Davidson diagonalization with overlap
     ethr =  1.65E-07,  avg # of iterations =  1.0

     total cpu time spent up to now is       14.0 secs

     total energy              =    -501.42702117 Ry
     estimated scf accuracy    <       0.00786331 Ry

     iteration # 94     ecut=    30.00 Ry     beta= 0.50
     Davidson diagonalization with overlap
     ethr =  1.65E-07,  avg # of iterations =  2.0

     total cpu time spent up to now is       14.1 secs

     total energy              =    -501.42597214 Ry
     estimated scf accuracy    <       0.00662638 Ry

     iteration # 95     ecut=    30.00 Ry     beta= 0.50
     Davidson diagonalization with overlap
     c_bands:  1 eigenvalues not converged
     ethr =  1.65E-07,  avg # of iterations = 20.0

     total cpu time spent up to now is       14.3 secs

     total energy              =    -501.43042109 Ry
     estimated scf accuracy    <       0.02394982 Ry

     iteration # 96     ecut=    30.00 Ry     beta= 0.50
     Davidson diagonalization with overlap
     ethr =  1.65E-07,  avg # of iterations =  6.0

     total cpu time spent up to now is       14.3 secs

     total energy              =    -501.42891226 Ry
     estimated scf accuracy    <       0.02436668 Ry

     iteration # 97     ecut=    30.00 Ry     beta= 0.50
     Davidson diagonalization with overlap
     ethr =  1.65E-07,  avg # of iterations = 12.0

     total cpu time spent up to now is       14.5 secs

     total energy              =    -501.42883922 Ry
     estimated scf accuracy    <       0.01774023 Ry

     iteration # 98     ecut=    30.00 Ry     beta= 0.50
     Davidson diagonalization with overlap
     ethr =  1.65E-07,  avg # of iterations =  1.0

     total cpu time spent up to now is       14.5 secs

     total energy              =    -501.42815094 Ry
     estimated scf accuracy    <       0.01665834 Ry

     iteration # 99     ecut=    30.00 Ry     beta= 0.50
     Davidson diagonalization with overlap
     ethr =  1.65E-07,  avg # of iterations =  5.0

     total cpu time spent up to now is       14.6 secs

     total energy              =    -501.42810240 Ry
     estimated scf accuracy    <       0.01271257 Ry

     iteration #100     ecut=    30.00 Ry     beta= 0.50
     Davidson diagonalization with overlap
     ethr =  1.65E-07,  avg # of iterations =  1.0

     total cpu time spent up to now is       14.7 secs

     total energy              =    -501.42805003 Ry
     estimated scf accuracy    <       0.01207844 Ry

     End of self-consistent calculation

     convergence NOT achieved after 100 iterations: stopping

     Writing config to output data dir ./pwscf.save/
     Message from routine punch:
     wavefunctions written to file
 
     init_run     :      1.15s CPU      4.10s WALL (       1 calls)
     electrons    :      9.98s CPU     10.55s WALL (       1 calls)

     Called by init_run:
     wfcinit      :      0.65s CPU      3.44s WALL (       1 calls)
                                        3.44s GPU  (       1 calls)
     potinit      :      0.03s CPU      0.12s WALL (       1 calls)
     hinit0       :      0.45s CPU      0.48s WALL (       1 calls)

     Called by electrons:
     c_bands      :      6.89s CPU      7.20s WALL (     101 calls)
     sum_band     :      1.41s CPU      1.60s WALL (     101 calls)
     v_of_rho     :      0.58s CPU      0.68s WALL (     101 calls)
     mix_rho      :      0.88s CPU      0.90s WALL (     101 calls)

     Called by c_bands:
     init_us_2    :      0.25s CPU      0.28s WALL (     203 calls)
     init_us_2:gp :      0.25s CPU      0.27s WALL (     203 calls)
     regterg      :      6.19s CPU      6.45s WALL (     101 calls)

     Called by *egterg:
     rdiaghg      :      3.01s CPU      3.66s WALL (     924 calls)
                                        3.52s GPU  (     924 calls)
     h_psi        :      2.97s CPU      5.34s WALL (     926 calls)
                                        5.32s GPU  (     926 calls)
     g_psi        :      0.00s CPU      0.02s WALL (     824 calls)
                                        0.02s GPU  (     824 calls)

     Called by h_psi:
     h_psi:calbec :      0.88s CPU      3.08s WALL (     926 calls)
                                        3.08s GPU  (     926 calls)
     vloc_psi     :      1.59s CPU      1.75s WALL (     926 calls)
                                        1.72s GPU  (     926 calls)
     add_vuspsi   :      0.37s CPU      0.46s WALL (     926 calls)
                                        0.45s GPU  (     926 calls)

     General routines
     calbec       :      0.87s CPU      3.07s WALL (     926 calls)
     fft          :      0.89s CPU      1.04s WALL (     809 calls)
                                        0.17s GPU  (     505 calls)
     ffts         :      0.15s CPU      0.16s WALL (     101 calls)
     fftw         :      1.89s CPU      2.38s WALL (    9750 calls)
                                        2.06s GPU  (    9750 calls)
     davcio       :      0.00s CPU      0.00s WALL (      19 calls)
 
     Parallel routines
 
     PWSCF        :     11.17s CPU     14.74s WALL

 
   This run was terminated on:  15:28:48   9May2023            

=------------------------------------------------------------------------------=
   JOB DONE.
=------------------------------------------------------------------------------=
