An instance of this daemon is already running

     Program PWSCF v.7.1 starts on  9May2023 at 15:15:38 

     This program is part of the open-source Quantum ESPRESSO suite
     for quantum simulation of materials; please cite
         "P. Giannozzi et al., J. Phys.:Condens. Matter 21 395502 (2009);
         "P. Giannozzi et al., J. Phys.:Condens. Matter 29 465901 (2017);
         "P. Giannozzi et al., J. Chem. Phys. 152 154105 (2020);
          URL http://www.quantum-espresso.org", 
     in publications or presentations arising from this work. More details at
     http://www.quantum-espresso.org/quote

     Parallel version (MPI & OpenMP), running on       4 processor cores
     Number of MPI processes:                 4
     Threads/MPI process:                     1

     MPI processes distributed on     1 nodes
     8307 MiB available memory on the printing compute node when the environment starts
 
     Reading input from pw-si-43.in
Warning: card &CELL ignored
Warning: card / ignored

     Current dimensions of program PWSCF are:
     Max number of different atomic species (ntypx) = 10
     Max number of k-points (npk) =  40000
     Max angular momentum in pseudopotentials (lmaxx) =  4

     IMPORTANT: XC functional enforced from input :
     Exchange-correlation= PBE
                           (   1   4   3   4   0   0   0)
     Any further DFT definition will be discarded
     Please, verify this is what you really want


     gamma-point specific algorithms are used
 
     K-points division:     npool     =       2
     R & G space division:  proc/nbgrp/npool/nimage =       2
     Subspace diagonalization in iterative solution of the eigenvalue problem:
     a serial algorithm will be used

     Message from routine divide_et_impera:
     suboptimal parallelization: some nodes have no k-points
 
     Parallelization info
     --------------------
     sticks:   dense  smooth     PW     G-vecs:    dense   smooth      PW
     Min        1945    1945    519                91431    91431   12442
     Max        1948    1948    522                91436    91436   12443
     Sum        3893    3893   1041               182867   182867   24885
 
     Using Slab Decomposition
 


     bravais-lattice index     =            0
     lattice parameter (alat)  =      20.2057  a.u.
     unit-cell volume          =    8249.3280 (a.u.)^3
     number of atoms/cell      =           64
     number of atomic types    =            1
     number of electrons       =       256.00
     number of Kohn-Sham states=          128
     kinetic-energy cutoff     =      30.0000  Ry
     charge density cutoff     =     120.0000  Ry
     scf convergence threshold =      1.0E-06
     mixing beta               =       0.5000
     number of iterations used =            8  plain     mixing
     Exchange-correlation= PBE
                           (   1   4   3   4   0   0   0)

     GPU acceleration is ACTIVE.
     GPU-aware MPI enabled

     Message from routine print_cuda_info:
     High GPU oversubscription detected. Are you sure this is what you want?

     celldm(1)=  20.205651  celldm(2)=   0.000000  celldm(3)=   0.000000
     celldm(4)=   0.000000  celldm(5)=   0.000000  celldm(6)=   0.000000

     crystal axes: (cart. coord. in units of alat)
               a(1) = (   1.000000   0.000000   0.000000 )  
               a(2) = (   0.000000   1.000000   0.000000 )  
               a(3) = (   0.000000   0.000000   1.000000 )  

     reciprocal axes: (cart. coord. in units 2 pi/alat)
               b(1) = (  1.000000  0.000000  0.000000 )  
               b(2) = (  0.000000  1.000000  0.000000 )  
               b(3) = (  0.000000  0.000000  1.000000 )  


     PseudoPot. # 1 for Si read from file:
     /home/ppiaggi/pseudos/Si_ONCV_PBE_sr.upf
     MD5 check sum: 8553c464762ac42b85b1eed164b4d029
     Pseudo is Norm-conserving, Zval =  4.0
     Generated using ONCVPSP code by D. R. Hamann
     Using radial grid of 1510 points,  4 beta functions with: 
                l(1) =   0
                l(2) =   0
                l(3) =   1
                l(4) =   1

     atomic species   valence    mass     pseudopotential
        Si             4.00    28.08500     Si( 1.00)

     No symmetry found



   Cartesian axes

     site n.     atom                  positions (alat units)
         1           Si  tau(   1) = (   0.5378250   0.3051770   0.4485060  )
         2           Si  tau(   2) = (   0.9215620   0.2596530   0.5138190  )
         3           Si  tau(   3) = (   0.8824250   0.9778390   0.8111140  )
         4           Si  tau(   4) = (   0.4873450   0.8042110   0.2502960  )
         5           Si  tau(   5) = (   0.6108990   0.5544480   0.6920850  )
         6           Si  tau(   6) = (   0.9665320   0.5830950   0.7528210  )
         7           Si  tau(   7) = (   0.7598620   0.0752420   0.5216060  )
         8           Si  tau(   8) = (   0.1408340   0.0795101   0.1667300  )
         9           Si  tau(   9) = (   0.1216230   0.1682140   0.4666510  )
        10           Si  tau(  10) = (   0.9212030   0.6227560   0.3610740  )
        11           Si  tau(  11) = (   0.7881470   0.8251070   0.5912430  )
        12           Si  tau(  12) = (   0.4623040   0.5518500   0.1548280  )
        13           Si  tau(  13) = (   0.7272380   0.7154170   0.7912890  )
        14           Si  tau(  14) = (   0.3598150   0.1252310   0.4496450  )
        15           Si  tau(  15) = (   0.9958280   0.5870150   0.9672780  )
        16           Si  tau(  16) = (   0.7711770   0.5276020   0.0138241  )
        17           Si  tau(  17) = (   0.9028560   0.1445810   0.0022059  )
        18           Si  tau(  18) = (   0.6215020   0.9050270   0.8800760  )
        19           Si  tau(  19) = (   0.2984740   0.8219970   0.0832741  )
        20           Si  tau(  20) = (   0.0945565   0.2871170   0.2540810  )
        21           Si  tau(  21) = (   0.6849610   0.6825240   0.1754150  )
        22           Si  tau(  22) = (   0.3325090   0.0154189   0.2536890  )
        23           Si  tau(  23) = (   0.2624590   0.2616880   0.0173633  )
        24           Si  tau(  24) = (   0.0340744   0.1436310   0.7463880  )
        25           Si  tau(  25) = (   0.1510950   0.3574910   0.6288130  )
        26           Si  tau(  26) = (   0.5608540   0.8676620   0.4411310  )
        27           Si  tau(  27) = (   0.2907100   0.2654330   0.7895200  )
        28           Si  tau(  28) = (   0.3780000   0.4268100   0.4732580  )
        29           Si  tau(  29) = (   0.3398120   0.6820120   0.3697410  )
        30           Si  tau(  30) = (   0.7256890   0.6612470   0.4114480  )
        31           Si  tau(  31) = (   0.1574350   0.6616990   0.1305640  )
        32           Si  tau(  32) = (   0.7365770   0.4458560   0.5059140  )
        33           Si  tau(  33) = (   0.7537210   0.2374700   0.8258590  )
        34           Si  tau(  34) = (   0.3228360   0.7303000   0.7124300  )
        35           Si  tau(  35) = (   0.8719490   0.3875720   0.7193520  )
        36           Si  tau(  36) = (   0.6198270   0.0961623   0.7064580  )
        37           Si  tau(  37) = (   0.9480240   0.7996950   0.9939830  )
        38           Si  tau(  38) = (   0.4322090   0.9967460   0.5924860  )
        39           Si  tau(  39) = (   0.8821530   0.3791670   0.3042430  )
        40           Si  tau(  40) = (   0.1368480   0.5023990   0.4157630  )
        41           Si  tau(  41) = (   0.4191500   0.7969200   0.9032590  )
        42           Si  tau(  42) = (   0.2506280   0.9165910   0.6580260  )
        43           Si  tau(  43) = (   0.4264830   0.5859440   0.9479950  )
        44           Si  tau(  44) = (   0.1623400   0.5757170   0.6921350  )
        45           Si  tau(  45) = (   0.7503370   0.3506030   0.1445700  )
        46           Si  tau(  46) = (   0.5027990   0.2943690   0.7177300  )
        47           Si  tau(  47) = (   0.4647140   0.6669480   0.5811450  )
        48           Si  tau(  48) = (   0.5492150   0.3552810   0.2263800  )
        49           Si  tau(  49) = (   0.6052300   0.4543150   0.8887780  )
        50           Si  tau(  50) = (   0.9624060   0.0029691   0.3245370  )
        51           Si  tau(  51) = (   0.7447720   0.8689630   0.0841725  )
        52           Si  tau(  52) = (   0.9814190   0.7109560   0.5560540  )
        53           Si  tau(  53) = (   0.9989490   0.7881810   0.2388240  )
        54           Si  tau(  54) = (   0.4670050   0.1954590   0.1031320  )
        55           Si  tau(  55) = (   0.2445560   0.4807490   0.2140090  )
        56           Si  tau(  56) = (   0.2596410   0.0144557   0.8528410  )
        57           Si  tau(  57) = (   0.2259830   0.4807520   0.9180640  )
        58           Si  tau(  58) = (   0.0181497   0.3462110   0.0532612  )
        59           Si  tau(  59) = (   0.7945320   0.0654042   0.2195230  )
        60           Si  tau(  60) = (   0.1024610   0.9776020   0.9802670  )
        61           Si  tau(  61) = (   0.6215190   0.0766223   0.3614560  )
        62           Si  tau(  62) = (   0.0492228   0.9430370   0.5668240  )
        63           Si  tau(  63) = (   0.6461510   0.1367390   0.0096671  )
        64           Si  tau(  64) = (   0.1908130   0.8520600   0.3889810  )

     number of k points=     1
                       cart. coord. in units 2pi/alat
        k(    1) = (   0.0000000   0.0000000   0.0000000), wk =   2.0000000

     Dense  grid:    91434 G-vectors     FFT dimensions: (  72,  72,  72)

     Estimated max dynamical RAM per process >     134.66 MB

     Estimated total dynamical RAM >     516.31 MB

     Initial potential from superposition of free atoms

     starting charge     255.9608, renormalised to     256.0000
     Starting wfcs are  256 randomized atomic wfcs

     total cpu time spent up to now is        4.1 secs

     Self-consistent Calculation

     iteration #  1     ecut=    30.00 Ry     beta= 0.50
     Davidson diagonalization with overlap
     ethr =  1.00E-02,  avg # of iterations =  2.0

     Threshold (ethr) on eigenvalues was too large:
     Diagonalizing with lowered threshold

     Davidson diagonalization with overlap
     ethr =  4.76E-04,  avg # of iterations =  4.0

     total cpu time spent up to now is        4.3 secs

     total energy              =    -501.24731866 Ry
     estimated scf accuracy    <       1.47692590 Ry

     iteration #  2     ecut=    30.00 Ry     beta= 0.50
     Davidson diagonalization with overlap
     ethr =  5.77E-04,  avg # of iterations = 10.0

     total cpu time spent up to now is        4.4 secs

     total energy              =    -500.94324621 Ry
     estimated scf accuracy    <       3.57088501 Ry

     iteration #  3     ecut=    30.00 Ry     beta= 0.50
     Davidson diagonalization with overlap
     ethr =  5.77E-04,  avg # of iterations = 11.0

     total cpu time spent up to now is        4.6 secs

     total energy              =    -501.37555617 Ry
     estimated scf accuracy    <       1.48012657 Ry

     iteration #  4     ecut=    30.00 Ry     beta= 0.50
     Davidson diagonalization with overlap
     ethr =  5.77E-04,  avg # of iterations =  8.0

     total cpu time spent up to now is        4.7 secs

     total energy              =    -501.47739890 Ry
     estimated scf accuracy    <       0.34086302 Ry

     iteration #  5     ecut=    30.00 Ry     beta= 0.50
     Davidson diagonalization with overlap
     ethr =  1.33E-04,  avg # of iterations =  6.0

     total cpu time spent up to now is        4.8 secs

     total energy              =    -501.51831936 Ry
     estimated scf accuracy    <       0.12594394 Ry

     iteration #  6     ecut=    30.00 Ry     beta= 0.50
     Davidson diagonalization with overlap
     ethr =  4.92E-05,  avg # of iterations = 13.0

     total cpu time spent up to now is        4.9 secs

     total energy              =    -501.53424495 Ry
     estimated scf accuracy    <       0.06882438 Ry

     iteration #  7     ecut=    30.00 Ry     beta= 0.50
     Davidson diagonalization with overlap
     ethr =  2.69E-05,  avg # of iterations =  8.0

     total cpu time spent up to now is        5.0 secs

     total energy              =    -501.53916554 Ry
     estimated scf accuracy    <       0.01076175 Ry

     iteration #  8     ecut=    30.00 Ry     beta= 0.50
     Davidson diagonalization with overlap
     ethr =  4.20E-06,  avg # of iterations = 11.0

     total cpu time spent up to now is        5.1 secs

     total energy              =    -501.54127339 Ry
     estimated scf accuracy    <       0.00598889 Ry

     iteration #  9     ecut=    30.00 Ry     beta= 0.50
     Davidson diagonalization with overlap
     ethr =  2.34E-06,  avg # of iterations = 13.0

     total cpu time spent up to now is        5.3 secs

     total energy              =    -501.54151051 Ry
     estimated scf accuracy    <       0.00556763 Ry

     iteration # 10     ecut=    30.00 Ry     beta= 0.50
     Davidson diagonalization with overlap
     ethr =  2.17E-06,  avg # of iterations =  3.0

     total cpu time spent up to now is        5.3 secs

     total energy              =    -501.54161125 Ry
     estimated scf accuracy    <       0.00151777 Ry

     iteration # 11     ecut=    30.00 Ry     beta= 0.50
     Davidson diagonalization with overlap
     ethr =  5.93E-07,  avg # of iterations = 14.0

     total cpu time spent up to now is        5.5 secs

     total energy              =    -501.54192782 Ry
     estimated scf accuracy    <       0.00090705 Ry

     iteration # 12     ecut=    30.00 Ry     beta= 0.50
     Davidson diagonalization with overlap
     ethr =  3.54E-07,  avg # of iterations =  2.0

     total cpu time spent up to now is        5.6 secs

     total energy              =    -501.54188900 Ry
     estimated scf accuracy    <       0.00045738 Ry

     iteration # 13     ecut=    30.00 Ry     beta= 0.50
     Davidson diagonalization with overlap
     ethr =  1.79E-07,  avg # of iterations = 16.0

     total cpu time spent up to now is        5.7 secs

     total energy              =    -501.54196873 Ry
     estimated scf accuracy    <       0.00013800 Ry

     iteration # 14     ecut=    30.00 Ry     beta= 0.50
     Davidson diagonalization with overlap
     ethr =  5.39E-08,  avg # of iterations =  8.0

     total cpu time spent up to now is        5.8 secs

     total energy              =    -501.54196403 Ry
     estimated scf accuracy    <       0.00010172 Ry

     iteration # 15     ecut=    30.00 Ry     beta= 0.50
     Davidson diagonalization with overlap
     ethr =  3.97E-08,  avg # of iterations =  3.0

     total cpu time spent up to now is        5.9 secs

     total energy              =    -501.54196165 Ry
     estimated scf accuracy    <       0.00003744 Ry

     iteration # 16     ecut=    30.00 Ry     beta= 0.50
     Davidson diagonalization with overlap
     ethr =  1.46E-08,  avg # of iterations = 15.0

     total cpu time spent up to now is        6.0 secs

     total energy              =    -501.54197291 Ry
     estimated scf accuracy    <       0.00003355 Ry

     iteration # 17     ecut=    30.00 Ry     beta= 0.50
     Davidson diagonalization with overlap
     ethr =  1.31E-08,  avg # of iterations =  2.0

     total cpu time spent up to now is        6.1 secs

     total energy              =    -501.54197084 Ry
     estimated scf accuracy    <       0.00002684 Ry

     iteration # 18     ecut=    30.00 Ry     beta= 0.50
     Davidson diagonalization with overlap
     ethr =  1.05E-08,  avg # of iterations =  3.0

     total cpu time spent up to now is        6.2 secs

     total energy              =    -501.54197008 Ry
     estimated scf accuracy    <       0.00001109 Ry

     iteration # 19     ecut=    30.00 Ry     beta= 0.50
     Davidson diagonalization with overlap
     ethr =  4.33E-09,  avg # of iterations = 16.0

     total cpu time spent up to now is        6.3 secs

     total energy              =    -501.54197267 Ry
     estimated scf accuracy    <       0.00000431 Ry

     iteration # 20     ecut=    30.00 Ry     beta= 0.50
     Davidson diagonalization with overlap
     ethr =  1.68E-09,  avg # of iterations =  2.0

     total cpu time spent up to now is        6.4 secs

     total energy              =    -501.54197222 Ry
     estimated scf accuracy    <       0.00000466 Ry

     iteration # 21     ecut=    30.00 Ry     beta= 0.50
     Davidson diagonalization with overlap
     ethr =  1.68E-09,  avg # of iterations =  3.0

     total cpu time spent up to now is        6.5 secs

     total energy              =    -501.54197215 Ry
     estimated scf accuracy    <       0.00000175 Ry

     iteration # 22     ecut=    30.00 Ry     beta= 0.50
     Davidson diagonalization with overlap
     ethr =  6.85E-10,  avg # of iterations = 15.0

     total cpu time spent up to now is        6.6 secs

     End of self-consistent calculation

          k = 0.0000 0.0000 0.0000 ( 11492 PWs)   bands (ev):

    -5.4636  -4.5118  -4.4313  -4.3587  -4.3123  -4.2666  -4.1104  -3.6415
    -3.4687  -3.3385  -3.2778  -3.2433  -3.2041  -3.1584  -3.1110  -3.0924
    -2.9201  -2.7752  -2.7110  -2.3686  -2.2274  -2.1232  -2.0564  -1.9370
    -1.6563  -1.5439  -1.4432  -1.1957  -1.1248  -0.8961  -0.8322  -0.7335
    -0.5290  -0.4667  -0.3588  -0.2463  -0.1712  -0.0771  -0.0049   0.0470
     0.1556   0.2775   0.3393   0.3777   0.5222   0.5651   0.7365   0.8726
     0.9484   1.0553   1.0977   1.1543   1.2755   1.3283   1.4473   1.5269
     1.6046   1.6809   1.8015   1.9938   2.0139   2.1775   2.2611   2.2781
     2.3902   2.4824   2.5279   2.5958   2.6883   2.7529   2.8169   2.9010
     2.9635   2.9908   3.1556   3.1677   3.3081   3.3355   3.4237   3.4647
     3.5393   3.8670   4.1484   4.2217   4.2931   4.3690   4.4173   4.4676
     4.5337   4.5698   4.7024   4.7211   4.8285   4.8629   4.8894   4.9612
     5.0163   5.1304   5.1514   5.2147   5.2483   5.2684   5.3270   5.3568
     5.3886   5.5162   5.5609   5.6355   5.6463   5.7099   5.7761   5.8574
     5.9236   6.0447   6.0974   6.1997   6.2561   6.3155   6.3735   6.4134
     6.4572   6.4761   6.5444   6.6103   6.7023   6.7131   6.8397   6.9396

     highest occupied level (ev):     6.9396

!    total energy              =    -501.54197222 Ry
     estimated scf accuracy    <       0.00000029 Ry

     The total energy is the sum of the following terms:
     one-electron contribution =     181.37096545 Ry
     hartree contribution      =      25.89474394 Ry
     xc contribution           =    -151.30177594 Ry
     ewald contribution        =    -557.50590568 Ry

     convergence has been achieved in  22 iterations

     Forces acting on atoms (cartesian axes, Ry/au):

     atom    1 type  1   force =     0.08026325   -0.06320530   -0.00955086
     atom    2 type  1   force =    -0.02604718    0.00437781    0.02435288
     atom    3 type  1   force =     0.00136212    0.01386132    0.00133504
     atom    4 type  1   force =    -0.03472308   -0.00580250   -0.04211703
     atom    5 type  1   force =     0.03659966   -0.02881016   -0.02584298
     atom    6 type  1   force =    -0.09464273    0.00555450    0.01199516
     atom    7 type  1   force =     0.02293739   -0.01555229    0.05705225
     atom    8 type  1   force =    -0.00471645    0.02091987    0.02668686
     atom    9 type  1   force =     0.02070309    0.01783908   -0.00208539
     atom   10 type  1   force =     0.07171638   -0.04783464   -0.01733601
     atom   11 type  1   force =     0.00095715    0.02904079    0.01246921
     atom   12 type  1   force =    -0.00205417   -0.01593912    0.05340349
     atom   13 type  1   force =     0.03102283    0.02833429   -0.02433033
     atom   14 type  1   force =    -0.02231721    0.05896779   -0.04826956
     atom   15 type  1   force =    -0.00832355   -0.02491250    0.02519473
     atom   16 type  1   force =     0.01598772    0.03144484    0.01528345
     atom   17 type  1   force =    -0.01679949    0.00559835   -0.01099790
     atom   18 type  1   force =     0.01318036    0.01963985    0.00879215
     atom   19 type  1   force =     0.00237671    0.02625414    0.01102220
     atom   20 type  1   force =     0.01025953    0.00856397    0.02528402
     atom   21 type  1   force =    -0.04581970   -0.03082416    0.03639082
     atom   22 type  1   force =     0.01004139   -0.02071682    0.00403265
     atom   23 type  1   force =    -0.01572609    0.02054561   -0.01769522
     atom   24 type  1   force =     0.01175248   -0.02486837    0.00703668
     atom   25 type  1   force =     0.00684215   -0.01051282   -0.02109371
     atom   26 type  1   force =     0.01304215    0.00474023    0.04424215
     atom   27 type  1   force =    -0.02228141   -0.02080294    0.01599513
     atom   28 type  1   force =    -0.09604237    0.07788443    0.02889396
     atom   29 type  1   force =    -0.00318093   -0.02914710    0.02282107
     atom   30 type  1   force =    -0.07066203    0.01407683    0.00619202
     atom   31 type  1   force =    -0.01775966    0.00944047   -0.02591448
     atom   32 type  1   force =    -0.03013577    0.01032978    0.03480357
     atom   33 type  1   force =    -0.01765200   -0.02665907    0.05865200
     atom   34 type  1   force =    -0.05463584   -0.02592751    0.06110737
     atom   35 type  1   force =     0.01103799   -0.00718350   -0.07872289
     atom   36 type  1   force =    -0.00918044   -0.01640647   -0.01042203
     atom   37 type  1   force =    -0.01946368    0.05718027    0.02831418
     atom   38 type  1   force =     0.07942817   -0.00303710    0.01127548
     atom   39 type  1   force =     0.03607811    0.02512497    0.06640674
     atom   40 type  1   force =     0.02759698   -0.00381472    0.00334679
     atom   41 type  1   force =     0.02022393    0.01478376   -0.01178746
     atom   42 type  1   force =    -0.05152123    0.02701427    0.00877686
     atom   43 type  1   force =    -0.00717408   -0.03633779   -0.01651703
     atom   44 type  1   force =     0.06604449   -0.01591597   -0.01609624
     atom   45 type  1   force =    -0.01271890   -0.01497332   -0.02262305
     atom   46 type  1   force =     0.01849307    0.00676499   -0.00789921
     atom   47 type  1   force =     0.02513755   -0.03854800   -0.09983727
     atom   48 type  1   force =    -0.00194521    0.00706079    0.00400547
     atom   49 type  1   force =    -0.02558575   -0.03994064   -0.04775216
     atom   50 type  1   force =     0.06845762   -0.02488188    0.02959673
     atom   51 type  1   force =     0.03678639    0.05247535   -0.01202958
     atom   52 type  1   force =     0.02118865    0.01951520    0.00708821
     atom   53 type  1   force =     0.02856272    0.02182376    0.00440722
     atom   54 type  1   force =    -0.06052333   -0.00669732    0.03410152
     atom   55 type  1   force =     0.03160726   -0.00876425    0.02483762
     atom   56 type  1   force =     0.02341451    0.06116233   -0.04441144
     atom   57 type  1   force =     0.02736835   -0.01965011    0.00321564
     atom   58 type  1   force =     0.00962817   -0.01227948   -0.00746462
     atom   59 type  1   force =    -0.06025503   -0.01362138   -0.09266164
     atom   60 type  1   force =    -0.06030449   -0.02646793    0.02497622
     atom   61 type  1   force =    -0.02309313    0.01752948   -0.02349395
     atom   62 type  1   force =    -0.01107586   -0.01537826   -0.02176136
     atom   63 type  1   force =     0.04799023   -0.02017918   -0.04288569
     atom   64 type  1   force =    -0.00172774   -0.00225652   -0.04178848

     Total force =     0.462513     Total SCF correction =     0.001067


     Computing stress (Cartesian axis) and pressure

          total   stress  (Ry/bohr**3)                   (kbar)     P=      -12.80
   0.00006546  -0.00010160   0.00000487            9.63      -14.95        0.72
  -0.00010160  -0.00026494   0.00000291          -14.95      -38.97        0.43
   0.00000487   0.00000291  -0.00006147            0.72        0.43       -9.04

 
     init_run     :      0.93s CPU      4.09s WALL (       1 calls)
     electrons    :      2.31s CPU      2.46s WALL (       1 calls)
     forces       :      0.03s CPU      0.03s WALL (       1 calls)
     stress       :      0.12s CPU      0.13s WALL (       1 calls)

     Called by init_run:
     wfcinit      :      0.43s CPU      3.44s WALL (       1 calls)
                                        3.44s GPU  (       1 calls)
     potinit      :      0.03s CPU      0.11s WALL (       1 calls)
     hinit0       :      0.45s CPU      0.48s WALL (       1 calls)

     Called by electrons:
     c_bands      :      1.62s CPU      1.70s WALL (      23 calls)
     sum_band     :      0.34s CPU      0.38s WALL (      23 calls)
     v_of_rho     :      0.14s CPU      0.23s WALL (      23 calls)
     mix_rho      :      0.17s CPU      0.18s WALL (      23 calls)

     Called by c_bands:
     init_us_2    :      0.06s CPU      0.06s WALL (      47 calls)
     init_us_2:gp :      0.06s CPU      0.06s WALL (      47 calls)
     regterg      :      1.45s CPU      1.52s WALL (      23 calls)

     Called by *egterg:
     rdiaghg      :      0.74s CPU      1.35s WALL (     210 calls)
                                        1.32s GPU  (     210 calls)
     h_psi        :      0.92s CPU      3.37s WALL (     212 calls)
                                        3.36s GPU  (     212 calls)
     g_psi        :      0.00s CPU      0.01s WALL (     188 calls)
                                        0.00s GPU  (     188 calls)

     Called by h_psi:
     h_psi:calbec :      0.42s CPU      2.80s WALL (     212 calls)
                                        2.79s GPU  (     212 calls)
     vloc_psi     :      0.38s CPU      0.45s WALL (     212 calls)
                                        0.44s GPU  (     212 calls)
     add_vuspsi   :      0.09s CPU      0.11s WALL (     212 calls)
                                        0.11s GPU  (     212 calls)

     General routines
     calbec       :      0.43s CPU      2.80s WALL (     217 calls)
     fft          :      0.56s CPU      0.67s WALL (     191 calls)
                                        0.11s GPU  (     121 calls)
     ffts         :      0.03s CPU      0.04s WALL (      23 calls)
     fftw         :      0.45s CPU      0.60s WALL (    2232 calls)
                                        0.52s GPU  (    2232 calls)
 
     Parallel routines
 
     PWSCF        :      3.43s CPU      6.77s WALL

 
   This run was terminated on:  15:15:44   9May2023            

=------------------------------------------------------------------------------=
   JOB DONE.
=------------------------------------------------------------------------------=
