An instance of this daemon is already running

     Program PWSCF v.7.1 starts on  9May2023 at 15:20:35 

     This program is part of the open-source Quantum ESPRESSO suite
     for quantum simulation of materials; please cite
         "P. Giannozzi et al., J. Phys.:Condens. Matter 21 395502 (2009);
         "P. Giannozzi et al., J. Phys.:Condens. Matter 29 465901 (2017);
         "P. Giannozzi et al., J. Chem. Phys. 152 154105 (2020);
          URL http://www.quantum-espresso.org", 
     in publications or presentations arising from this work. More details at
     http://www.quantum-espresso.org/quote

     Parallel version (MPI & OpenMP), running on       4 processor cores
     Number of MPI processes:                 4
     Threads/MPI process:                     1

     MPI processes distributed on     1 nodes
     7255 MiB available memory on the printing compute node when the environment starts
 
     Reading input from pw-si-65.in
Warning: card &CELL ignored
Warning: card / ignored

     Current dimensions of program PWSCF are:
     Max number of different atomic species (ntypx) = 10
     Max number of k-points (npk) =  40000
     Max angular momentum in pseudopotentials (lmaxx) =  4

     IMPORTANT: XC functional enforced from input :
     Exchange-correlation= PBE
                           (   1   4   3   4   0   0   0)
     Any further DFT definition will be discarded
     Please, verify this is what you really want


     gamma-point specific algorithms are used
 
     K-points division:     npool     =       2
     R & G space division:  proc/nbgrp/npool/nimage =       2
     Subspace diagonalization in iterative solution of the eigenvalue problem:
     a serial algorithm will be used

     Message from routine divide_et_impera:
     suboptimal parallelization: some nodes have no k-points
 
     Parallelization info
     --------------------
     sticks:   dense  smooth     PW     G-vecs:    dense   smooth      PW
     Min        1945    1945    516                91383    91383   12416
     Max        1948    1948    517                91388    91388   12421
     Sum        3893    3893   1033               182771   182771   24837
 
     Using Slab Decomposition
 


     bravais-lattice index     =            0
     lattice parameter (alat)  =      20.1816  a.u.
     unit-cell volume          =    8219.8862 (a.u.)^3
     number of atoms/cell      =           64
     number of atomic types    =            1
     number of electrons       =       256.00
     number of Kohn-Sham states=          128
     kinetic-energy cutoff     =      30.0000  Ry
     charge density cutoff     =     120.0000  Ry
     scf convergence threshold =      1.0E-06
     mixing beta               =       0.5000
     number of iterations used =            8  plain     mixing
     Exchange-correlation= PBE
                           (   1   4   3   4   0   0   0)

     GPU acceleration is ACTIVE.
     GPU-aware MPI enabled

     Message from routine print_cuda_info:
     High GPU oversubscription detected. Are you sure this is what you want?

     celldm(1)=  20.181585  celldm(2)=   0.000000  celldm(3)=   0.000000
     celldm(4)=   0.000000  celldm(5)=   0.000000  celldm(6)=   0.000000

     crystal axes: (cart. coord. in units of alat)
               a(1) = (   1.000000   0.000000   0.000000 )  
               a(2) = (   0.000000   1.000000   0.000000 )  
               a(3) = (   0.000000   0.000000   1.000000 )  

     reciprocal axes: (cart. coord. in units 2 pi/alat)
               b(1) = (  1.000000  0.000000  0.000000 )  
               b(2) = (  0.000000  1.000000  0.000000 )  
               b(3) = (  0.000000  0.000000  1.000000 )  


     PseudoPot. # 1 for Si read from file:
     /home/ppiaggi/pseudos/Si_ONCV_PBE_sr.upf
     MD5 check sum: 8553c464762ac42b85b1eed164b4d029
     Pseudo is Norm-conserving, Zval =  4.0
     Generated using ONCVPSP code by D. R. Hamann
     Using radial grid of 1510 points,  4 beta functions with: 
                l(1) =   0
                l(2) =   0
                l(3) =   1
                l(4) =   1

     atomic species   valence    mass     pseudopotential
        Si             4.00    28.08500     Si( 1.00)

     No symmetry found



   Cartesian axes

     site n.     atom                  positions (alat units)
         1           Si  tau(   1) = (   0.5667850   0.6727490   0.6759840  )
         2           Si  tau(   2) = (   0.6472140   0.7910140   0.2700280  )
         3           Si  tau(   3) = (   0.4672010   0.3000800   0.1200630  )
         4           Si  tau(   4) = (   0.8464660   0.8006340   0.9495260  )
         5           Si  tau(   5) = (   0.4343800   0.7930560   0.9091820  )
         6           Si  tau(   6) = (   0.8754800   0.1955680   0.2499100  )
         7           Si  tau(   7) = (   0.7724920   0.6483080   0.7918880  )
         8           Si  tau(   8) = (   0.8177850   0.4345610   0.7481010  )
         9           Si  tau(   9) = (   0.3205690   0.6370180   0.3689510  )
        10           Si  tau(  10) = (   0.1006150   0.4098620   0.4714340  )
        11           Si  tau(  11) = (   0.1303930   0.9396540   0.8019340  )
        12           Si  tau(  12) = (   0.6482360   0.3638190   0.9247670  )
        13           Si  tau(  13) = (   0.5025890   0.4811890   0.3016290  )
        14           Si  tau(  14) = (   0.4438250   0.9609970   0.5463020  )
        15           Si  tau(  15) = (   0.7051700   0.4207420   0.1843810  )
        16           Si  tau(  16) = (   0.7810210   0.6362490   0.1910590  )
        17           Si  tau(  17) = (   0.0144242   0.4782090   0.0670838  )
        18           Si  tau(  18) = (   0.4609260   0.5190940   0.9875640  )
        19           Si  tau(  19) = (   0.7006330   0.0587014   0.2909440  )
        20           Si  tau(  20) = (   0.6788290   0.9803640   0.5711430  )
        21           Si  tau(  21) = (   0.5144890   0.7480390   0.4661800  )
        22           Si  tau(  22) = (   0.2987280   0.3312680   0.5546360  )
        23           Si  tau(  23) = (   0.4161800   0.2713680   0.3628610  )
        24           Si  tau(  24) = (   0.8660580   0.3239000   0.4735110  )
        25           Si  tau(  25) = (   0.0799450   0.7505380   0.4916150  )
        26           Si  tau(  26) = (   0.8640310   0.3228620   0.0247899  )
        27           Si  tau(  27) = (   0.6622670   0.1498370   0.8885330  )
        28           Si  tau(  28) = (   0.2424820   0.2637400   0.9844120  )
        29           Si  tau(  29) = (   0.9315320   0.8937560   0.7350730  )
        30           Si  tau(  30) = (   0.3609050   0.1397390   0.8351960  )
        31           Si  tau(  31) = (   0.0189958   0.8396490   0.2410040  )
        32           Si  tau(  32) = (   0.5920560   0.1187180   0.1142860  )
        33           Si  tau(  33) = (   0.0578309   0.1987910   0.6693060  )
        34           Si  tau(  34) = (   0.0930120   0.6925340   0.8326070  )
        35           Si  tau(  35) = (   0.4795190   0.9246930   0.1310930  )
        36           Si  tau(  36) = (   0.2305580   0.9751590   0.0202358  )
        37           Si  tau(  37) = (   0.5987080   0.1892410   0.4610930  )
        38           Si  tau(  38) = (   0.1040370   0.9961640   0.4256350  )
        39           Si  tau(  39) = (   0.4008140   0.5042670   0.7392070  )
        40           Si  tau(  40) = (   0.2064490   0.4540640   0.9183560  )
        41           Si  tau(  41) = (   0.8584480   0.7495360   0.5771170  )
        42           Si  tau(  42) = (   0.2560380   0.8280430   0.2513700  )
        43           Si  tau(  43) = (   0.3339060   0.7880840   0.6929150  )
        44           Si  tau(  44) = (   0.0242415   0.1632900   0.9149030  )
        45           Si  tau(  45) = (   0.8373650   0.0748113   0.7215520  )
        46           Si  tau(  46) = (   0.9008980   0.0904432   0.4974580  )
        47           Si  tau(  47) = (   0.8318390   0.8705080   0.3874080  )
        48           Si  tau(  48) = (   0.3381160   0.0422977   0.3573550  )
        49           Si  tau(  49) = (   0.1761180   0.5756450   0.6286270  )
        50           Si  tau(  50) = (   0.2626590   0.1155960   0.6321640  )
        51           Si  tau(  51) = (   0.8591390   0.0197799   0.0037919  )
        52           Si  tau(  52) = (   0.1511160   0.4133210   0.2552650  )
        53           Si  tau(  53) = (   0.2458730   0.7148550   0.0166539  )
        54           Si  tau(  54) = (   0.2104390   0.2086730   0.2044150  )
        55           Si  tau(  55) = (   0.6821850   0.3869100   0.5675740  )
        56           Si  tau(  56) = (   0.5050780   0.2895500   0.7256200  )
        57           Si  tau(  57) = (   0.5242690   0.9769730   0.7886710  )
        58           Si  tau(  58) = (   0.2943870   0.5626250   0.1772200  )
        59           Si  tau(  59) = (   0.6517010   0.5537520   0.4470310  )
        60           Si  tau(  60) = (   0.9748420   0.6933940   0.0705777  )
        61           Si  tau(  61) = (   0.6263510   0.7013840   0.9979390  )
        62           Si  tau(  62) = (   0.0527541   0.0505938   0.1651090  )
        63           Si  tau(  63) = (   0.8806550   0.5630570   0.4080430  )
        64           Si  tau(  64) = (   0.0201839   0.4156020   0.7376150  )

     number of k points=     1
                       cart. coord. in units 2pi/alat
        k(    1) = (   0.0000000   0.0000000   0.0000000), wk =   2.0000000

     Dense  grid:    91386 G-vectors     FFT dimensions: (  72,  72,  72)

     Estimated max dynamical RAM per process >     134.30 MB

     Estimated total dynamical RAM >     514.87 MB

     Initial potential from superposition of free atoms

     starting charge     255.9608, renormalised to     256.0000
     Starting wfcs are  256 randomized atomic wfcs

     total cpu time spent up to now is        4.2 secs

     Self-consistent Calculation

     iteration #  1     ecut=    30.00 Ry     beta= 0.50
     Davidson diagonalization with overlap
     ethr =  1.00E-02,  avg # of iterations =  2.0

     Threshold (ethr) on eigenvalues was too large:
     Diagonalizing with lowered threshold

     Davidson diagonalization with overlap
     ethr =  3.35E-04,  avg # of iterations =  6.0

     total cpu time spent up to now is        4.3 secs

     total energy              =    -501.21344564 Ry
     estimated scf accuracy    <       1.09611801 Ry

     iteration #  2     ecut=    30.00 Ry     beta= 0.50
     Davidson diagonalization with overlap
     ethr =  4.28E-04,  avg # of iterations =  6.0

     total cpu time spent up to now is        4.4 secs

     total energy              =    -501.08495639 Ry
     estimated scf accuracy    <       1.45775860 Ry

     iteration #  3     ecut=    30.00 Ry     beta= 0.50
     Davidson diagonalization with overlap
     ethr =  4.28E-04,  avg # of iterations =  6.0

     total cpu time spent up to now is        4.5 secs

     total energy              =    -501.24300407 Ry
     estimated scf accuracy    <       1.54421478 Ry

     iteration #  4     ecut=    30.00 Ry     beta= 0.50
     Davidson diagonalization with overlap
     ethr =  4.28E-04,  avg # of iterations =  3.0

     total cpu time spent up to now is        4.6 secs

     total energy              =    -501.35925716 Ry
     estimated scf accuracy    <       0.19766445 Ry

     iteration #  5     ecut=    30.00 Ry     beta= 0.50
     Davidson diagonalization with overlap
     ethr =  7.72E-05,  avg # of iterations = 15.0

     total cpu time spent up to now is        4.8 secs

     total energy              =    -501.39602561 Ry
     estimated scf accuracy    <       0.10326158 Ry

     iteration #  6     ecut=    30.00 Ry     beta= 0.50
     Davidson diagonalization with overlap
     ethr =  4.03E-05,  avg # of iterations =  7.0

     total cpu time spent up to now is        4.9 secs

     total energy              =    -501.39938011 Ry
     estimated scf accuracy    <       0.07144064 Ry

     iteration #  7     ecut=    30.00 Ry     beta= 0.50
     Davidson diagonalization with overlap
     ethr =  2.79E-05,  avg # of iterations = 16.0

     total cpu time spent up to now is        5.0 secs

     total energy              =    -501.40461958 Ry
     estimated scf accuracy    <       0.01566906 Ry

     iteration #  8     ecut=    30.00 Ry     beta= 0.50
     Davidson diagonalization with overlap
     ethr =  6.12E-06,  avg # of iterations = 19.0

     total cpu time spent up to now is        5.2 secs

     total energy              =    -501.40668651 Ry
     estimated scf accuracy    <       0.00421978 Ry

     iteration #  9     ecut=    30.00 Ry     beta= 0.50
     Davidson diagonalization with overlap
     c_bands:  1 eigenvalues not converged
     ethr =  1.65E-06,  avg # of iterations = 20.0

     total cpu time spent up to now is        5.3 secs

     total energy              =    -501.40686395 Ry
     estimated scf accuracy    <       0.01239573 Ry

     iteration # 10     ecut=    30.00 Ry     beta= 0.50
     Davidson diagonalization with overlap
     ethr =  1.65E-06,  avg # of iterations = 13.0

     total cpu time spent up to now is        5.5 secs

     total energy              =    -501.40748417 Ry
     estimated scf accuracy    <       0.00291959 Ry

     iteration # 11     ecut=    30.00 Ry     beta= 0.50
     Davidson diagonalization with overlap
     ethr =  1.14E-06,  avg # of iterations = 18.0

     total cpu time spent up to now is        5.6 secs

     total energy              =    -501.40762876 Ry
     estimated scf accuracy    <       0.00080178 Ry

     iteration # 12     ecut=    30.00 Ry     beta= 0.50
     Davidson diagonalization with overlap
     ethr =  3.13E-07,  avg # of iterations = 20.0

     total cpu time spent up to now is        5.8 secs

     total energy              =    -501.40765814 Ry
     estimated scf accuracy    <       0.00168177 Ry

     iteration # 13     ecut=    30.00 Ry     beta= 0.50
     Davidson diagonalization with overlap
     c_bands:  1 eigenvalues not converged
     ethr =  3.13E-07,  avg # of iterations = 20.0

     total cpu time spent up to now is        5.9 secs

     total energy              =    -501.40775503 Ry
     estimated scf accuracy    <       0.00091766 Ry

     iteration # 14     ecut=    30.00 Ry     beta= 0.50
     Davidson diagonalization with overlap
     ethr =  3.13E-07,  avg # of iterations = 12.0

     total cpu time spent up to now is        6.0 secs

     total energy              =    -501.40778095 Ry
     estimated scf accuracy    <       0.00032056 Ry

     iteration # 15     ecut=    30.00 Ry     beta= 0.50
     Davidson diagonalization with overlap
     c_bands:  1 eigenvalues not converged
     ethr =  1.25E-07,  avg # of iterations = 20.0

     total cpu time spent up to now is        6.2 secs

     total energy              =    -501.40780863 Ry
     estimated scf accuracy    <       0.00011695 Ry

     iteration # 16     ecut=    30.00 Ry     beta= 0.50
     Davidson diagonalization with overlap
     ethr =  4.57E-08,  avg # of iterations = 13.0

     total cpu time spent up to now is        6.3 secs

     total energy              =    -501.40781661 Ry
     estimated scf accuracy    <       0.00005881 Ry

     iteration # 17     ecut=    30.00 Ry     beta= 0.50
     Davidson diagonalization with overlap
     c_bands:  1 eigenvalues not converged
     ethr =  2.30E-08,  avg # of iterations = 20.0

     total cpu time spent up to now is        6.5 secs

     total energy              =    -501.40781786 Ry
     estimated scf accuracy    <       0.00003802 Ry

     iteration # 18     ecut=    30.00 Ry     beta= 0.50
     Davidson diagonalization with overlap
     ethr =  1.49E-08,  avg # of iterations = 13.0

     total cpu time spent up to now is        6.6 secs

     total energy              =    -501.40781876 Ry
     estimated scf accuracy    <       0.00001653 Ry

     iteration # 19     ecut=    30.00 Ry     beta= 0.50
     Davidson diagonalization with overlap
     c_bands:  1 eigenvalues not converged
     ethr =  6.46E-09,  avg # of iterations = 20.0

     total cpu time spent up to now is        6.8 secs

     total energy              =    -501.40781636 Ry
     estimated scf accuracy    <       0.00017469 Ry

     iteration # 20     ecut=    30.00 Ry     beta= 0.50
     Davidson diagonalization with overlap
     c_bands:  1 eigenvalues not converged
     ethr =  6.46E-09,  avg # of iterations = 20.0

     total cpu time spent up to now is        7.0 secs

     total energy              =    -501.40782080 Ry
     estimated scf accuracy    <       0.00002994 Ry

     iteration # 21     ecut=    30.00 Ry     beta= 0.50
     Davidson diagonalization with overlap
     c_bands:  1 eigenvalues not converged
     ethr =  6.46E-09,  avg # of iterations = 20.0

     total cpu time spent up to now is        7.1 secs

     total energy              =    -501.40782147 Ry
     estimated scf accuracy    <       0.00000736 Ry

     iteration # 22     ecut=    30.00 Ry     beta= 0.50
     Davidson diagonalization with overlap
     ethr =  2.88E-09,  avg # of iterations = 17.0

     total cpu time spent up to now is        7.2 secs

     total energy              =    -501.40782193 Ry
     estimated scf accuracy    <       0.00000368 Ry

     iteration # 23     ecut=    30.00 Ry     beta= 0.50
     Davidson diagonalization with overlap
     c_bands:  2 eigenvalues not converged
     ethr =  1.44E-09,  avg # of iterations = 20.0

     total cpu time spent up to now is        7.4 secs

     total energy              =    -501.40782245 Ry
     estimated scf accuracy    <       0.00000185 Ry

     iteration # 24     ecut=    30.00 Ry     beta= 0.50
     Davidson diagonalization with overlap
     c_bands:  2 eigenvalues not converged
     ethr =  7.21E-10,  avg # of iterations = 20.0

     total cpu time spent up to now is        7.6 secs

     total energy              =    -501.40782264 Ry
     estimated scf accuracy    <       0.00000347 Ry

     iteration # 25     ecut=    30.00 Ry     beta= 0.50
     Davidson diagonalization with overlap
     ethr =  7.21E-10,  avg # of iterations =  8.0

     total cpu time spent up to now is        7.7 secs

     total energy              =    -501.40782264 Ry
     estimated scf accuracy    <       0.00000244 Ry

     iteration # 26     ecut=    30.00 Ry     beta= 0.50
     Davidson diagonalization with overlap
     ethr =  7.21E-10,  avg # of iterations =  1.0

     total cpu time spent up to now is        7.7 secs

     total energy              =    -501.40782256 Ry
     estimated scf accuracy    <       0.00000206 Ry

     iteration # 27     ecut=    30.00 Ry     beta= 0.50
     Davidson diagonalization with overlap
     ethr =  7.21E-10,  avg # of iterations =  2.0

     total cpu time spent up to now is        7.8 secs

     total energy              =    -501.40782252 Ry
     estimated scf accuracy    <       0.00000147 Ry

     iteration # 28     ecut=    30.00 Ry     beta= 0.50
     Davidson diagonalization with overlap
     c_bands:  1 eigenvalues not converged
     ethr =  5.75E-10,  avg # of iterations = 20.0

     total cpu time spent up to now is        7.9 secs

     End of self-consistent calculation

          k = 0.0000 0.0000 0.0000 ( 11444 PWs)   bands (ev):

    -5.3866  -4.5186  -4.4137  -4.2900  -4.1423  -4.0256  -3.9888  -3.5411
    -3.3742  -3.3265  -3.2668  -3.1764  -3.0674  -2.9864  -2.9667  -2.7869
    -2.6660  -2.6412  -2.5635  -2.1667  -2.0868  -1.9606  -1.8228  -1.7601
    -1.5945  -1.4960  -1.4091  -1.1281  -0.9263  -0.7922  -0.6936  -0.5596
    -0.4909  -0.2934  -0.2024  -0.1506  -0.0732   0.1391   0.1846   0.2327
     0.3891   0.4212   0.4430   0.5007   0.6120   0.7787   0.8199   0.8452
     0.9311   1.0614   1.1196   1.1517   1.2838   1.3616   1.4384   1.5443
     1.7021   1.7454   1.9194   1.9728   2.0765   2.2267   2.2971   2.3442
     2.4200   2.4912   2.6232   2.7003   2.7360   2.7922   2.8607   2.8864
     2.9570   3.0421   3.1830   3.2367   3.2732   3.5406   3.5545   3.5757
     3.7518   4.0212   4.0913   4.1882   4.3834   4.4520   4.5266   4.5456
     4.5939   4.6968   4.7095   4.7399   4.8401   4.9470   5.0451   5.1050
     5.1182   5.2397   5.2707   5.3508   5.3788   5.4422   5.4994   5.6077
     5.6705   5.7081   5.7711   5.8003   5.8578   5.8980   5.9373   5.9697
     6.0834   6.1311   6.2189   6.3044   6.3799   6.3950   6.5117   6.5195
     6.5864   6.6456   6.7063   6.7651   6.8402   6.8952   6.9792   6.9994

     highest occupied level (ev):     6.9994

!    total energy              =    -501.40782219 Ry
     estimated scf accuracy    <       0.00000052 Ry

     The total energy is the sum of the following terms:
     one-electron contribution =     189.20093879 Ry
     hartree contribution      =      22.54040796 Ry
     xc contribution           =    -150.61922864 Ry
     ewald contribution        =    -562.52994030 Ry

     convergence has been achieved in  28 iterations

     Forces acting on atoms (cartesian axes, Ry/au):

     atom    1 type  1   force =    -0.02529384   -0.02542560    0.01084103
     atom    2 type  1   force =    -0.01817274    0.03592874    0.02256127
     atom    3 type  1   force =    -0.00635293    0.02316474    0.01849594
     atom    4 type  1   force =    -0.04584681    0.05369286   -0.07205771
     atom    5 type  1   force =     0.00561484    0.02206908   -0.01454915
     atom    6 type  1   force =     0.00220405    0.01490615   -0.02347602
     atom    7 type  1   force =    -0.03067410    0.00455473   -0.02516869
     atom    8 type  1   force =    -0.08743544    0.00606012    0.03116053
     atom    9 type  1   force =     0.02117113    0.05612978    0.10037188
     atom   10 type  1   force =    -0.01332776    0.01025249    0.02447516
     atom   11 type  1   force =     0.04727025   -0.02798687    0.01772024
     atom   12 type  1   force =     0.01846961    0.03012585   -0.00595898
     atom   13 type  1   force =    -0.01568040   -0.01446705   -0.03180179
     atom   14 type  1   force =     0.00151648   -0.01146231    0.01758898
     atom   15 type  1   force =    -0.01431472   -0.00953030   -0.02443806
     atom   16 type  1   force =     0.01412575   -0.02599198    0.00161835
     atom   17 type  1   force =     0.03840769    0.00105925    0.00985197
     atom   18 type  1   force =     0.00636289   -0.00961340   -0.00356552
     atom   19 type  1   force =     0.01696937    0.00871643    0.02309399
     atom   20 type  1   force =    -0.01660824    0.00994934    0.02090928
     atom   21 type  1   force =     0.00024965    0.00463281   -0.01704363
     atom   22 type  1   force =    -0.00560758   -0.01167426   -0.01038346
     atom   23 type  1   force =    -0.00993844    0.01202021   -0.02087811
     atom   24 type  1   force =     0.06288324   -0.04086001   -0.04377424
     atom   25 type  1   force =     0.00926844    0.01220769   -0.01815413
     atom   26 type  1   force =    -0.00957001   -0.02303857    0.01223994
     atom   27 type  1   force =     0.01972837   -0.04873414    0.01643071
     atom   28 type  1   force =     0.01585395   -0.09054210    0.03637770
     atom   29 type  1   force =     0.00963007   -0.07574176    0.03436222
     atom   30 type  1   force =     0.01343496   -0.01608049   -0.01582820
     atom   31 type  1   force =     0.02010234    0.00207328    0.03380479
     atom   32 type  1   force =    -0.01559257   -0.00268953   -0.03785450
     atom   33 type  1   force =    -0.03499578    0.01432542    0.01482400
     atom   34 type  1   force =     0.01245703    0.00705995    0.01883876
     atom   35 type  1   force =    -0.02825982   -0.02950001    0.00078843
     atom   36 type  1   force =     0.00379320   -0.02971855    0.00119811
     atom   37 type  1   force =     0.02055403   -0.02376509    0.01014668
     atom   38 type  1   force =     0.02608123   -0.01974908   -0.00809916
     atom   39 type  1   force =    -0.00394287   -0.01345470    0.01254606
     atom   40 type  1   force =    -0.03217415    0.07959182   -0.03616218
     atom   41 type  1   force =     0.01435013   -0.01772194   -0.00476883
     atom   42 type  1   force =     0.00100694    0.02674276   -0.02530184
     atom   43 type  1   force =    -0.00371374    0.02048876    0.02493480
     atom   44 type  1   force =    -0.00170092    0.00132615   -0.01681431
     atom   45 type  1   force =    -0.04943014    0.06447901   -0.02655171
     atom   46 type  1   force =     0.02245114    0.02790998    0.03094054
     atom   47 type  1   force =    -0.01780964    0.01978263   -0.01537718
     atom   48 type  1   force =    -0.03651161   -0.01122292    0.00046127
     atom   49 type  1   force =     0.00273362    0.00022136   -0.00083798
     atom   50 type  1   force =    -0.00160484    0.01068241   -0.00529173
     atom   51 type  1   force =     0.00350948    0.02679060    0.01055119
     atom   52 type  1   force =    -0.03234314    0.00314532   -0.01949137
     atom   53 type  1   force =    -0.00155438    0.02101172   -0.00733371
     atom   54 type  1   force =     0.02983517   -0.00506674   -0.01525877
     atom   55 type  1   force =    -0.02055262   -0.05351792    0.07186952
     atom   56 type  1   force =     0.00156083    0.03029212   -0.00524171
     atom   57 type  1   force =    -0.00498668    0.01313118    0.00298649
     atom   58 type  1   force =     0.03471181   -0.03068459   -0.08605664
     atom   59 type  1   force =     0.00518247    0.06552904   -0.01924816
     atom   60 type  1   force =     0.02017843   -0.03497375    0.04789487
     atom   61 type  1   force =     0.00989278   -0.02364381   -0.00403151
     atom   62 type  1   force =    -0.02924352   -0.00656322   -0.00988890
     atom   63 type  1   force =    -0.01874497    0.01015792   -0.00361918
     atom   64 type  1   force =     0.10042303   -0.01679104   -0.00557762

     Total force =     0.402695     Total SCF correction =     0.001398


     Computing stress (Cartesian axis) and pressure

          total   stress  (Ry/bohr**3)                   (kbar)     P=      -34.07
  -0.00024309  -0.00007844   0.00004591          -35.76      -11.54        6.75
  -0.00007844  -0.00013410  -0.00007058          -11.54      -19.73      -10.38
   0.00004591  -0.00007058  -0.00031759            6.75      -10.38      -46.72

 
     init_run     :      0.92s CPU      4.09s WALL (       1 calls)
     electrons    :      3.60s CPU      3.79s WALL (       1 calls)
     forces       :      0.03s CPU      0.03s WALL (       1 calls)
     stress       :      0.12s CPU      0.12s WALL (       1 calls)

     Called by init_run:
     wfcinit      :      0.42s CPU      3.45s WALL (       1 calls)
                                        3.45s GPU  (       1 calls)
     potinit      :      0.04s CPU      0.11s WALL (       1 calls)
     hinit0       :      0.45s CPU      0.47s WALL (       1 calls)

     Called by electrons:
     c_bands      :      2.75s CPU      2.85s WALL (      29 calls)
     sum_band     :      0.40s CPU      0.45s WALL (      29 calls)
     v_of_rho     :      0.18s CPU      0.26s WALL (      29 calls)
     mix_rho      :      0.23s CPU      0.24s WALL (      29 calls)

     Called by c_bands:
     init_us_2    :      0.07s CPU      0.08s WALL (      59 calls)
     init_us_2:gp :      0.07s CPU      0.08s WALL (      59 calls)
     regterg      :      2.56s CPU      2.65s WALL (      29 calls)

     Called by *egterg:
     rdiaghg      :      1.42s CPU      2.09s WALL (     425 calls)
                                        2.02s GPU  (     425 calls)
     h_psi        :      1.20s CPU      3.63s WALL (     427 calls)
                                        3.62s GPU  (     427 calls)
     g_psi        :      0.00s CPU      0.01s WALL (     397 calls)
                                        0.01s GPU  (     397 calls)

     Called by h_psi:
     h_psi:calbec :      0.47s CPU      2.81s WALL (     427 calls)
                                        2.81s GPU  (     427 calls)
     vloc_psi     :      0.51s CPU      0.59s WALL (     427 calls)
                                        0.58s GPU  (     427 calls)
     add_vuspsi   :      0.17s CPU      0.21s WALL (     427 calls)
                                        0.21s GPU  (     427 calls)

     General routines
     calbec       :      0.46s CPU      2.81s WALL (     432 calls)
     fft          :      0.58s CPU      0.69s WALL (     239 calls)
                                        0.11s GPU  (     151 calls)
     ffts         :      0.04s CPU      0.04s WALL (      29 calls)
     fftw         :      0.59s CPU      0.76s WALL (    3130 calls)
                                        0.67s GPU  (    3130 calls)
 
     Parallel routines
 
     PWSCF        :      4.71s CPU      8.11s WALL

 
   This run was terminated on:  15:20:43   9May2023            

=------------------------------------------------------------------------------=
   JOB DONE.
=------------------------------------------------------------------------------=
