An instance of this daemon is already running
An instance of this daemon is already running

     Program PWSCF v.7.1 starts on  9May2023 at 15:11:27 

     This program is part of the open-source Quantum ESPRESSO suite
     for quantum simulation of materials; please cite
         "P. Giannozzi et al., J. Phys.:Condens. Matter 21 395502 (2009);
         "P. Giannozzi et al., J. Phys.:Condens. Matter 29 465901 (2017);
         "P. Giannozzi et al., J. Chem. Phys. 152 154105 (2020);
          URL http://www.quantum-espresso.org", 
     in publications or presentations arising from this work. More details at
     http://www.quantum-espresso.org/quote

     Parallel version (MPI & OpenMP), running on       4 processor cores
     Number of MPI processes:                 4
     Threads/MPI process:                     1

     MPI processes distributed on     1 nodes
     7316 MiB available memory on the printing compute node when the environment starts
 
     Reading input from pw-si-23.in
Warning: card &CELL ignored
Warning: card / ignored

     Current dimensions of program PWSCF are:
     Max number of different atomic species (ntypx) = 10
     Max number of k-points (npk) =  40000
     Max angular momentum in pseudopotentials (lmaxx) =  4

     IMPORTANT: XC functional enforced from input :
     Exchange-correlation= PBE
                           (   1   4   3   4   0   0   0)
     Any further DFT definition will be discarded
     Please, verify this is what you really want


     gamma-point specific algorithms are used
 
     K-points division:     npool     =       2
     R & G space division:  proc/nbgrp/npool/nimage =       2
     Subspace diagonalization in iterative solution of the eigenvalue problem:
     a serial algorithm will be used

     Message from routine divide_et_impera:
     suboptimal parallelization: some nodes have no k-points
 
     Parallelization info
     --------------------
     sticks:   dense  smooth     PW     G-vecs:    dense   smooth      PW
     Min        1896    1896    501                88152    88152   11935
     Max        1897    1897    504                88157    88157   11936
     Sum        3793    3793   1005               176309   176309   23871
 
     Using Slab Decomposition
 


     bravais-lattice index     =            0
     lattice parameter (alat)  =      19.9499  a.u.
     unit-cell volume          =    7940.0051 (a.u.)^3
     number of atoms/cell      =           64
     number of atomic types    =            1
     number of electrons       =       256.00
     number of Kohn-Sham states=          128
     kinetic-energy cutoff     =      30.0000  Ry
     charge density cutoff     =     120.0000  Ry
     scf convergence threshold =      1.0E-06
     mixing beta               =       0.5000
     number of iterations used =            8  plain     mixing
     Exchange-correlation= PBE
                           (   1   4   3   4   0   0   0)

     GPU acceleration is ACTIVE.
     GPU-aware MPI enabled

     Message from routine print_cuda_info:
     High GPU oversubscription detected. Are you sure this is what you want?

     celldm(1)=  19.949879  celldm(2)=   0.000000  celldm(3)=   0.000000
     celldm(4)=   0.000000  celldm(5)=   0.000000  celldm(6)=   0.000000

     crystal axes: (cart. coord. in units of alat)
               a(1) = (   1.000000   0.000000   0.000000 )  
               a(2) = (   0.000000   1.000000   0.000000 )  
               a(3) = (   0.000000   0.000000   1.000000 )  

     reciprocal axes: (cart. coord. in units 2 pi/alat)
               b(1) = (  1.000000  0.000000  0.000000 )  
               b(2) = (  0.000000  1.000000  0.000000 )  
               b(3) = (  0.000000  0.000000  1.000000 )  


     PseudoPot. # 1 for Si read from file:
     /home/ppiaggi/pseudos/Si_ONCV_PBE_sr.upf
     MD5 check sum: 8553c464762ac42b85b1eed164b4d029
     Pseudo is Norm-conserving, Zval =  4.0
     Generated using ONCVPSP code by D. R. Hamann
     Using radial grid of 1510 points,  4 beta functions with: 
                l(1) =   0
                l(2) =   0
                l(3) =   1
                l(4) =   1

     atomic species   valence    mass     pseudopotential
        Si             4.00    28.08500     Si( 1.00)

     No symmetry found



   Cartesian axes

     site n.     atom                  positions (alat units)
         1           Si  tau(   1) = (   0.7213380   0.7727350   0.8566980  )
         2           Si  tau(   2) = (   0.7281160   0.2601390   0.1606480  )
         3           Si  tau(   3) = (   0.0532524   0.1482730   0.4823370  )
         4           Si  tau(   4) = (   0.7364210   0.4729990   0.8088860  )
         5           Si  tau(   5) = (   0.1851220   0.3499520   0.5130210  )
         6           Si  tau(   6) = (   0.7794630   0.0269270   0.1968550  )
         7           Si  tau(   7) = (   0.6856370   0.0350715   0.3784610  )
         8           Si  tau(   8) = (   0.2783720   0.7540860   0.3147010  )
         9           Si  tau(   9) = (   0.4228340   0.8447220   0.6818780  )
        10           Si  tau(  10) = (   0.3791630   0.4958530   0.2085520  )
        11           Si  tau(  11) = (   0.9927490   0.4421110   0.8716550  )
        12           Si  tau(  12) = (   0.9392990   0.6884780   0.7872680  )
        13           Si  tau(  13) = (   0.0415403   0.5944380   0.0726409  )
        14           Si  tau(  14) = (   0.7381050   0.2861450   0.6710430  )
        15           Si  tau(  15) = (   0.6102760   0.8970650   0.5590510  )
        16           Si  tau(  16) = (   0.9493280   0.5213260   0.2662230  )
        17           Si  tau(  17) = (   0.8410850   0.0934021   0.5710000  )
        18           Si  tau(  18) = (   0.4783550   0.8786160   0.3514740  )
        19           Si  tau(  19) = (   0.5861910   0.4609000   0.0303289  )
        20           Si  tau(  20) = (   0.8775560   0.3129740   0.3881400  )
        21           Si  tau(  21) = (   0.2815330   0.1623660   0.8694950  )
        22           Si  tau(  22) = (   0.6713730   0.3685150   0.4637800  )
        23           Si  tau(  23) = (   0.0723571   0.1820100   0.7580510  )
        24           Si  tau(  24) = (   0.5338510   0.2062170   0.3983400  )
        25           Si  tau(  25) = (   0.9025250   0.2834530   0.0243261  )
        26           Si  tau(  26) = (   0.8447900   0.7015240   0.0500725  )
        27           Si  tau(  27) = (   0.0460312   0.8905750   0.3329560  )
        28           Si  tau(  28) = (   0.4235370   0.2675680   0.2006420  )
        29           Si  tau(  29) = (   0.2978920   0.3791360   0.9710780  )
        30           Si  tau(  30) = (   0.3254990   0.0807519   0.2304250  )
        31           Si  tau(  31) = (   0.2075790   0.5207290   0.8374660  )
        32           Si  tau(  32) = (   0.6255720   0.0750341   0.7720280  )
        33           Si  tau(  33) = (   0.1895780   0.5046380   0.3371920  )
        34           Si  tau(  34) = (   0.9798460   0.8720710   0.5950600  )
        35           Si  tau(  35) = (   0.3478040   0.1857850   0.5026820  )
        36           Si  tau(  36) = (   0.0471144   0.6116290   0.5396290  )
        37           Si  tau(  37) = (   0.9075310   0.7207940   0.3779950  )
        38           Si  tau(  38) = (   0.2073790   0.7529690   0.0820882  )
        39           Si  tau(  39) = (   0.1626150   0.9483450   0.6706320  )
        40           Si  tau(  40) = (   0.2292370   0.9727060   0.4519740  )
        41           Si  tau(  41) = (   0.5188990   0.6270220   0.3670540  )
        42           Si  tau(  42) = (   0.3818850   0.9775070   0.0533113  )
        43           Si  tau(  43) = (   0.5479980   0.5308810   0.5999930  )
        44           Si  tau(  44) = (   0.5133250   0.8264910   0.1112350  )
        45           Si  tau(  45) = (   0.7423590   0.6874880   0.5757230  )
        46           Si  tau(  46) = (   0.9831230   0.3911620   0.6283840  )
        47           Si  tau(  47) = (   0.5369950   0.3193670   0.8233680  )
        48           Si  tau(  48) = (   0.5188440   0.6702130   0.7994560  )
        49           Si  tau(  49) = (   0.2775340   0.6634350   0.5404250  )
        50           Si  tau(  50) = (   0.4097050   0.0729368   0.6961040  )
        51           Si  tau(  51) = (   0.1654730   0.9418220   0.9246440  )
        52           Si  tau(  52) = (   0.9637230   0.8917050   0.1033610  )
        53           Si  tau(  53) = (   0.1273790   0.3392320   0.1248250  )
        54           Si  tau(  54) = (   0.3902560   0.6496040   0.0115409  )
        55           Si  tau(  55) = (   0.3271580   0.4753540   0.6680050  )
        56           Si  tau(  56) = (   0.7016010   0.4889850   0.2224250  )
        57           Si  tau(  57) = (   0.8414800   0.9522020   0.7598680  )
        58           Si  tau(  58) = (   0.9471470   0.0667181   0.9083050  )
        59           Si  tau(  59) = (   0.7150380   0.7408600   0.2509240  )
        60           Si  tau(  60) = (   0.6713970   0.9735020   0.0219900  )
        61           Si  tau(  61) = (   0.9863650   0.1142010   0.2755040  )
        62           Si  tau(  62) = (   0.1381550   0.1245590   0.1274980  )
        63           Si  tau(  63) = (   0.1660430   0.7332420   0.7776420  )
        64           Si  tau(  64) = (   0.5324960   0.1773990   0.0095351  )

     number of k points=     1
                       cart. coord. in units 2pi/alat
        k(    1) = (   0.0000000   0.0000000   0.0000000), wk =   2.0000000

     Dense  grid:    88155 G-vectors     FFT dimensions: (  72,  72,  72)

     Estimated max dynamical RAM per process >     130.21 MB

     Estimated total dynamical RAM >     499.33 MB

     Initial potential from superposition of free atoms

     starting charge     255.9608, renormalised to     256.0000
     Starting wfcs are  256 randomized atomic wfcs

     total cpu time spent up to now is        4.1 secs

     Self-consistent Calculation

     iteration #  1     ecut=    30.00 Ry     beta= 0.50
     Davidson diagonalization with overlap
     ethr =  1.00E-02,  avg # of iterations =  2.0

     Threshold (ethr) on eigenvalues was too large:
     Diagonalizing with lowered threshold

     Davidson diagonalization with overlap
     ethr =  4.81E-04,  avg # of iterations =  4.0

     total cpu time spent up to now is        4.3 secs

     total energy              =    -500.94147141 Ry
     estimated scf accuracy    <       1.53471468 Ry

     iteration #  2     ecut=    30.00 Ry     beta= 0.50
     Davidson diagonalization with overlap
     ethr =  5.99E-04,  avg # of iterations = 12.0

     total cpu time spent up to now is        4.4 secs

     total energy              =    -499.84440189 Ry
     estimated scf accuracy    <      16.89055290 Ry

     iteration #  3     ecut=    30.00 Ry     beta= 0.50
     Davidson diagonalization with overlap
     ethr =  5.99E-04,  avg # of iterations = 10.0

     total cpu time spent up to now is        4.6 secs

     total energy              =    -501.24544201 Ry
     estimated scf accuracy    <       1.27386437 Ry

     iteration #  4     ecut=    30.00 Ry     beta= 0.50
     Davidson diagonalization with overlap
     ethr =  4.98E-04,  avg # of iterations =  5.0

     total cpu time spent up to now is        4.7 secs

     total energy              =    -501.32856366 Ry
     estimated scf accuracy    <       0.49101040 Ry

     iteration #  5     ecut=    30.00 Ry     beta= 0.50
     Davidson diagonalization with overlap
     ethr =  1.92E-04,  avg # of iterations =  8.0

     total cpu time spent up to now is        4.8 secs

     total energy              =    -501.35568564 Ry
     estimated scf accuracy    <       0.42109654 Ry

     iteration #  6     ecut=    30.00 Ry     beta= 0.50
     Davidson diagonalization with overlap
     ethr =  1.64E-04,  avg # of iterations =  7.0

     total cpu time spent up to now is        4.9 secs

     total energy              =    -501.39554636 Ry
     estimated scf accuracy    <       0.03406621 Ry

     iteration #  7     ecut=    30.00 Ry     beta= 0.50
     Davidson diagonalization with overlap
     ethr =  1.33E-05,  avg # of iterations = 11.0

     total cpu time spent up to now is        5.0 secs

     total energy              =    -501.40332166 Ry
     estimated scf accuracy    <       0.04142313 Ry

     iteration #  8     ecut=    30.00 Ry     beta= 0.50
     Davidson diagonalization with overlap
     ethr =  1.33E-05,  avg # of iterations =  6.0

     total cpu time spent up to now is        5.1 secs

     total energy              =    -501.40471432 Ry
     estimated scf accuracy    <       0.01957021 Ry

     iteration #  9     ecut=    30.00 Ry     beta= 0.50
     Davidson diagonalization with overlap
     ethr =  7.64E-06,  avg # of iterations =  3.0

     total cpu time spent up to now is        5.2 secs

     total energy              =    -501.40551682 Ry
     estimated scf accuracy    <       0.00386075 Ry

     iteration # 10     ecut=    30.00 Ry     beta= 0.50
     Davidson diagonalization with overlap
     ethr =  1.51E-06,  avg # of iterations =  9.0

     total cpu time spent up to now is        5.3 secs

     total energy              =    -501.40650001 Ry
     estimated scf accuracy    <       0.00531185 Ry

     iteration # 11     ecut=    30.00 Ry     beta= 0.50
     Davidson diagonalization with overlap
     ethr =  1.51E-06,  avg # of iterations =  2.0

     total cpu time spent up to now is        5.3 secs

     total energy              =    -501.40634416 Ry
     estimated scf accuracy    <       0.00257707 Ry

     iteration # 12     ecut=    30.00 Ry     beta= 0.50
     Davidson diagonalization with overlap
     ethr =  1.01E-06,  avg # of iterations =  6.0

     total cpu time spent up to now is        5.4 secs

     total energy              =    -501.40651726 Ry
     estimated scf accuracy    <       0.00022515 Ry

     iteration # 13     ecut=    30.00 Ry     beta= 0.50
     Davidson diagonalization with overlap
     ethr =  8.80E-08,  avg # of iterations = 16.0

     total cpu time spent up to now is        5.6 secs

     total energy              =    -501.40662642 Ry
     estimated scf accuracy    <       0.00200502 Ry

     iteration # 14     ecut=    30.00 Ry     beta= 0.50
     Davidson diagonalization with overlap
     ethr =  8.80E-08,  avg # of iterations = 15.0

     total cpu time spent up to now is        5.7 secs

     total energy              =    -501.40661336 Ry
     estimated scf accuracy    <       0.00067688 Ry

     iteration # 15     ecut=    30.00 Ry     beta= 0.50
     Davidson diagonalization with overlap
     ethr =  8.80E-08,  avg # of iterations =  3.0

     total cpu time spent up to now is        5.8 secs

     total energy              =    -501.40662187 Ry
     estimated scf accuracy    <       0.00017907 Ry

     iteration # 16     ecut=    30.00 Ry     beta= 0.50
     Davidson diagonalization with overlap
     ethr =  7.00E-08,  avg # of iterations =  8.0

     total cpu time spent up to now is        5.9 secs

     total energy              =    -501.40663844 Ry
     estimated scf accuracy    <       0.00001028 Ry

     iteration # 17     ecut=    30.00 Ry     beta= 0.50
     Davidson diagonalization with overlap
     ethr =  4.02E-09,  avg # of iterations = 10.0

     total cpu time spent up to now is        6.1 secs

     total energy              =    -501.40664493 Ry
     estimated scf accuracy    <       0.00003404 Ry

     iteration # 18     ecut=    30.00 Ry     beta= 0.50
     Davidson diagonalization with overlap
     ethr =  4.02E-09,  avg # of iterations =  8.0

     total cpu time spent up to now is        6.2 secs

     total energy              =    -501.40664531 Ry
     estimated scf accuracy    <       0.00003532 Ry

     iteration # 19     ecut=    30.00 Ry     beta= 0.50
     Davidson diagonalization with overlap
     ethr =  4.02E-09,  avg # of iterations =  2.0

     total cpu time spent up to now is        6.2 secs

     total energy              =    -501.40664321 Ry
     estimated scf accuracy    <       0.00002728 Ry

     iteration # 20     ecut=    30.00 Ry     beta= 0.50
     Davidson diagonalization with overlap
     ethr =  4.02E-09,  avg # of iterations =  6.0

     total cpu time spent up to now is        6.3 secs

     total energy              =    -501.40664302 Ry
     estimated scf accuracy    <       0.00000773 Ry

     iteration # 21     ecut=    30.00 Ry     beta= 0.50
     Davidson diagonalization with overlap
     ethr =  3.02E-09,  avg # of iterations = 10.0

     total cpu time spent up to now is        6.5 secs

     total energy              =    -501.40664436 Ry
     estimated scf accuracy    <       0.00000362 Ry

     iteration # 22     ecut=    30.00 Ry     beta= 0.50
     Davidson diagonalization with overlap
     ethr =  1.41E-09,  avg # of iterations =  2.0

     total cpu time spent up to now is        6.5 secs

     total energy              =    -501.40664423 Ry
     estimated scf accuracy    <       0.00000276 Ry

     iteration # 23     ecut=    30.00 Ry     beta= 0.50
     Davidson diagonalization with overlap
     ethr =  1.08E-09,  avg # of iterations =  7.0

     total cpu time spent up to now is        6.6 secs

     End of self-consistent calculation

          k = 0.0000 0.0000 0.0000 ( 11060 PWs)   bands (ev):

    -5.2220  -4.2534  -4.1596  -3.9602  -3.9251  -3.8576  -3.8039  -3.2224
    -2.9905  -2.9723  -2.9128  -2.8712  -2.8415  -2.7872  -2.7128  -2.5783
    -2.5049  -2.4135  -2.3759  -1.9424  -1.7925  -1.7627  -1.5981  -1.4626
    -1.3688  -1.2457  -0.8908  -0.7439  -0.6543  -0.5091  -0.3797  -0.2786
    -0.1270   0.0819   0.2201   0.2791   0.3643   0.4143   0.5547   0.6243
     0.6777   0.7738   0.8172   0.8513   0.9591   1.0015   1.1187   1.2088
     1.2866   1.3567   1.4101   1.4383   1.5897   1.6109   1.7285   1.8486
     2.0108   2.0352   2.0923   2.2214   2.3335   2.4537   2.5688   2.6460
     2.8064   2.9146   2.9478   3.0318   3.0395   3.0625   3.2529   3.2623
     3.3038   3.3583   3.4663   3.5118   3.5859   3.6625   3.7079   3.9542
     4.0535   4.4368   4.5365   4.6433   4.7100   4.7688   4.8176   4.8716
     4.9457   4.9938   5.1020   5.1428   5.2973   5.3657   5.3998   5.4937
     5.5380   5.5712   5.6748   5.7267   5.8204   5.8470   5.8874   5.9558
     5.9774   6.0947   6.1046   6.1688   6.2098   6.2192   6.2613   6.4206
     6.5357   6.5810   6.5973   6.7025   6.7666   6.8823   6.9034   6.9371
     7.0029   7.0595   7.1103   7.1646   7.2597   7.3194   7.3403   7.3766

     highest occupied level (ev):     7.3766

!    total energy              =    -501.40664360 Ry
     estimated scf accuracy    <       0.00000081 Ry

     The total energy is the sum of the following terms:
     one-electron contribution =     198.03310356 Ry
     hartree contribution      =      21.83165373 Ry
     xc contribution           =    -151.53689233 Ry
     ewald contribution        =    -569.73450856 Ry

     convergence has been achieved in  23 iterations

     Forces acting on atoms (cartesian axes, Ry/au):

     atom    1 type  1   force =     0.01020081    0.01581463    0.02416420
     atom    2 type  1   force =    -0.00298732   -0.00369314    0.00227662
     atom    3 type  1   force =    -0.00104546   -0.00097177    0.03942957
     atom    4 type  1   force =    -0.00830437    0.00008688    0.01367644
     atom    5 type  1   force =     0.00854491   -0.00203240    0.01949616
     atom    6 type  1   force =     0.10372747    0.02368328   -0.04262657
     atom    7 type  1   force =    -0.04916995    0.00597857    0.13287429
     atom    8 type  1   force =     0.00917075   -0.01151810    0.01319566
     atom    9 type  1   force =    -0.02206323   -0.01531727   -0.04438031
     atom   10 type  1   force =    -0.00245885    0.02032604   -0.00995169
     atom   11 type  1   force =    -0.01431490    0.01692315    0.01201082
     atom   12 type  1   force =    -0.01187752   -0.00764983   -0.03709804
     atom   13 type  1   force =    -0.01872075   -0.02751647   -0.02163016
     atom   14 type  1   force =     0.00562731   -0.01353154    0.00030522
     atom   15 type  1   force =     0.01053115   -0.01852195   -0.02036811
     atom   16 type  1   force =     0.00922349   -0.01449724    0.01498157
     atom   17 type  1   force =     0.00182681    0.00815572   -0.03406278
     atom   18 type  1   force =    -0.01473925   -0.01328942   -0.03500205
     atom   19 type  1   force =    -0.01053912    0.00963361   -0.02889201
     atom   20 type  1   force =     0.01022519    0.00713837   -0.00886919
     atom   21 type  1   force =     0.00265392    0.00231159    0.01416239
     atom   22 type  1   force =    -0.00030733    0.01236897    0.01423054
     atom   23 type  1   force =     0.01320695   -0.00964178   -0.00911044
     atom   24 type  1   force =     0.03984706    0.01144460   -0.05130950
     atom   25 type  1   force =     0.05095560   -0.00552918   -0.02888698
     atom   26 type  1   force =    -0.01955403    0.02836688   -0.01859418
     atom   27 type  1   force =    -0.00364886    0.00516735   -0.03250664
     atom   28 type  1   force =     0.05148847    0.02222528   -0.00543907
     atom   29 type  1   force =     0.02534703   -0.04807591    0.03275813
     atom   30 type  1   force =    -0.01932874   -0.02980158    0.06313730
     atom   31 type  1   force =    -0.01975587    0.02955725    0.02364609
     atom   32 type  1   force =     0.00424067    0.01462279   -0.01415425
     atom   33 type  1   force =    -0.02656397   -0.01647410   -0.00862723
     atom   34 type  1   force =    -0.04532352   -0.03636500   -0.00709232
     atom   35 type  1   force =    -0.03056165   -0.04750326    0.04457894
     atom   36 type  1   force =    -0.00055452    0.01645714    0.01337998
     atom   37 type  1   force =     0.00031605   -0.01609079    0.04072968
     atom   38 type  1   force =    -0.01992019    0.01601079    0.01551800
     atom   39 type  1   force =     0.04646928    0.03478883    0.01133208
     atom   40 type  1   force =     0.01178414    0.03242899   -0.00599927
     atom   41 type  1   force =    -0.01295686    0.01076315    0.00049633
     atom   42 type  1   force =    -0.04909586    0.05531831   -0.05975341
     atom   43 type  1   force =     0.01873036    0.02023777   -0.01313731
     atom   44 type  1   force =     0.05933434   -0.05472423    0.04336222
     atom   45 type  1   force =    -0.02790519    0.00971775    0.00545912
     atom   46 type  1   force =     0.00280743   -0.02322118   -0.00697831
     atom   47 type  1   force =    -0.01753281   -0.01556692    0.02018078
     atom   48 type  1   force =     0.01239591   -0.00004516    0.01475435
     atom   49 type  1   force =     0.00575571    0.01318095   -0.00139326
     atom   50 type  1   force =    -0.00227759    0.03121475    0.01273419
     atom   51 type  1   force =     0.00654544    0.00901744    0.01109661
     atom   52 type  1   force =    -0.00555539    0.00560944    0.01600948
     atom   53 type  1   force =    -0.01157246    0.05029841   -0.00459433
     atom   54 type  1   force =     0.05082978   -0.04507213    0.00803475
     atom   55 type  1   force =     0.04398691   -0.01181372   -0.07001368
     atom   56 type  1   force =     0.00456782    0.00889155    0.01243614
     atom   57 type  1   force =    -0.03819976   -0.02912762   -0.01029690
     atom   58 type  1   force =     0.02797230    0.01283344    0.04058226
     atom   59 type  1   force =    -0.03668834   -0.01996316   -0.02076303
     atom   60 type  1   force =    -0.04800814   -0.01456345   -0.06478548
     atom   61 type  1   force =    -0.06174462   -0.01381656   -0.00285044
     atom   62 type  1   force =     0.00818591   -0.02469447   -0.02449427
     atom   63 type  1   force =    -0.01689187    0.03311780   -0.00560151
     atom   64 type  1   force =     0.01366930   -0.00306215    0.01823280

     Total force =     0.390415     Total SCF correction =     0.001872


     Computing stress (Cartesian axis) and pressure

          total   stress  (Ry/bohr**3)                   (kbar)     P=      -18.76
  -0.00002276  -0.00003162   0.00000504           -3.35       -4.65        0.74
  -0.00003162  -0.00018467   0.00001485           -4.65      -27.17        2.18
   0.00000504   0.00001485  -0.00017525            0.74        2.18      -25.78

 
     init_run     :      0.91s CPU      4.08s WALL (       1 calls)
     electrons    :      2.29s CPU      2.47s WALL (       1 calls)
     forces       :      0.03s CPU      0.03s WALL (       1 calls)
     stress       :      0.12s CPU      0.12s WALL (       1 calls)

     Called by init_run:
     wfcinit      :      0.41s CPU      3.43s WALL (       1 calls)
                                        3.43s GPU  (       1 calls)
     potinit      :      0.03s CPU      0.12s WALL (       1 calls)
     hinit0       :      0.45s CPU      0.48s WALL (       1 calls)

     Called by electrons:
     c_bands      :      1.60s CPU      1.71s WALL (      24 calls)
     sum_band     :      0.33s CPU      0.38s WALL (      24 calls)
     v_of_rho     :      0.16s CPU      0.25s WALL (      24 calls)
     mix_rho      :      0.17s CPU      0.19s WALL (      24 calls)

     Called by c_bands:
     init_us_2    :      0.06s CPU      0.07s WALL (      49 calls)
     init_us_2:gp :      0.06s CPU      0.06s WALL (      49 calls)
     regterg      :      1.43s CPU      1.53s WALL (      24 calls)

     Called by *egterg:
     rdiaghg      :      0.71s CPU      1.36s WALL (     195 calls)
                                        1.33s GPU  (     195 calls)
     h_psi        :      0.92s CPU      3.36s WALL (     197 calls)
                                        3.36s GPU  (     197 calls)
     g_psi        :      0.00s CPU      0.00s WALL (     172 calls)
                                        0.00s GPU  (     172 calls)

     Called by h_psi:
     h_psi:calbec :      0.41s CPU      2.78s WALL (     197 calls)
                                        2.78s GPU  (     197 calls)
     vloc_psi     :      0.41s CPU      0.48s WALL (     197 calls)
                                        0.47s GPU  (     197 calls)
     add_vuspsi   :      0.07s CPU      0.09s WALL (     197 calls)
                                        0.09s GPU  (     197 calls)

     General routines
     calbec       :      0.42s CPU      2.78s WALL (     202 calls)
     fft          :      0.57s CPU      0.68s WALL (     199 calls)
                                        0.11s GPU  (     126 calls)
     ffts         :      0.03s CPU      0.04s WALL (      24 calls)
     fftw         :      0.48s CPU      0.63s WALL (    2296 calls)
                                        0.55s GPU  (    2296 calls)
 
     Parallel routines
 
     PWSCF        :      3.39s CPU      6.77s WALL

 
   This run was terminated on:  15:11:34   9May2023            

=------------------------------------------------------------------------------=
   JOB DONE.
=------------------------------------------------------------------------------=
