-6825.997296951956
-6825.564283425015
-6823.146195771545
-6823.968688829005
-6823.674029950646
-6824.761173852623
-6823.920710669372
-6824.811779543483
-6822.900499968858
-6823.7564778586775
-6825.07198431999
-6822.190677687147
-6824.608944255466
-6824.360625547488
-6822.4842347765725
-6822.735079109144
-6824.7002751837035
-6825.566086723424
-6821.288996237271
-6825.37434279547
-6823.055409887326
-6821.416718445777
-6823.00971204166
-6822.583162306844
-6821.2640048941585
-6823.310187081207
-6824.377484360362
-6823.006600828087
-6823.852195261993
-6823.994583726119
-6824.88931035445
-6823.850495775015
-6822.406914989888
-6826.00709114535
-6823.897236633024
-6822.640217775965
-6822.06792223648
-6822.569499607062
-6823.170741528247
-6823.707049196227
-6822.680289940129
-6823.848403491709
-6821.90173755322
-6823.099097764122
-6823.046447409879
-6823.52762209301
-6821.662136692349
-6822.942523325303
-6822.947015516608
-6822.178668078935
-6824.28610907757
-6825.368066217668
-6825.342883578527
-6825.747224198174
-6824.102808297802
-6822.50784269293
-6824.49882604358
-6824.649894530989
-6822.484891659379
-6824.426275187975
-6823.75422135467
-6821.961279598599
-6824.257227186848
-6822.669466748253
-6824.300289609987
-6822.841994677206
-6824.049635621046
-6824.717489921478
-6821.880068720077
-6824.063384580914
-6822.673228177846
-6823.458593751046
-6822.615134050203
-6822.014373906569
-6824.167596017704
-6824.907312861787
-6824.903868172703
-6823.556292959449
-6822.239256265965
-6825.303783677107
-6823.059606971174
-6824.054203459998
-6822.593338956239
-6824.059994178542
-6823.246252438189
-6823.755376069745
-6824.940168294837
-6821.320604708656
-6826.750097573628
-6821.090802531057
-6822.851448728302
-6823.203336412296
-6824.849578196526
-6822.879371145627
-6824.113519514833
-6823.050886402929
-6824.714107002235
-6822.84766525749
-6824.429130750597
-6824.204172607498
-6824.509769509773
