-0.43359546510494357 -0.4167022888940307 -0.14156005496439492 0.5240910972933555 -0.10820024855702655 0.7531853878249932 0.4936937159484207 0.29581647444953574 0.35677733040362425 0.5094710333873356 -0.7925690318289382 0.43668541688417695 -1.6202631894957837 -0.43336560848232464 1.8593454444780688 0.9832932072228097 -1.6333351921883934 -0.5186825246832745 0.26626241494150277 0.38949204702782597 0.7910945041659408 0.3695413149375119 0.2890339043100635 0.011829645645076402 -0.8956080478999995 0.7894302290896404 -0.05407492746753268 0.7881202520289653 0.22037722237361404 -0.3757620990362432 1.5832822413960603 1.44277119652147 -0.8400606496519983 -0.6844587718825567 -0.2300214303315974 -0.31688537930469296 0.4394979466323077 -0.08471502095089281 -0.13943709508412114 -0.3205818543196737 0.5907865417383761 -0.5479527344023014 0.4607468287087549 0.32304162871407593 -0.545428425318551 0.9046274777897904 -0.06475246178603687 0.24967057202109255 -0.6295878308762899 -0.801646054429542 -0.41429187968032516 0.3551955877388012 -0.791234886398547 0.09496909457873322 -0.6771892348043369 -0.753360994170909 -0.12725315142341953 0.02496695435798281 0.2211884054209997 0.8282402599783026 -0.29229612000110305 -0.07755526997765999 -0.16393328045327252 -0.8303706760577441 1.1826688876440923 0.12394157055168331 -0.4409115391503826 0.5055840396281035 0.6374551494395085 0.1935441613411699 -0.5546088062662384 -0.9089700710292022 0.010248417200885577 -0.0818739519576719 1.1727585705089156 -0.629530238165477 -0.48525201293897074 -0.9471129006475107 0.3066287345736913 0.7733793462743648 -0.017092436705912498 -1.5411454601270103 -1.2036994830621464 0.2962000830411996 0.14496419554993745 0.2926357627287089 0.630295912686908 -0.1808269708848176 0.6575982000462868 -0.6922430438136657 -0.7349907191938374 -1.699842688992324 0.3505030673591383 1.4071763301359959 1.5045494061705313 0.8254817233965589 -0.03305050269706566 -0.7659046351638745 -0.5194188886286667 0.9768255972205953 0.35207658249384527 0.6743597357753418 -0.027451411342733368 0.2079739636132547 0.3470595888952281 -0.5191118989112092 -0.07638747492180394 0.19977317297001726 1.5446192776082237 2.1052292957632193 -1.1731396079974183 0.6570842365243458 -0.010212164646311446 0.907453891494992 -0.3801368310651711 0.2314036553911047 -0.7541060998670497 0.2381006077953061 -0.3782632681915421 0.07909741765379927 -0.17544410930634946 -0.7430007339825075 -0.21075538301313382 0.4420338256802839 -0.3688448030911196 -0.3139432659572335 0.08611035863652267 0.19209534470978532 -0.6603780767842691 -0.835063196437407 -0.4141538114405642 -0.19476235001898717 -1.4119287572193167 0.040263475505737105 -0.5277765165647426 0.11086391143211875 0.25286953857436445 0.42104462502312645 -0.2954958578853234 -0.47787166131449954 0.5268887146431506 0.24002302162899955 -0.6964133731412716 -0.04707021401492538 -1.2526643429966233 -1.016746601785249 1.3518104517711818 -0.6829770451307077 0.00853786226768207 -0.12708294439414244 -0.6500610111289773 0.2689499890759949 0.48351883229794784 0.18244702298674387 0.34878248512360577 -0.7182191561624534 0.5605840500130668 0.11466528745607994 -0.16713147567559603 0.04121658344762579 -0.6542881618364473 -0.417504730190668 0.6420221999849007 -0.26459788275488627 -0.43568191532032713 -0.010689104282729978 -0.1074443442276085 -0.5954101565533165 0.014924739630632358 0.07743185702591826 0.35735197196017165 -0.24007367236127683 0.23474686083172475 -0.3032557043364003 0.8454720504755567 0.12914831156360337 0.002533565055131121 0.8479115131549849 0.5834054187829565 0.017523867816376274 -0.5454397381724606 1.7773226256473587 0.2931186159023984 0.21996070366148568 0.03371898951899999 0.2710932606712428 -0.70653143541188 -0.3990025576214225 -0.8509446435543537 0.2619236783568328 0.14889155562880166 -0.5837391479732914
0.38105342934216957 -0.04760731746531801 0.5190584199654544 0.6707704757621867 1.5934841216297266 0.05724509766539818 0.9859324446178698 -0.268820405476666 -0.13279285029472612 0.32098628884694397 0.4117719414719489 -0.6061373131628336 0.8288053884531532 0.9251559367604454 -0.3317872361171899 -0.14170043719700112 0.1131982159922502 -0.6843749539194989 -0.38124651918958213 -0.41979481177642536 -0.184032879416625 0.4910624489731608 -0.8938288445123898 0.060661836656431004 -0.9711861395466307 0.0993476832624031 0.14514957208786614 -0.047580320882124515 -0.6784513893462122 -0.1641554237664076 0.37371704358175634 -0.4955875905370239 0.15106233802787533 -0.8714970137844089 0.04070544813916215 0.332433354341621 0.20538152029573015 0.5478012964261018 1.774616539570105 1.0464911800375332 -0.5747225462969778 -0.23108483859910525 -0.16805090216607188 0.3561394397093092 -0.6104513671571551 0.13977493803951413 -1.2135339526540647 0.5228585104378349 0.6493436733469784 -0.6525796637857729 0.8166358429701548 0.11577009048448449 0.8938249878576476 0.5148927186235391 -0.06583103956219631 -0.3336913951184382 -0.4574918121065669 0.053980053760881226 1.0150316759766713 -0.8556649318481586 1.015091325570013 0.5499183427691046 0.8320202958460251 0.32687925729261125 0.8391070274894775 0.4200205546339863 0.034501890431611545 0.7983007921063929 -0.3258680424192775 -0.18054852041245034 -0.2909558039231247 -0.7408278947009048 -0.2009455960115636 0.2369515817925274 -0.4103997437147706 2.3003670268437544 -0.9043752525696683 1.4440019836047777 1.2931263076664117 0.0585995548107636 -0.4618714292315013 -0.09017064474882536 0.07343199183790579 0.5050903878211366 0.027003782282353492 -0.41396817779231926 0.2732493877822972 -0.9229769268312557 -0.3603059123821731 0.1331108957557772 -0.5498913461859111 -0.5568898889909312 0.46931888664848204 -0.2809321011385355 -0.5801000085588075 -0.2497729019269118 0.17023556852221652 0.21502598536402967 0.2536606670170922 -0.11921434027934306 0.4246850499891912 0.3816843780579491 0.3100470162266209 0.4891284651752415 0.16032833671083355 0.9113681389477336 0.47798350430201547 0.11638561258129633 0.4632387418926732 -0.4037619266832788 0.22900918701699916 0.7368761091420084 1.394891856341688 -0.6780646954307548 0.31511620321941214 1.1391727641336704 0.8501288325212777 0.14349635275515932 -0.28573749294697887 0.5605426552521702 0.0735957711092797 -0.17317948164188884 0.22949949638985634 -1.0685401894177726 -0.7608007382784059 -0.9635121679411407 0.4269697322583098 0.01773161295180817 -0.19646724852523584 -0.029430389445975123 -0.338771637854823 0.20253428065492218 -1.6167163526847896 -0.41522698990008483 -0.14756435217694586 0.6746878085387219 -0.5586814336737151 -1.190082149389028 -1.1760408408046132 0.2215679002476055 -0.5350835917491171 -0.6418579064928945 -0.1666383380892614 1.012623837866127 -0.023151755526114964 0.31808582737069735 -0.21956938176033797 -0.058949481951014605 -0.5058223808911547 -0.04136570743098038 -0.023757250320597792 -0.3293066357871812 -0.5490331119506738 -0.041334082862096555 -1.3338734076767869 0.9996451662182718 -0.21082711679133367 0.3334671949227741 -0.030397638455250876 0.05872785285851176 0.12390866043121886 -0.7778222125370668 -0.5374775459025904 -0.6343816527205074 -0.49503891712240544 0.034014923492863995 -0.5159633259798985 0.32169565620914276 -0.07292265630165505 0.35872545526893057 -0.578187622027443 -0.9235610814694997 0.4745641942078213 -0.35494310540836294 -0.27332317844302606 -0.06705899843202645 0.717930678387757 -0.18810679237568248 -0.0022990804468218467 -0.21487043362277192 -0.5506133119536001 0.1699308927976041 -0.9711200621953856 -0.780781809386023 0.19021535407825305 0.061847629434416074 -2.503651812511456 0.9666134325742837 -1.1545541316857473 0.13440158954274273 -0.6917524773304926 0.47544839658498766
0.4546844245647589 -0.8606785830126662 0.7750181674293685 -0.5766698998313359 0.8826190918394993 -0.5426457203670912 0.08040533783194541 0.8547331640625087 -0.6916917992958862 0.19026214815578846 -0.32751560532502955 -0.23441493141360273 -0.4097402557539008 0.39139826291160335 -1.5426901789063108 0.7237364864362568 1.038001140288651 -1.5761096349070212 -0.6516244989613552 1.676024503526804 0.9560683100685857 0.06970594913657027 0.6604984044122174 0.18417429009049574 -0.5016780197054779 -0.02332504787918564 0.10184036777726978 0.6015748906031317 -0.008532205840727242 -0.26717927032881733 0.19525240228152824 -0.14626928751460616 0.19543726459882468 -0.4732382763075462 0.8137695771659533 2.174202994719456 -0.8532748343494272 2.484978918692301 0.6398745575142787 -0.40597204696072015 -1.6568849544838757 -1.2187777175515075 0.055188729357001726 0.15230623773730545 0.24882210797786825 0.4309680547844255 -0.4751923147101236 -0.3013124645671004 -0.3280516803341576 -0.4423341305295221 0.4980676766464002 -0.6807013617226535 -0.2948631093973309 1.2995625502100585 0.05915568442454974 -0.20319942504274685 -0.3010113883869138 0.597606392873687 -0.6540904440033445 0.8412544128497834 0.10729059225856362 -0.1579248694756635 0.06777067978707038 0.10962772503217248 1.1625209519413073 -0.20802024347015785 0.20495805960506638 -1.4341562011589493 -0.26235150992287076 -0.5604040727917767 0.06131181153560408 0.061350635193339505 0.41236920873631555 -0.23479519757115694 -0.40457156706876773 0.23405831940513236 -1.630389222186192 0.5222974957280425 -0.29743164145545553 -1.314539226124549 -0.0130437205578356 -0.6310268773156615 0.158155754539547 0.6793322492892687 7.301932978051941e-05 -0.19892522314742517 -0.5244129994091484 0.2870389853672218 0.592893817889366 -0.9076351542678628 -0.029471012875923436 0.49705723310401495 -0.8011770852129234 -0.05784725002577134 0.003994465871373766 -0.31040028580098156 0.6181340805133935 -1.363686120162845 -1.2012150260773957 0.062316855761350744 -0.3936860305045155 0.625695180690103 0.16995840360142989 -0.16905388950928948 -0.2092991101825815 -0.12196799176508027 -1.3688159851902426 -1.0665159598988925 -0.6721611854621262 0.2276696422699692 -0.3052768485314872 0.4758903692184126 0.924329327094092 -0.15235123204262793 1.593327027226572 0.3344059046869596 -0.21042525336722473 0.7665263279082735 -0.7213325049804544 -0.7827055087712972 -0.18214774657877017 0.17238809608884506 -0.16153984052043147 -0.9629791782558061 1.8730694789323807 -0.35946721853096153 0.21249756251522117 -0.14771810414599074 -0.46901806757861153 0.5266791697355059 0.7378451579234969 0.06516666650532002 -0.6499599667747387 -0.2011039759662988 0.8243267838565094 -0.25886766513932835 -0.14507475298587272 -0.5291636267202564 -0.6055678138126087 0.03099156328550792 0.7968882280295825 0.433522445775163 1.4231120275296456 -0.3697120361874214 1.6177507074865751 -0.6032497072023932 0.42368231975628967 -0.6129731051377443 0.42508717052361633 -0.1632048869276802 0.26520414888031746 -1.5655827672337683 0.031955469860674 0.5949381020129044 -1.1295334412716935 0.6096787506571888 -1.7978372006609424 2.516703760599408 1.4757738766997357 0.4005735016529682 0.12137895203082967 -0.16247340807829436 1.107594475106757 -0.24901699759749374 0.5734850743454509 -1.2415733752897844 1.1252738946643912 -0.1309560541963035 2.1109520571796097 0.8748798142137126 0.12030834467447024 -0.22387366556264668 0.07620724059019779 -0.1821955690975701 -0.1851014298904554 -0.13415476363925927 0.2837430882247694 -0.08078868931329312 0.41393963854722904 0.22307585225169968 -0.838738331296149 -0.7471276116666875 0.6816344150598842 0.10111300269294199 -0.47728416424214576 0.8036700268381063 -0.23057087507716417 -0.7351293016542307 1.1395286048111923 -0.7486934134919105 -2.4923793249214303 -1.360720609776618
-0.36849076218581056 1.1969130562679322 0.44388476284609363 -0.6920432690980339 -0.38061145670874447 -0.44405471276505454 0.2696495862461808 -0.9453280408329461 -0.2874681024848404 -0.16337869350138315 -1.0158441445756374 0.6322728339076208 0.22229526533193328 0.33876932386197783 0.21970307912472486 -0.508228419229486 -0.23488827150559546 0.37080166970717426 -0.5537413160596206 0.6178841692861166 -0.3042530352526631 0.5634045501809974 0.9854380214799545 1.216931408371388 0.12861635031953333 0.371548832285844 -0.7059688780401907 1.266380149920819 0.38626839788420575 0.27963163715955713 0.03776307768138658 0.17647666433592188 0.30300733577102007 -0.34417866780300727 0.8229561287612278 1.6619140322673507 -0.6295402654678061 -0.6982828222498426 0.1956756058618759 0.3330861574342715 -1.3527738441257153 -1.6274689632156036 0.06042966604096688 0.15958708766943486 -0.21741685419370946 -0.6368383417911162 0.2785422607501203 -0.26934028253587805 -0.24619186944387278 -0.01477690119885842 0.9484383043271536 0.404378220111039 -0.2918487480510393 0.8173665504885923 -0.5841857485924068 -0.04554220740617318 -0.30281784546803336 1.1949538756590323 0.9899302529233531 0.43553484821950156 -0.6162530614405968 -0.22819980374182633 -0.2597169005135011 0.34459390096355497 0.5012231915562465 -0.20226148660950974 0.2842755636894717 -0.22180675573128894 0.39452755256920435 0.7648340278075151 -0.06349056435447777 0.19212954038183042 0.2340549769710227 0.744787393569285 -0.5405893520586947 -0.09691387700992986 0.725090686471306 -0.5180649457039336 -0.016996020337364276 0.39053488647004353 0.19810221302549755 -0.14935461130814923 0.0884937712670347 -0.2146158944098046 0.2768569026278974 -0.010869595724652247 0.2777511323073926 0.13908382550976048 -0.25585176113114 0.13574730493735976 0.06976251340611857 -0.3713336309512444 -0.90580632858924 -0.33514972483151956 -0.4439660097059902 -2.09175748652903 -0.20601452589403874 -0.42245950309278213 0.3374169235991415 0.5876685649346847 -0.1959255170891529 0.7088814237012953 -0.3524571057617156 -0.2475113595862447 0.28662735175109993 0.0043305090545538326 0.15336373246754234 -0.9003990415307397 -0.669521176736118 -0.6630042015532065 -0.34164330297566325 -0.09566097843943526 -0.22655121239480983 0.017239246696421923 0.6183919621604704 0.3804813588887834 -0.15917545405331296 0.8680483931141759 -0.4806343116613012 0.27424491892634706 -0.02219093427474243 0.33017541154537977 0.1665717465173841 0.1818952642483319 -1.9710223387297863 -0.2566251489620548 0.6151621423692631 -0.1136648712160236 0.6020163490159245 -0.5864084672753385 0.5861904377272614 -0.4605367695804778 -0.7283942969232423 -0.2874336497024792 0.14310117419926968 0.011926062013624622 -0.2375843302805199 -0.9835935120720478 -0.4635297907705307 0.22181189793761155 -0.4341878472733039 -0.40133454818870884 -0.3200378088907456 -0.23516697908827885 1.0469030707639713 0.5621153990559288 1.2151007829205525 0.9256053655930383 0.20278522032346363 -0.6420877631155135 -0.3760798873869781 -0.6325901080377234 0.0020082886792804123 -0.0938421800631416 1.0014307973637848 -0.4713572572347495 -0.15721113123809055 -1.1113238602422022 -0.016469458409932927 1.982937087889501 1.77798597026297 0.4774176044962165 0.24534906182760324 -0.0649964594760429 0.015237385775044724 0.3028024188490656 0.7084304522068058 -0.012047932303469573 -0.9632185479601217 1.8120590006872792 1.2724821490534988 0.7715330370942455 -0.9522131979885536 0.6339653911186953 0.03179760412657104 0.5153161793142028 -0.5221614843708104 -1.1107281356397323 -0.2844349720854714 -0.4529324748706587 -0.495073884125399 -0.2756299721993318 -0.3501891356631453 -2.3108309024895557 -2.1924578271645854 0.05257494588323849 0.2894149417985661 -0.39569200519095077 0.12623756567471164 -0.10420166892059474 0.6239923390663834 0.07563157059238587
0.26760993010833267 0.5676525268240741 -0.13337366249886062 0.7964516547127961 2.2328789112941094 0.46323514234824736 -0.26595233990025163 -0.022010699943136283 0.06607632280378298 -0.7488026853762653 -0.3575059810395327 -0.44393875601248056 -0.16828410122280052 -0.8698569070778245 0.5463090281512915 -0.5710450974453907 -0.18147180355766812 -0.728387869165339 -0.6008644947996684 -0.29988190276816096 -0.2592942111537857 -0.6996575911101821 0.6456543974208494 -0.19210048691610787 0.16840494307138093 -0.04802126507428504 -0.11064871009751912 0.3170363030602604 -0.10225302983465615 -0.32292387218928903 0.1525126973211567 0.026515529792025302 -0.7472181144979647 0.7143761282672794 -0.6233449352903717 -0.5758448328268793 0.4021876402176235 -0.2021517005045228 -0.048601820168103396 -0.039158158256700305 0.03591265473620912 0.3658569241073893 0.0693123132425774 -0.45916919980898985 0.1455923160522396 -0.5487364066458613 -0.9640089050719012 1.0174356574324737 -0.6212407444631752 0.2539244622014401 0.5237118595770658 -0.13690558691151908 0.5958634420406512 -0.8472700229162441 -0.2644945244078026 0.3623491680644469 -0.5337311914862809 0.05407621301911333 0.5061638233909734 0.1473784614183849 0.31813776365455537 0.5883493930517932 -0.6164937166964931 0.5678913823077574 0.28123883374567693 0.09157883795026164 -0.3372284617374192 0.38644477556106993 0.791372954638308 -0.16519646343641226 0.5421569536561308 1.0773554737165576 2.862636434979044 0.38531708971453 -0.6210931631417175 1.378043931546414 0.9376111318046627 0.6820450202347415 -1.2695865726732587 -0.09090932268706278 0.02372356886918495 -1.3967363657495946 0.6765464590140154 -0.8084746473156011 -0.06646044561607908 0.7619705902167909 -0.16088780875872938 0.6288596944610138 -1.1967425921283388 -0.9108806577883539 0.8069690093043522 -1.2527234783693328 -0.5669429023515591 0.36547537239825445 -0.1494559127727039 0.4990223272501857 -0.38010752048913243 -1.19095401047102 0.8077794210207895 -1.3029659194646528 -0.8937046602296995 0.1022471162973852 0.03365496905028397 -0.4846174646787654 -0.6394737225314341 0.2557795131323079 -0.3726389800262292 0.20273456959118635 0.3994303891874605 0.9275470627004412 -0.8026981498431401 0.2581189598987619 -0.11782543035161643 0.828048969903103 -0.7272804950337733 -0.3174407375875307 0.5159905796734082 0.203123834609805 -0.34186390362690156 0.15001589904123197 0.03247766091273116 -0.13621241749923638 -0.585971636848236 -0.9037430183023081 0.12733311273173553 -1.0019447608857261 -1.005001545434179 -1.5396786457734968 -0.575676425569815 0.31039025849865254 -0.5174003155367412 0.9831427976878746 0.7441163356441894 0.9900222984165271 0.3894095146163487 0.19992872471127504 0.617035448132576 0.2681881712093058 -0.00877671775136553 0.4173712899365973 -0.1720116865860328 -0.07132214458375459 0.6274412168469323 -0.350372455318545 -0.5012309048657303 0.2611281790387309 -0.41502361564002715 -0.385767032767755 0.2607774805675315 0.842435320531762 0.6831199984664752 -0.4724404629965993 0.3245416102983701 0.3198912560105523 0.12588352476940254 -0.3459784400159074 -2.164081332904421 -1.437532316720034 0.07732412780346039 -0.10444798060344591 -0.41012412145588073 -0.061333665912475015 0.48813447669308846 -0.6525212997440116 0.045243188108515624 -0.09905072084727456 0.9506191140285564 -0.06162600034191322 0.2114002156859843 -0.2134756101577743 -0.20415099032273873 0.745087184197891 0.5449777109343775 -0.3119257213065725 0.1705127334430031 -0.003280470523484673 0.36720392505358695 0.23616868087991583 -0.27551761499118355 -0.10356274978501519 0.8343173194103178 0.4730891523241918 1.6387046840304231 -0.23633991635045748 0.44248428295414116 -0.30099776154015906 -0.47833523121447946 -0.8412346153554415 -0.16223635236682382 0.27316685537081986 0.48571018352231193 0.7393873055996363
0.9051100738531638 -0.5461797016622788 -0.702578364301403 0.2367219822802246 0.017237446924209022 0.287389169617789 0.021974704498878284 0.2297013279880173 -0.06373224805163863 0.0863633551875932 -0.10084072286816181 0.9603237429108299 -0.2206639003760974 0.22390374746963373 -0.5764032764335106 0.7815924782127764 1.4665778120227646 -0.40147055954594085 -0.1514631730107198 -0.6196415182968554 -0.8037474170432609 0.14212569765987781 1.0017663263263328 -0.5977015236906545 1.2314578841223374 0.4453829446581749 0.012923392929887421 -0.4212369435395907 -0.07159699551169604 0.7770506244783649 -0.23387705663226172 -0.6042596365241464 0.047004907994628725 -0.6844392314985309 -0.12667773853592376 -1.5198850080863373 -0.48246622266371747 -0.20261347063228974 0.480237847553831 -1.0741305390213565 -0.31127266110360585 0.9061282307050331 -0.3695104616995765 -0.24046576559337302 0.019362206576695688 -1.0285369095519576 -1.0812643218526605 0.570759704994488 0.08806362570815156 -0.09474977947907554 0.3937675344747283 0.5881640165138645 -0.45343898219343204 -0.706367656140506 -0.993001178539193 0.7208977314358811 0.004048973258393027 0.1486439583943698 0.5339566772335256 -0.01857390634744543 -1.8647558168603626 0.5228618528719446 -0.9135805732180203 0.2099447141863804 0.06850730084277878 0.05705715002430818 0.7295947449892467 -0.41382805267002926 0.5985530730576725 0.5391454205233166 0.2176657369797219 0.336698300265562 0.30625412484309195 -0.30443609779774666 -0.517896024226237 -0.6949619854067257 0.2737602659804447 0.5016309685176265 0.342718538317713 1.285824888908992 -0.037564331407019175 0.00640898885013735 0.2587241975829286 0.28673559519419006 1.322628945111219 0.30156391845627417 1.2532551825030869 0.3078392099420247 -0.13619673376995253 -0.13881488811908996 -0.7745854507673241 -0.3491532381994632 -0.5688180078870849 0.19126050751331578 1.0270112169360506 1.3134976722339122 -0.588095110949142 -0.8456299162096598 -0.03114762924739797 0.4039460176696269 -0.02581927505594908 0.4059131686983268 -0.37438244507989715 0.15852856449793343 -0.006407960408872836 0.7775692159859963 -0.20029793512523567 0.005473364409745413 0.27914004223511923 0.32846845615660203 -0.4619238797359915 1.8513778528915599 0.30147752939005495 -1.2690129595579758 -0.04208921586056622 -0.11997718658729663 0.23775093776537115 -0.7537047506635729 -0.1301034763880211 0.7668654564152471 -1.0661580623388414 0.8091433912478516 -0.30052493566879857 0.845510617022976 0.17984712347005155 0.0763998162169781 -0.5564373748345449 -1.5432391094312454 -1.025345913418486 0.21979615305916336 0.5323047434523994 -0.160029317413176 0.2695968786313744 -0.6929274714752002 -0.43352938775369854 0.8678733009888924 0.596752529513824 0.03764506404628355 -0.036220158674298904 -0.5619007119419612 -0.5299434423090744 -0.46410314677549747 0.5164428367194783 0.7657315999211199 -0.2899710714123522 -0.1651931210023026 -0.7384737926464314 -0.18815230090163726 -1.0030433932665435 -1.4716403141473364 -0.2162269476506663 -0.8851336307312369 1.3975336648399093 0.05570809219558148 -0.24986443319945353 -0.2416690418728548 -1.0614256898601784 1.8173459601178314 0.9264836544329335 -0.41601143347459324 0.05826531139979643 -0.13732621938870543 -0.413651674993165 0.19791349405345915 -0.8810198656731795 -0.49124062642223787 -0.30312817761960054 1.2569555141728095 0.5311297493076917 0.3758459169993011 -0.013266635201919088 -0.4739682124950354 -0.05976657853567125 0.2022681714777291 0.011175299890529141 0.4608463304010966 0.48634858843725925 0.8609832587372785 0.0491054992773993 -0.2488149088890166 0.27499131017406836 -0.36432403240263067 -0.19360381093451173 0.10216946898191437 -0.9714525058341399 -0.1762943731217867 0.49650367459339 -1.2059571687480715 0.8406491751656167 0.3919831888807959 0.0067416895992077445 -0.3253345385133107
-0.03335132176693611 -0.46909057268775983 1.501700880978143 -0.014838093454097027 -0.1381194047139621 -0.025462148826846474 0.25052083583652984 -0.00704302288971045 -0.3563302155638767 0.2615806931951173 0.12121620120072026 0.13611908645448167 0.032932231951646504 -0.7248466887813 -0.3623846492880726 0.25483488983085145 -0.13499268615952234 -0.2968066062769469 0.270893743065927 0.776636933979714 0.0782947192468458 -0.30105098337559766 0.06549525348933237 -0.5636210370671776 0.10032958755969817 -0.5080633544065315 0.5236583806313111 -0.2681182372033189 -0.2315620353458399 0.4053151301030117 0.22940796511731457 -0.3699138677855823 -0.5082006513153441 -0.019036447806160765 0.08416968997038408 -0.717952275654312 0.24735066563866434 -0.10858925646532912 0.014399206144465526 0.6802491046765832 -0.307544047299109 -0.03549587891376468 0.1245601779722887 -0.07067499791805892 -0.07195669284395995 -0.7262492255557815 -0.252904505577358 -0.21162518721259682 0.22073074905829082 1.325278466918924 -1.435545368196992 -0.15564738629539646 0.3736892756676145 -0.7498331835233086 -0.3826786236504184 0.8767070972304385 -0.4608465875114127 -0.06515432521014586 0.7137816892163901 0.02434011940726131 0.2991067151650333 -0.39907300584804173 0.40376912577213037 -0.6676093044253857 0.04558745882181181 -0.07214772580884349 0.9084229402764806 -0.4671848710246147 0.08869046065887307 -1.0531562507625347 -0.8554523016167203 0.03959293180127375 -0.35930523903180056 0.21948453535601556 0.4791474427031296 -0.6206493907360795 -0.2672219506412946 0.1878640802372571 -0.45424425170354665 -0.834673417198156 0.8121585239250916 0.2468235894906007 0.9596850808855667 -0.4069966315704926 0.11765702309455223 0.6486625881195538 0.3371230465078065 -0.3638730609081411 -0.6470029410289438 -0.7812993724523899 0.24395398125228954 -0.24077326953146277 0.35992898865872847 0.8760877184788848 0.2922662952044321 -0.11925290682676237 -0.3620588905175377 -0.25886483692585094 0.6982702238443522 -0.1986675986106643 0.7106272027478084 0.060655151788211674 0.4354453738294888 0.6941191777904562 0.6665764922854972 0.6184899211909154 -0.6871244916401779 0.2735615197060772 -0.46824442263738064 -0.7199554221272697 -0.35514313723431096 -0.0747414546779487 0.41005573011179053 0.15779322899380566 -0.53925212130451 0.22678364012059007 0.5256700117447012 -2.2064564554365225 -0.21511905929846825 0.10812105857965894 0.34190349861558533 -0.03119030955987532 0.08868737533507952 -0.6243461228613765 0.24187601567733827 0.21708723876843258 0.3282429704093573 0.7418946454025223 -0.014266537221343172 0.9290349600998774 0.14001559329541047 0.10538900436047657 -0.8553785109559914 0.046315595237087975 -0.2285798127890644 -0.07157436980387673 -0.28493068077496736 -0.4900568905267818 -0.05945804615631696 -0.12192222612880937 0.32000232766711983 0.11802314818471932 -0.7877482134015272 -0.5456122591945829 0.016976737063654632 -0.18178882057745466 -0.8745663967383519 0.04729595687248629 0.9389103102320605 -0.11205896018148444 0.08670659745962486 0.29363335075528785 -0.5236118436640917 0.2841215546101106 0.16145139457168323 0.8646190557176527 -0.04793076224300778 0.553500403693408 -0.014607979721161938 0.12364332258497417 -0.20929499641752342 -0.2789991457818808 -0.5794556901065891 -0.08239434323751617 0.7472746787675131 -0.15329019891712956 -0.21111739433824286 0.018348677710516785 0.049692739239437005 -0.36680823227706505 0.10918395262653453 0.572051170112402 -0.7927968315690281 0.9467781430159113 0.290608447886035 0.38922799473316194 -0.16151567215071538 1.748855628555917 0.7155945740554128 -0.10900217563303163 -0.16747934593331804 -0.18782705635173458 -0.02052743052939045 -0.030897975130437107 -0.5848303241549412 -0.19684134403520293 0.4223471458846339 0.2191983715741644 0.049178775717495946 0.14531180869734328 -0.22742358769743415 -0.2481523356043533