An instance of this daemon is already running
An instance of this daemon is already running

     Program PWSCF v.7.1 starts on 10May2023 at 10:59: 1 

     This program is part of the open-source Quantum ESPRESSO suite
     for quantum simulation of materials; please cite
         "P. Giannozzi et al., J. Phys.:Condens. Matter 21 395502 (2009);
         "P. Giannozzi et al., J. Phys.:Condens. Matter 29 465901 (2017);
         "P. Giannozzi et al., J. Chem. Phys. 152 154105 (2020);
          URL http://www.quantum-espresso.org", 
     in publications or presentations arising from this work. More details at
     http://www.quantum-espresso.org/quote

     Parallel version (MPI & OpenMP), running on       4 processor cores
     Number of MPI processes:                 4
     Threads/MPI process:                     1

     MPI processes distributed on     1 nodes
     753568 MiB available memory on the printing compute node when the environment starts
 
     Reading input from pw-si-31.in
Warning: card &CELL ignored
Warning: card / ignored

     Current dimensions of program PWSCF are:
     Max number of different atomic species (ntypx) = 10
     Max number of k-points (npk) =  40000
     Max angular momentum in pseudopotentials (lmaxx) =  4

     IMPORTANT: XC functional enforced from input :
     Exchange-correlation= PBE
                           (   1   4   3   4   0   0   0)
     Any further DFT definition will be discarded
     Please, verify this is what you really want


     gamma-point specific algorithms are used
 
     K-points division:     npool     =       2
     R & G space division:  proc/nbgrp/npool/nimage =       2
     Subspace diagonalization in iterative solution of the eigenvalue problem:
     a serial algorithm will be used

     Message from routine divide_et_impera:
     suboptimal parallelization: some nodes have no k-points
 
     Parallelization info
     --------------------
     sticks:   dense  smooth     PW     G-vecs:    dense   smooth      PW
     Min        1941    1941    516                91047    91047   12416
     Max        1944    1944    517                91052    91052   12421
     Sum        3885    3885   1033               182099   182099   24837
 
     Using Slab Decomposition
 


     bravais-lattice index     =            0
     lattice parameter (alat)  =      20.1664  a.u.
     unit-cell volume          =    8201.4056 (a.u.)^3
     number of atoms/cell      =           64
     number of atomic types    =            1
     number of electrons       =       256.00
     number of Kohn-Sham states=          154
     kinetic-energy cutoff     =      30.0000  Ry
     charge density cutoff     =     120.0000  Ry
     scf convergence threshold =      1.0E-06
     mixing beta               =       0.5000
     number of iterations used =            8  plain     mixing
     Exchange-correlation= PBE
                           (   1   4   3   4   0   0   0)

     GPU acceleration is ACTIVE.
     GPU-aware MPI enabled

     Message from routine print_cuda_info:
     High GPU oversubscription detected. Are you sure this is what you want?

     celldm(1)=  20.166449  celldm(2)=   0.000000  celldm(3)=   0.000000
     celldm(4)=   0.000000  celldm(5)=   0.000000  celldm(6)=   0.000000

     crystal axes: (cart. coord. in units of alat)
               a(1) = (   1.000000   0.000000   0.000000 )  
               a(2) = (   0.000000   1.000000   0.000000 )  
               a(3) = (   0.000000   0.000000   1.000000 )  

     reciprocal axes: (cart. coord. in units 2 pi/alat)
               b(1) = (  1.000000  0.000000  0.000000 )  
               b(2) = (  0.000000  1.000000  0.000000 )  
               b(3) = (  0.000000  0.000000  1.000000 )  


     PseudoPot. # 1 for Si read from file:
     /home/ppiaggi/pseudos/Si_ONCV_PBE_sr.upf
     MD5 check sum: 8553c464762ac42b85b1eed164b4d029
     Pseudo is Norm-conserving, Zval =  4.0
     Generated using ONCVPSP code by D. R. Hamann
     Using radial grid of 1510 points,  4 beta functions with: 
                l(1) =   0
                l(2) =   0
                l(3) =   1
                l(4) =   1

     atomic species   valence    mass     pseudopotential
        Si             4.00    28.08500     Si( 1.00)

     No symmetry found



   Cartesian axes

     site n.     atom                  positions (alat units)
         1           Si  tau(   1) = (   0.8214350   0.8386170   0.6119950  )
         2           Si  tau(   2) = (   0.9991410   0.8100400   0.3371700  )
         3           Si  tau(   3) = (   0.8683420   0.1852160   0.9481510  )
         4           Si  tau(   4) = (   0.5208180   0.9733960   0.4517470  )
         5           Si  tau(   5) = (   0.5204660   0.5543460   0.3096700  )
         6           Si  tau(   6) = (   0.7143130   0.3838120   0.0281515  )
         7           Si  tau(   7) = (   0.3010090   0.0676475   0.9043130  )
         8           Si  tau(   8) = (   0.5415190   0.2368890   0.7573970  )
         9           Si  tau(   9) = (   0.6408360   0.0677823   0.6115260  )
        10           Si  tau(  10) = (   0.0905445   0.5608280   0.7997290  )
        11           Si  tau(  11) = (   0.3127730   0.8779390   0.4119630  )
        12           Si  tau(  12) = (   0.3703810   0.3226750   0.0938761  )
        13           Si  tau(  13) = (   0.2408030   0.6491980   0.3959250  )
        14           Si  tau(  14) = (   0.4364350   0.7838620   0.2323140  )
        15           Si  tau(  15) = (   0.7010630   0.6733860   0.8582600  )
        16           Si  tau(  16) = (   0.2632080   0.4562010   0.2462300  )
        17           Si  tau(  17) = (   0.3121450   0.2584010   0.7658250  )
        18           Si  tau(  18) = (   0.8301010   0.7263360   0.2185040  )
        19           Si  tau(  19) = (   0.8732920   0.5819220   0.7160950  )
        20           Si  tau(  20) = (   0.1166330   0.0928152   0.6215120  )
        21           Si  tau(  21) = (   0.0915550   0.4943980   0.0166003  )
        22           Si  tau(  22) = (   0.8756460   0.8542560   0.9624820  )
        23           Si  tau(  23) = (   0.6772840   0.9368600   0.8023310  )
        24           Si  tau(  24) = (   0.7566780   0.5103750   0.2727900  )
        25           Si  tau(  25) = (   0.6878760   0.7418350   0.4643930  )
        26           Si  tau(  26) = (   0.0940287   0.3341770   0.6418370  )
        27           Si  tau(  27) = (   0.9580640   0.3519800   0.3147870  )
        28           Si  tau(  28) = (   0.8637480   0.2998760   0.7219550  )
        29           Si  tau(  29) = (   0.3244450   0.4206580   0.9133580  )
        30           Si  tau(  30) = (   0.5486070   0.2159490   0.9791470  )
        31           Si  tau(  31) = (   0.7730440   0.5133070   0.5093270  )
        32           Si  tau(  32) = (   0.7766080   0.2275950   0.2322030  )
        33           Si  tau(  33) = (   0.0690753   0.5590230   0.5164980  )
        34           Si  tau(  34) = (   0.7677210   0.0205980   0.0786272  )
        35           Si  tau(  35) = (   0.5415320   0.5077340   0.0869516  )
        36           Si  tau(  36) = (   0.2897390   0.5765780   0.6811170  )
        37           Si  tau(  37) = (   0.1339130   0.0274852   0.3789450  )
        38           Si  tau(  38) = (   0.1179670   0.6642420   0.1858880  )
        39           Si  tau(  39) = (   0.3338460   0.7840440   0.6255620  )
        40           Si  tau(  40) = (   0.8617140   0.9942830   0.3088110  )
        41           Si  tau(  41) = (   0.5598800   0.5275910   0.6268310  )
        42           Si  tau(  42) = (   0.6748050   0.4282930   0.8033360  )
        43           Si  tau(  43) = (   0.9514820   0.0310280   0.7895480  )
        44           Si  tau(  44) = (   0.1749910   0.8230750   0.0397680  )
        45           Si  tau(  45) = (   0.0392595   0.9663950   0.1280760  )
        46           Si  tau(  46) = (   0.8772950   0.0456446   0.5239570  )
        47           Si  tau(  47) = (   0.0607820   0.7861330   0.5583340  )
        48           Si  tau(  48) = (   0.8024320   0.2550270   0.5162500  )
        49           Si  tau(  49) = (   0.1999040   0.1343670   0.0987153  )
        50           Si  tau(  50) = (   0.0204182   0.2885360   0.1004000  )
        51           Si  tau(  51) = (   0.5282950   0.1480060   0.2401610  )
        52           Si  tau(  52) = (   0.2093420   0.9443180   0.7379230  )
        53           Si  tau(  53) = (   0.3910140   0.8109690   0.0356266  )
        54           Si  tau(  54) = (   0.1566270   0.3341630   0.4255990  )
        55           Si  tau(  55) = (   0.4023270   0.1980170   0.5092620  )
        56           Si  tau(  56) = (   0.6314190   0.8861350   0.2376210  )
        57           Si  tau(  57) = (   0.2943580   0.1675680   0.3146470  )
        58           Si  tau(  58) = (   0.5494660   0.7766670   0.6813890  )
        59           Si  tau(  59) = (   0.5888340   0.3096840   0.4151880  )
        60           Si  tau(  60) = (   0.3767530   0.4516260   0.4845930  )
        61           Si  tau(  61) = (   0.5332280   0.9966710   0.9740150  )
        62           Si  tau(  62) = (   0.0740570   0.7847750   0.8336640  )
        63           Si  tau(  63) = (   0.8749470   0.5837240   0.0264953  )
        64           Si  tau(  64) = (   0.4419650   0.6439440   0.9025320  )

     number of k points=     1  Fermi-Dirac smearing, width (Ry)=  0.0100
                       cart. coord. in units 2pi/alat
        k(    1) = (   0.0000000   0.0000000   0.0000000), wk =   2.0000000

     Dense  grid:    91050 G-vectors     FFT dimensions: (  72,  72,  72)

     Estimated max dynamical RAM per process >     146.05 MB

     Estimated total dynamical RAM >     561.99 MB

     Initial potential from superposition of free atoms

     starting charge     255.9608, renormalised to     256.0000
     Starting wfcs are  256 randomized atomic wfcs

     total cpu time spent up to now is        5.0 secs

     Self-consistent Calculation

     iteration #  1     ecut=    30.00 Ry     beta= 0.50
     Davidson diagonalization with overlap
     ethr =  1.00E-02,  avg # of iterations =  3.0

     Threshold (ethr) on eigenvalues was too large:
     Diagonalizing with lowered threshold

     Davidson diagonalization with overlap
     ethr =  3.44E-04,  avg # of iterations =  5.0

     total cpu time spent up to now is        5.3 secs

     total energy              =    -501.36438875 Ry
     estimated scf accuracy    <       1.05779579 Ry

     iteration #  2     ecut=    30.00 Ry     beta= 0.50
     Davidson diagonalization with overlap
     ethr =  4.13E-04,  avg # of iterations =  3.0

     total cpu time spent up to now is        5.4 secs

     total energy              =    -501.07804106 Ry
     estimated scf accuracy    <       2.60891686 Ry

     iteration #  3     ecut=    30.00 Ry     beta= 0.50
     Davidson diagonalization with overlap
     ethr =  4.13E-04,  avg # of iterations =  3.0

     total cpu time spent up to now is        5.5 secs

     total energy              =    -501.31005421 Ry
     estimated scf accuracy    <       2.49219873 Ry

     iteration #  4     ecut=    30.00 Ry     beta= 0.50
     Davidson diagonalization with overlap
     ethr =  4.13E-04,  avg # of iterations =  2.0

     total cpu time spent up to now is        5.6 secs

     total energy              =    -501.46046048 Ry
     estimated scf accuracy    <       0.60214305 Ry

     iteration #  5     ecut=    30.00 Ry     beta= 0.50
     Davidson diagonalization with overlap
     ethr =  2.35E-04,  avg # of iterations =  2.0

     total cpu time spent up to now is        5.7 secs

     total energy              =    -501.49740393 Ry
     estimated scf accuracy    <       0.34461119 Ry

     iteration #  6     ecut=    30.00 Ry     beta= 0.50
     Davidson diagonalization with overlap
     ethr =  1.35E-04,  avg # of iterations =  2.0

     total cpu time spent up to now is        5.8 secs

     total energy              =    -501.53056587 Ry
     estimated scf accuracy    <       0.12128516 Ry

     iteration #  7     ecut=    30.00 Ry     beta= 0.50
     Davidson diagonalization with overlap
     ethr =  4.74E-05,  avg # of iterations =  2.0

     total cpu time spent up to now is        5.9 secs

     total energy              =    -501.53953003 Ry
     estimated scf accuracy    <       0.01881947 Ry

     iteration #  8     ecut=    30.00 Ry     beta= 0.50
     Davidson diagonalization with overlap
     ethr =  7.35E-06,  avg # of iterations = 16.0

     total cpu time spent up to now is        6.1 secs

     total energy              =    -501.54170829 Ry
     estimated scf accuracy    <       0.02268650 Ry

     iteration #  9     ecut=    30.00 Ry     beta= 0.50
     Davidson diagonalization with overlap
     ethr =  7.35E-06,  avg # of iterations =  2.0

     total cpu time spent up to now is        6.2 secs

     total energy              =    -501.54344804 Ry
     estimated scf accuracy    <       0.00109749 Ry

     iteration # 10     ecut=    30.00 Ry     beta= 0.50
     Davidson diagonalization with overlap
     ethr =  4.29E-07,  avg # of iterations =  4.0

     total cpu time spent up to now is        6.3 secs

     total energy              =    -501.54369518 Ry
     estimated scf accuracy    <       0.00065525 Ry

     iteration # 11     ecut=    30.00 Ry     beta= 0.50
     Davidson diagonalization with overlap
     ethr =  2.56E-07,  avg # of iterations =  2.0

     total cpu time spent up to now is        6.4 secs

     total energy              =    -501.54373405 Ry
     estimated scf accuracy    <       0.00059233 Ry

     iteration # 12     ecut=    30.00 Ry     beta= 0.50
     Davidson diagonalization with overlap
     ethr =  2.31E-07,  avg # of iterations =  2.0

     total cpu time spent up to now is        6.5 secs

     total energy              =    -501.54378427 Ry
     estimated scf accuracy    <       0.00014351 Ry

     iteration # 13     ecut=    30.00 Ry     beta= 0.50
     Davidson diagonalization with overlap
     ethr =  5.61E-08,  avg # of iterations =  2.0

     total cpu time spent up to now is        6.6 secs

     total energy              =    -501.54379264 Ry
     estimated scf accuracy    <       0.00010518 Ry

     iteration # 14     ecut=    30.00 Ry     beta= 0.50
     Davidson diagonalization with overlap
     ethr =  4.11E-08,  avg # of iterations =  2.0

     total cpu time spent up to now is        6.7 secs

     total energy              =    -501.54380037 Ry
     estimated scf accuracy    <       0.00003169 Ry

     iteration # 15     ecut=    30.00 Ry     beta= 0.50
     Davidson diagonalization with overlap
     ethr =  1.24E-08,  avg # of iterations =  2.0

     total cpu time spent up to now is        6.8 secs

     total energy              =    -501.54380221 Ry
     estimated scf accuracy    <       0.00001866 Ry

     iteration # 16     ecut=    30.00 Ry     beta= 0.50
     Davidson diagonalization with overlap
     ethr =  7.29E-09,  avg # of iterations =  2.0

     total cpu time spent up to now is        6.9 secs

     total energy              =    -501.54380414 Ry
     estimated scf accuracy    <       0.00001136 Ry

     iteration # 17     ecut=    30.00 Ry     beta= 0.50
     Davidson diagonalization with overlap
     ethr =  4.44E-09,  avg # of iterations =  1.0

     total cpu time spent up to now is        6.9 secs

     End of self-consistent calculation

          k = 0.0000 0.0000 0.0000 ( 11444 PWs)   bands (ev):

    -5.3532  -4.4023  -4.3858  -4.2048  -4.1447  -4.0111  -3.9320  -3.3839
    -3.3079  -3.2634  -3.1599  -3.0698  -3.0116  -2.9904  -2.8850  -2.8590
    -2.7335  -2.6271  -2.4753  -2.0985  -2.0449  -1.9054  -1.8481  -1.7299
    -1.6667  -1.5207  -1.3099  -0.9343  -0.9056  -0.7912  -0.6099  -0.4494
    -0.3969  -0.1310  -0.1116  -0.0759  -0.0322   0.0732   0.1764   0.2346
     0.3455   0.3850   0.4558   0.5601   0.7163   0.7755   0.7958   0.8628
     0.9817   1.0925   1.1411   1.3215   1.3875   1.4423   1.5419   1.6232
     1.7298   1.7523   1.8337   1.9094   2.0137   2.1359   2.1944   2.3771
     2.4239   2.5025   2.5961   2.6519   2.7777   2.8159   2.8493   2.9506
     3.0285   3.0755   3.2119   3.3187   3.4571   3.4842   3.6127   3.6979
     3.8432   4.0653   4.1446   4.2776   4.3465   4.4860   4.5534   4.6637
     4.7179   4.7680   4.8108   4.8693   4.9980   5.0681   5.1234   5.1404
     5.2346   5.2855   5.3146   5.3679   5.4360   5.4752   5.5517   5.5967
     5.6161   5.6806   5.8142   5.8814   5.9221   5.9821   6.0541   6.1212
     6.1516   6.1800   6.2100   6.2422   6.2832   6.4694   6.5233   6.5763
     6.6102   6.6642   6.6983   6.7440   6.8653   6.8728   6.9546   6.9594
     6.9986   7.0289   7.1219   7.2215   7.2443   7.4001   7.4689   7.5000
     7.5332   7.6399   7.7019   7.7574   7.8638   7.9270   7.9741   8.0226
     8.1037   8.1865   8.1956   8.2095   8.3322   8.4213   8.4980   8.5654
     8.6797   8.7011

     the Fermi energy is     7.0099 ev

!    total energy              =    -501.54380457 Ry
     estimated scf accuracy    <       0.00000055 Ry
     smearing contrib. (-TS)   =      -0.15574259 Ry
     internal energy E=F+TS    =    -501.38806198 Ry

     The total energy is F=E-TS. E is the sum of the following terms:
     one-electron contribution =     188.91668050 Ry
     hartree contribution      =      23.05435948 Ry
     xc contribution           =    -150.57154695 Ry
     ewald contribution        =    -562.78755501 Ry

     convergence has been achieved in  17 iterations

     Forces acting on atoms (cartesian axes, Ry/au):

     atom    1 type  1   force =     0.03549400    0.01103203    0.03052818
     atom    2 type  1   force =     0.01008126   -0.00066713   -0.00731225
     atom    3 type  1   force =     0.01633859    0.00832105   -0.00826061
     atom    4 type  1   force =    -0.00959528    0.00673074   -0.03233133
     atom    5 type  1   force =    -0.01047199    0.00915007   -0.01797915
     atom    6 type  1   force =     0.00619098   -0.01237888   -0.00158235
     atom    7 type  1   force =     0.03064850    0.01935122   -0.00680112
     atom    8 type  1   force =     0.00773356    0.01059382   -0.02470492
     atom    9 type  1   force =     0.00824272    0.03069364    0.03294220
     atom   10 type  1   force =    -0.01264658    0.01090397   -0.00880692
     atom   11 type  1   force =     0.00586316   -0.00437157   -0.00177868
     atom   12 type  1   force =     0.02635971   -0.01354390    0.04244865
     atom   13 type  1   force =    -0.00941544   -0.00367712   -0.01357480
     atom   14 type  1   force =     0.01207967   -0.04467537    0.10566619
     atom   15 type  1   force =     0.00967061    0.00786870    0.00861940
     atom   16 type  1   force =    -0.00004735    0.01251701    0.01689834
     atom   17 type  1   force =    -0.01332275   -0.01095098   -0.02085217
     atom   18 type  1   force =    -0.02238688   -0.01148507   -0.01451129
     atom   19 type  1   force =    -0.00206369   -0.00687585   -0.01237473
     atom   20 type  1   force =    -0.05505922    0.04977401   -0.04918359
     atom   21 type  1   force =    -0.00195264   -0.01758201    0.01129451
     atom   22 type  1   force =     0.00153893   -0.02428471   -0.02646565
     atom   23 type  1   force =     0.01740403   -0.03839078   -0.02069970
     atom   24 type  1   force =     0.00204609   -0.00901664    0.00940588
     atom   25 type  1   force =    -0.02793962   -0.03055795   -0.00767415
     atom   26 type  1   force =     0.00877563   -0.02844434    0.02321521
     atom   27 type  1   force =    -0.00352987    0.01181205   -0.00697766
     atom   28 type  1   force =     0.01169670    0.03256892    0.03612642
     atom   29 type  1   force =    -0.02368178    0.05709217   -0.01832882
     atom   30 type  1   force =     0.00335753    0.02285448    0.02386885
     atom   31 type  1   force =    -0.02717735    0.02290077    0.01109621
     atom   32 type  1   force =    -0.04446435   -0.01083843   -0.01338732
     atom   33 type  1   force =     0.01126252    0.01052369    0.01332115
     atom   34 type  1   force =    -0.02900880    0.01950637    0.01774551
     atom   35 type  1   force =    -0.03247994    0.00108915    0.00303471
     atom   36 type  1   force =    -0.01289386   -0.01796900   -0.00230207
     atom   37 type  1   force =     0.00132898   -0.02778720    0.01571736
     atom   38 type  1   force =     0.01570810   -0.01556209    0.00552879
     atom   39 type  1   force =    -0.01364399    0.02520809   -0.01681535
     atom   40 type  1   force =     0.00898003    0.00302555   -0.04568762
     atom   41 type  1   force =     0.01673424    0.02660470   -0.00770412
     atom   42 type  1   force =     0.01930030   -0.01996374   -0.00126683
     atom   43 type  1   force =     0.00318145   -0.01011048    0.00620863
     atom   44 type  1   force =    -0.00758036   -0.03057731   -0.02729406
     atom   45 type  1   force =    -0.01525935    0.01850414    0.04207578
     atom   46 type  1   force =     0.02792864    0.00320764    0.02900374
     atom   47 type  1   force =    -0.03232324   -0.02729995   -0.01418420
     atom   48 type  1   force =    -0.02762280   -0.00355823   -0.03259030
     atom   49 type  1   force =    -0.01781519    0.02753201    0.01887766
     atom   50 type  1   force =     0.01768570    0.00840353   -0.02154513
     atom   51 type  1   force =     0.00267631   -0.00712919    0.02082442
     atom   52 type  1   force =     0.00835175   -0.05568898    0.03698984
     atom   53 type  1   force =    -0.00169194    0.03547943   -0.06911008
     atom   54 type  1   force =     0.00868700    0.00611245   -0.03610855
     atom   55 type  1   force =     0.01273540    0.00403667    0.01362033
     atom   56 type  1   force =     0.04427074    0.01339993    0.03038650
     atom   57 type  1   force =    -0.00682677    0.00448465   -0.04025074
     atom   58 type  1   force =     0.02708913   -0.03772934   -0.00720315
     atom   59 type  1   force =     0.02541278   -0.00042169   -0.00877278
     atom   60 type  1   force =     0.00075993    0.00921131    0.00416209
     atom   61 type  1   force =    -0.01252953   -0.02423338   -0.00220811
     atom   62 type  1   force =    -0.01348024    0.02094260    0.03730590
     atom   63 type  1   force =    -0.01753405    0.02752454    0.00479218
     atom   64 type  1   force =     0.03883016   -0.04318980   -0.00507433

     Total force =     0.324060     Total SCF correction =     0.001409


     Computing stress (Cartesian axis) and pressure

          total   stress  (Ry/bohr**3)                   (kbar)     P=      -38.84
  -0.00033863   0.00005206   0.00004516          -49.81        7.66        6.64
   0.00005206  -0.00026174  -0.00001826            7.66      -38.50       -2.69
   0.00004516  -0.00001826  -0.00019163            6.64       -2.69      -28.19

 
     init_run     :      1.11s CPU      4.95s WALL (       1 calls)
     electrons    :      1.79s CPU      1.93s WALL (       1 calls)
     forces       :      0.04s CPU      0.04s WALL (       1 calls)
     stress       :      0.16s CPU      0.16s WALL (       1 calls)

     Called by init_run:
     wfcinit      :      0.56s CPU      4.23s WALL (       1 calls)
                                        4.23s GPU  (       1 calls)
     potinit      :      0.06s CPU      0.15s WALL (       1 calls)
     hinit0       :      0.47s CPU      0.50s WALL (       1 calls)

     Called by electrons:
     c_bands      :      1.05s CPU      1.11s WALL (      18 calls)
     sum_band     :      0.36s CPU      0.41s WALL (      18 calls)
     v_of_rho     :      0.19s CPU      0.28s WALL (      18 calls)
     mix_rho      :      0.17s CPU      0.18s WALL (      18 calls)

     Called by c_bands:
     init_us_2    :      0.07s CPU      0.07s WALL (      37 calls)
     init_us_2:gp :      0.07s CPU      0.07s WALL (      37 calls)
     regterg      :      0.89s CPU      0.94s WALL (      18 calls)

     Called by *egterg:
     rdiaghg      :      0.35s CPU      1.12s WALL (      74 calls)
                                        1.10s GPU  (      74 calls)
     h_psi        :      0.93s CPU      3.87s WALL (      76 calls)
                                        3.86s GPU  (      76 calls)
     g_psi        :      0.00s CPU      0.00s WALL (      57 calls)
                                        0.00s GPU  (      57 calls)

     Called by h_psi:
     h_psi:calbec :      0.53s CPU      3.40s WALL (      76 calls)
                                        3.40s GPU  (      76 calls)
     vloc_psi     :      0.35s CPU      0.42s WALL (      76 calls)
                                        0.42s GPU  (      76 calls)
     add_vuspsi   :      0.03s CPU      0.04s WALL (      76 calls)
                                        0.04s GPU  (      76 calls)

     General routines
     calbec       :      0.54s CPU      3.40s WALL (      81 calls)
     fft          :      0.62s CPU      0.75s WALL (     151 calls)
                                        0.13s GPU  (      96 calls)
     ffts         :      0.04s CPU      0.05s WALL (      18 calls)
     fftw         :      0.43s CPU      0.57s WALL (    1882 calls)
                                        0.50s GPU  (    1882 calls)
 
     Parallel routines
 
     PWSCF        :      3.15s CPU      7.16s WALL

 
   This run was terminated on:  10:59: 9  10May2023            

=------------------------------------------------------------------------------=
   JOB DONE.
=------------------------------------------------------------------------------=
