An instance of this daemon is already running

     Program PWSCF v.7.1 starts on 10May2023 at 11: 8:54 

     This program is part of the open-source Quantum ESPRESSO suite
     for quantum simulation of materials; please cite
         "P. Giannozzi et al., J. Phys.:Condens. Matter 21 395502 (2009);
         "P. Giannozzi et al., J. Phys.:Condens. Matter 29 465901 (2017);
         "P. Giannozzi et al., J. Chem. Phys. 152 154105 (2020);
          URL http://www.quantum-espresso.org", 
     in publications or presentations arising from this work. More details at
     http://www.quantum-espresso.org/quote

     Parallel version (MPI & OpenMP), running on       4 processor cores
     Number of MPI processes:                 4
     Threads/MPI process:                     1

     MPI processes distributed on     1 nodes
     753551 MiB available memory on the printing compute node when the environment starts
 
     Reading input from pw-si-92.in
Warning: card &CELL ignored
Warning: card / ignored

     Current dimensions of program PWSCF are:
     Max number of different atomic species (ntypx) = 10
     Max number of k-points (npk) =  40000
     Max angular momentum in pseudopotentials (lmaxx) =  4

     IMPORTANT: XC functional enforced from input :
     Exchange-correlation= PBE
                           (   1   4   3   4   0   0   0)
     Any further DFT definition will be discarded
     Please, verify this is what you really want


     gamma-point specific algorithms are used
 
     K-points division:     npool     =       2
     R & G space division:  proc/nbgrp/npool/nimage =       2
     Subspace diagonalization in iterative solution of the eigenvalue problem:
     a serial algorithm will be used

     Message from routine divide_et_impera:
     suboptimal parallelization: some nodes have no k-points
 
     Parallelization info
     --------------------
     sticks:   dense  smooth     PW     G-vecs:    dense   smooth      PW
     Min        1933    1933    515                90543    90543   12286
     Max        1936    1936    518                90548    90548   12287
     Sum        3869    3869   1033               181091   181091   24573
 
     Using Slab Decomposition
 


     bravais-lattice index     =            0
     lattice parameter (alat)  =      20.1324  a.u.
     unit-cell volume          =    8159.8986 (a.u.)^3
     number of atoms/cell      =           64
     number of atomic types    =            1
     number of electrons       =       256.00
     number of Kohn-Sham states=          154
     kinetic-energy cutoff     =      30.0000  Ry
     charge density cutoff     =     120.0000  Ry
     scf convergence threshold =      1.0E-06
     mixing beta               =       0.5000
     number of iterations used =            8  plain     mixing
     Exchange-correlation= PBE
                           (   1   4   3   4   0   0   0)

     GPU acceleration is ACTIVE.
     GPU-aware MPI enabled

     Message from routine print_cuda_info:
     High GPU oversubscription detected. Are you sure this is what you want?

     celldm(1)=  20.132371  celldm(2)=   0.000000  celldm(3)=   0.000000
     celldm(4)=   0.000000  celldm(5)=   0.000000  celldm(6)=   0.000000

     crystal axes: (cart. coord. in units of alat)
               a(1) = (   1.000000   0.000000   0.000000 )  
               a(2) = (   0.000000   1.000000   0.000000 )  
               a(3) = (   0.000000   0.000000   1.000000 )  

     reciprocal axes: (cart. coord. in units 2 pi/alat)
               b(1) = (  1.000000  0.000000  0.000000 )  
               b(2) = (  0.000000  1.000000  0.000000 )  
               b(3) = (  0.000000  0.000000  1.000000 )  


     PseudoPot. # 1 for Si read from file:
     /home/ppiaggi/pseudos/Si_ONCV_PBE_sr.upf
     MD5 check sum: 8553c464762ac42b85b1eed164b4d029
     Pseudo is Norm-conserving, Zval =  4.0
     Generated using ONCVPSP code by D. R. Hamann
     Using radial grid of 1510 points,  4 beta functions with: 
                l(1) =   0
                l(2) =   0
                l(3) =   1
                l(4) =   1

     atomic species   valence    mass     pseudopotential
        Si             4.00    28.08500     Si( 1.00)

     No symmetry found



   Cartesian axes

     site n.     atom                  positions (alat units)
         1           Si  tau(   1) = (   0.7250750   0.2670670   0.5110460  )
         2           Si  tau(   2) = (   0.4874800   0.6655160   0.9730660  )
         3           Si  tau(   3) = (   0.2560210   0.9253990   0.5693380  )
         4           Si  tau(   4) = (   0.6573320   0.4711890   0.7516990  )
         5           Si  tau(   5) = (   0.0991069   0.5712980   0.5051230  )
         6           Si  tau(   6) = (   0.9597670   0.7093170   0.6072450  )
         7           Si  tau(   7) = (   0.3233210   0.1600420   0.4216820  )
         8           Si  tau(   8) = (   0.7581070   0.5991100   0.5720420  )
         9           Si  tau(   9) = (   0.0345714   0.9246900   0.5478880  )
        10           Si  tau(  10) = (   0.0460156   0.1020450   0.7044790  )
        11           Si  tau(  11) = (   0.6663080   0.6958470   0.8226960  )
        12           Si  tau(  12) = (   0.0172723   0.7317440   0.0970401  )
        13           Si  tau(  13) = (   0.4968400   0.8340090   0.7479540  )
        14           Si  tau(  14) = (   0.2991050   0.9666100   0.8450310  )
        15           Si  tau(  15) = (   0.2614300   0.4466600   0.7401140  )
        16           Si  tau(  16) = (   0.6363500   0.0480740   0.7866030  )
        17           Si  tau(  17) = (   0.2842760   0.7276890   0.6735030  )
        18           Si  tau(  18) = (   0.3756460   0.1684290   0.0405049  )
        19           Si  tau(  19) = (   0.8520370   0.1689510   0.7882110  )
        20           Si  tau(  20) = (   0.4496340   0.9886170   0.4429480  )
        21           Si  tau(  21) = (   0.2588180   0.4673190   0.0593549  )
        22           Si  tau(  22) = (   0.8775440   0.4019500   0.0273023  )
        23           Si  tau(  23) = (   0.1504810   0.1512620   0.2883200  )
        24           Si  tau(  24) = (   0.7766630   0.3273710   0.2588680  )
        25           Si  tau(  25) = (   0.8219490   0.8734660   0.7360090  )
        26           Si  tau(  26) = (   0.5608290   0.5058190   0.1536770  )
        27           Si  tau(  27) = (   0.4004110   0.3479640   0.2119370  )
        28           Si  tau(  28) = (   0.7055940   0.8745160   0.0025669  )
        29           Si  tau(  29) = (   0.8551230   0.7173000   0.3600170  )
        30           Si  tau(  30) = (   0.0546662   0.9509460   0.3072950  )
        31           Si  tau(  31) = (   0.0118455   0.4381990   0.8268410  )
        32           Si  tau(  32) = (   0.6215860   0.4652080   0.4054260  )
        33           Si  tau(  33) = (   0.8498940   0.6324310   0.9621740  )
        34           Si  tau(  34) = (   0.8634100   0.1027120   0.4879840  )
        35           Si  tau(  35) = (   0.5214500   0.7616190   0.2372020  )
        36           Si  tau(  36) = (   0.2516630   0.6511730   0.9625900  )
        37           Si  tau(  37) = (   0.5143080   0.0277411   0.2119790  )
        38           Si  tau(  38) = (   0.4932360   0.3216850   0.6742070  )
        39           Si  tau(  39) = (   0.7379000   0.1211640   0.1567330  )
        40           Si  tau(  40) = (   0.2942020   0.7935610   0.3450890  )
        41           Si  tau(  41) = (   0.7369610   0.6756640   0.1626130  )
        42           Si  tau(  42) = (   0.5665480   0.7382480   0.4980700  )
        43           Si  tau(  43) = (   0.4154120   0.3962140   0.4395450  )
        44           Si  tau(  44) = (   0.8104890   0.9580920   0.3164240  )
        45           Si  tau(  45) = (   0.6243150   0.1924730   0.9705660  )
        46           Si  tau(  46) = (   0.2243430   0.2202690   0.6183750  )
        47           Si  tau(  47) = (   0.9868280   0.3067340   0.3274730  )
        48           Si  tau(  48) = (   0.0777962   0.6791040   0.8104110  )
        49           Si  tau(  49) = (   0.7096980   0.8953650   0.5356160  )
        50           Si  tau(  50) = (   0.1674020   0.2808750   0.9118060  )
        51           Si  tau(  51) = (   0.3772610   0.1729070   0.8043790  )
        52           Si  tau(  52) = (   0.5805340   0.0953312   0.5645610  )
        53           Si  tau(  53) = (   0.9311860   0.9403620   0.0523228  )
        54           Si  tau(  54) = (   0.6720040   0.4070910   0.9718450  )
        55           Si  tau(  55) = (   0.0822951   0.6881350   0.3123010  )
        56           Si  tau(  56) = (   0.4466780   0.8936890   0.0354194  )
        57           Si  tau(  57) = (   0.9473400   0.1750560   0.9944760  )
        58           Si  tau(  58) = (   0.0473611   0.3598060   0.5289560  )
        59           Si  tau(  59) = (   0.0504876   0.4915430   0.1572320  )
        60           Si  tau(  60) = (   0.2423610   0.8481200   0.1151560  )
        61           Si  tau(  61) = (   0.3051970   0.5882250   0.4763010  )
        62           Si  tau(  62) = (   0.1840010   0.0747620   0.0784793  )
        63           Si  tau(  63) = (   0.8732030   0.3655750   0.6602740  )
        64           Si  tau(  64) = (   0.0652580   0.9095640   0.8515090  )

     number of k points=     1  Fermi-Dirac smearing, width (Ry)=  0.0100
                       cart. coord. in units 2pi/alat
        k(    1) = (   0.0000000   0.0000000   0.0000000), wk =   2.0000000

     Dense  grid:    90546 G-vectors     FFT dimensions: (  72,  72,  72)

     Estimated max dynamical RAM per process >     145.38 MB

     Estimated total dynamical RAM >     559.42 MB

     Initial potential from superposition of free atoms

     starting charge     255.9608, renormalised to     256.0000
     Starting wfcs are  256 randomized atomic wfcs

     total cpu time spent up to now is        5.0 secs

     Self-consistent Calculation

     iteration #  1     ecut=    30.00 Ry     beta= 0.50
     Davidson diagonalization with overlap
     ethr =  1.00E-02,  avg # of iterations =  3.0

     Threshold (ethr) on eigenvalues was too large:
     Diagonalizing with lowered threshold

     Davidson diagonalization with overlap
     ethr =  3.92E-04,  avg # of iterations =  4.0

     total cpu time spent up to now is        5.3 secs

     total energy              =    -501.36036549 Ry
     estimated scf accuracy    <       1.20823142 Ry

     iteration #  2     ecut=    30.00 Ry     beta= 0.50
     Davidson diagonalization with overlap
     ethr =  4.72E-04,  avg # of iterations =  4.0

     total cpu time spent up to now is        5.4 secs

     total energy              =    -500.93099281 Ry
     estimated scf accuracy    <       4.83396811 Ry

     iteration #  3     ecut=    30.00 Ry     beta= 0.50
     Davidson diagonalization with overlap
     ethr =  4.72E-04,  avg # of iterations =  5.0

     total cpu time spent up to now is        5.6 secs

     total energy              =    -501.41488917 Ry
     estimated scf accuracy    <       1.93699505 Ry

     iteration #  4     ecut=    30.00 Ry     beta= 0.50
     Davidson diagonalization with overlap
     ethr =  4.72E-04,  avg # of iterations =  2.0

     total cpu time spent up to now is        5.7 secs

     total energy              =    -501.55333430 Ry
     estimated scf accuracy    <       0.44656077 Ry

     iteration #  5     ecut=    30.00 Ry     beta= 0.50
     Davidson diagonalization with overlap
     ethr =  1.74E-04,  avg # of iterations =  2.0

     total cpu time spent up to now is        5.8 secs

     total energy              =    -501.58537878 Ry
     estimated scf accuracy    <       0.16450626 Ry

     iteration #  6     ecut=    30.00 Ry     beta= 0.50
     Davidson diagonalization with overlap
     ethr =  6.43E-05,  avg # of iterations =  2.0

     total cpu time spent up to now is        5.9 secs

     total energy              =    -501.59992955 Ry
     estimated scf accuracy    <       0.19444241 Ry

     iteration #  7     ecut=    30.00 Ry     beta= 0.50
     Davidson diagonalization with overlap
     ethr =  6.43E-05,  avg # of iterations =  1.0

     total cpu time spent up to now is        5.9 secs

     total energy              =    -501.61478094 Ry
     estimated scf accuracy    <       0.00656895 Ry

     iteration #  8     ecut=    30.00 Ry     beta= 0.50
     Davidson diagonalization with overlap
     c_bands:  1 eigenvalues not converged
     ethr =  2.57E-06,  avg # of iterations = 20.0

     total cpu time spent up to now is        6.2 secs

     total energy              =    -501.61559472 Ry
     estimated scf accuracy    <       0.01502585 Ry

     iteration #  9     ecut=    30.00 Ry     beta= 0.50
     Davidson diagonalization with overlap
     ethr =  2.57E-06,  avg # of iterations =  3.0

     total cpu time spent up to now is        6.3 secs

     total energy              =    -501.61686932 Ry
     estimated scf accuracy    <       0.00342313 Ry

     iteration # 10     ecut=    30.00 Ry     beta= 0.50
     Davidson diagonalization with overlap
     ethr =  1.34E-06,  avg # of iterations =  2.0

     total cpu time spent up to now is        6.4 secs

     total energy              =    -501.61710055 Ry
     estimated scf accuracy    <       0.00085726 Ry

     iteration # 11     ecut=    30.00 Ry     beta= 0.50
     Davidson diagonalization with overlap
     ethr =  3.35E-07,  avg # of iterations =  2.0

     total cpu time spent up to now is        6.5 secs

     total energy              =    -501.61715412 Ry
     estimated scf accuracy    <       0.00051498 Ry

     iteration # 12     ecut=    30.00 Ry     beta= 0.50
     Davidson diagonalization with overlap
     ethr =  2.01E-07,  avg # of iterations =  2.0

     total cpu time spent up to now is        6.6 secs

     total energy              =    -501.61720788 Ry
     estimated scf accuracy    <       0.00028287 Ry

     iteration # 13     ecut=    30.00 Ry     beta= 0.50
     Davidson diagonalization with overlap
     ethr =  1.10E-07,  avg # of iterations =  2.0

     total cpu time spent up to now is        6.7 secs

     total energy              =    -501.61722679 Ry
     estimated scf accuracy    <       0.00005561 Ry

     iteration # 14     ecut=    30.00 Ry     beta= 0.50
     Davidson diagonalization with overlap
     ethr =  2.17E-08,  avg # of iterations =  3.0

     total cpu time spent up to now is        6.8 secs

     total energy              =    -501.61723288 Ry
     estimated scf accuracy    <       0.00003188 Ry

     iteration # 15     ecut=    30.00 Ry     beta= 0.50
     Davidson diagonalization with overlap
     ethr =  1.25E-08,  avg # of iterations =  2.0

     total cpu time spent up to now is        6.8 secs

     total energy              =    -501.61723467 Ry
     estimated scf accuracy    <       0.00000348 Ry

     iteration # 16     ecut=    30.00 Ry     beta= 0.50
     Davidson diagonalization with overlap
     ethr =  1.36E-09,  avg # of iterations =  4.0

     total cpu time spent up to now is        7.0 secs

     total energy              =    -501.61723525 Ry
     estimated scf accuracy    <       0.00001034 Ry

     iteration # 17     ecut=    30.00 Ry     beta= 0.50
     Davidson diagonalization with overlap
     ethr =  1.36E-09,  avg # of iterations =  2.0

     total cpu time spent up to now is        7.1 secs

     total energy              =    -501.61723586 Ry
     estimated scf accuracy    <       0.00000112 Ry

     iteration # 18     ecut=    30.00 Ry     beta= 0.50
     Davidson diagonalization with overlap
     ethr =  4.39E-10,  avg # of iterations =  3.0

     total cpu time spent up to now is        7.2 secs

     total energy              =    -501.61723593 Ry
     estimated scf accuracy    <       0.00000116 Ry

     iteration # 19     ecut=    30.00 Ry     beta= 0.50
     Davidson diagonalization with overlap
     ethr =  4.39E-10,  avg # of iterations =  2.0

     total cpu time spent up to now is        7.3 secs

     End of self-consistent calculation

          k = 0.0000 0.0000 0.0000 ( 11372 PWs)   bands (ev):

    -5.3644  -4.4287  -4.3129  -4.2950  -4.1744  -3.9158  -3.8997  -3.4296
    -3.3462  -3.2406  -3.1670  -3.0664  -3.0028  -2.8719  -2.8277  -2.8036
    -2.6491  -2.5497  -2.4482  -2.2448  -1.9982  -1.9798  -1.8131  -1.7328
    -1.6691  -1.4078  -1.0956  -0.9535  -0.8434  -0.6588  -0.5309  -0.4854
    -0.4117  -0.2074  -0.1398  -0.0660   0.0349   0.1306   0.2139   0.3262
     0.3733   0.3938   0.5085   0.6326   0.6997   0.8111   0.8496   0.9368
     1.0072   1.0916   1.2479   1.2712   1.3799   1.3845   1.4759   1.5883
     1.6388   1.7843   1.9310   1.9891   2.1148   2.2537   2.2748   2.4987
     2.5512   2.6231   2.6338   2.7381   2.7584   2.8279   2.8975   2.9846
     3.0892   3.1820   3.1876   3.2865   3.4330   3.5451   3.7474   3.7818
     3.8972   4.0142   4.1424   4.3351   4.3644   4.4226   4.5296   4.6139
     4.6767   4.7365   4.8818   4.9293   5.0217   5.0451   5.1242   5.2031
     5.2626   5.3200   5.3494   5.3785   5.4313   5.5201   5.5409   5.6233
     5.6342   5.7250   5.8006   5.8690   5.9221   5.9731   6.0651   6.1363
     6.1535   6.2385   6.3124   6.3332   6.3812   6.4148   6.4997   6.5056
     6.6641   6.7252   6.7479   6.8205   6.8356   6.9466   6.9887   7.1043
     7.1863   7.2572   7.3093   7.3652   7.3954   7.4219   7.5183   7.5387
     7.6173   7.6853   7.7175   7.7423   7.8042   7.8839   7.9624   7.9887
     8.1316   8.2156   8.2631   8.3741   8.4043   8.4683   8.5397   8.5897
     8.6621   8.7082

     the Fermi energy is     7.1191 ev

!    total energy              =    -501.61723578 Ry
     estimated scf accuracy    <       0.00000032 Ry
     smearing contrib. (-TS)   =      -0.13896477 Ry
     internal energy E=F+TS    =    -501.47827101 Ry

     The total energy is F=E-TS. E is the sum of the following terms:
     one-electron contribution =     184.03349184 Ry
     hartree contribution      =      25.97578966 Ry
     xc contribution           =    -150.91166294 Ry
     ewald contribution        =    -560.57588956 Ry

     convergence has been achieved in  19 iterations

     Forces acting on atoms (cartesian axes, Ry/au):

     atom    1 type  1   force =    -0.02615211    0.02318707   -0.01349862
     atom    2 type  1   force =    -0.00768764    0.02009005    0.02135658
     atom    3 type  1   force =     0.01363865   -0.01578328   -0.01805532
     atom    4 type  1   force =     0.01182094   -0.00693008    0.00564135
     atom    5 type  1   force =    -0.02220435   -0.02963057    0.00388174
     atom    6 type  1   force =    -0.01150923    0.01669024    0.01400902
     atom    7 type  1   force =    -0.01903837    0.06229560    0.01329272
     atom    8 type  1   force =    -0.02303693    0.00078559   -0.01768701
     atom    9 type  1   force =    -0.01356578    0.01858870   -0.01993993
     atom   10 type  1   force =     0.00640679   -0.02788656   -0.01268582
     atom   11 type  1   force =     0.00695690    0.00624876    0.01040106
     atom   12 type  1   force =     0.02740566    0.00016237    0.00661986
     atom   13 type  1   force =    -0.01467471   -0.00885527   -0.01237012
     atom   14 type  1   force =     0.01232293   -0.02117060    0.00718920
     atom   15 type  1   force =    -0.01506133   -0.03020643    0.00088692
     atom   16 type  1   force =     0.02337027   -0.00821159   -0.00566536
     atom   17 type  1   force =     0.01182288   -0.01671676   -0.00828942
     atom   18 type  1   force =     0.06333296    0.01689803    0.02234703
     atom   19 type  1   force =    -0.00567069    0.00233839   -0.01386221
     atom   20 type  1   force =    -0.03663948   -0.05741987   -0.05371892
     atom   21 type  1   force =    -0.03425162   -0.09268217    0.03947442
     atom   22 type  1   force =     0.04961974    0.00078805    0.00263526
     atom   23 type  1   force =    -0.02310789    0.01452743   -0.02420400
     atom   24 type  1   force =    -0.01588670   -0.02067508    0.00993691
     atom   25 type  1   force =    -0.02108913    0.00792284    0.00461075
     atom   26 type  1   force =     0.01002309    0.03750476   -0.01446726
     atom   27 type  1   force =    -0.01250649    0.01468353   -0.03171151
     atom   28 type  1   force =     0.00824779   -0.02292056   -0.00687102
     atom   29 type  1   force =    -0.00766205    0.02819841   -0.00706474
     atom   30 type  1   force =    -0.01859205   -0.02004217    0.02092888
     atom   31 type  1   force =     0.00829106    0.02633524    0.01792813
     atom   32 type  1   force =     0.04617588   -0.00874465   -0.01437160
     atom   33 type  1   force =     0.00116888   -0.01889697    0.01242131
     atom   34 type  1   force =     0.03909285   -0.05332682   -0.01288456
     atom   35 type  1   force =     0.00251953   -0.00160212   -0.00047906
     atom   36 type  1   force =    -0.00719316    0.06188978   -0.03120764
     atom   37 type  1   force =     0.01385416   -0.00238400   -0.00164113
     atom   38 type  1   force =    -0.01081395    0.00978598   -0.01835857
     atom   39 type  1   force =    -0.00977510   -0.01461467    0.03052896
     atom   40 type  1   force =    -0.00962386   -0.01275103   -0.00660748
     atom   41 type  1   force =    -0.01797971    0.00585447    0.00439609
     atom   42 type  1   force =    -0.00291201   -0.00858805    0.00426595
     atom   43 type  1   force =    -0.01447471   -0.03940261    0.01464548
     atom   44 type  1   force =     0.02538223   -0.00071769    0.00394640
     atom   45 type  1   force =    -0.02958280   -0.03204836   -0.01091954
     atom   46 type  1   force =    -0.02850763    0.01775174    0.00923732
     atom   47 type  1   force =     0.02562232    0.00124790   -0.02501096
     atom   48 type  1   force =     0.02304533   -0.00825529   -0.00219326
     atom   49 type  1   force =     0.02637912    0.04953006    0.00162131
     atom   50 type  1   force =     0.00778804    0.02908105   -0.00502080
     atom   51 type  1   force =    -0.01774066    0.03229865   -0.00381677
     atom   52 type  1   force =     0.06412655    0.04965306    0.06593606
     atom   53 type  1   force =    -0.00305741    0.00766037   -0.01130884
     atom   54 type  1   force =    -0.02641904    0.00478364   -0.01950099
     atom   55 type  1   force =    -0.00281617    0.01424319   -0.02845817
     atom   56 type  1   force =     0.01439413   -0.00935150   -0.01857996
     atom   57 type  1   force =     0.02667456    0.01759652    0.00058051
     atom   58 type  1   force =     0.02432340   -0.01694320    0.00957483
     atom   59 type  1   force =    -0.00070785   -0.00174217    0.01997862
     atom   60 type  1   force =    -0.03638914   -0.01765590    0.02398895
     atom   61 type  1   force =     0.03451587    0.03537536    0.01450463
     atom   62 type  1   force =    -0.04070183   -0.00996403    0.00594330
     atom   63 type  1   force =    -0.04119349   -0.00497184    0.03953894
     atom   64 type  1   force =    -0.00009746    0.00709502    0.00820213

     Total force =     0.327669     Total SCF correction =     0.001113


     Computing stress (Cartesian axis) and pressure

          total   stress  (Ry/bohr**3)                   (kbar)     P=      -32.29
  -0.00019481   0.00000376  -0.00000290          -28.66        0.55       -0.43
   0.00000376  -0.00025267  -0.00004205            0.55      -37.17       -6.19
  -0.00000290  -0.00004205  -0.00021099           -0.43       -6.19      -31.04

 
     init_run     :      1.08s CPU      4.94s WALL (       1 calls)
     electrons    :      2.06s CPU      2.24s WALL (       1 calls)
     forces       :      0.03s CPU      0.04s WALL (       1 calls)
     stress       :      0.15s CPU      0.16s WALL (       1 calls)

     Called by init_run:
     wfcinit      :      0.54s CPU      4.23s WALL (       1 calls)
                                        4.23s GPU  (       1 calls)
     potinit      :      0.05s CPU      0.14s WALL (       1 calls)
     hinit0       :      0.47s CPU      0.50s WALL (       1 calls)

     Called by electrons:
     c_bands      :      1.24s CPU      1.33s WALL (      20 calls)
     sum_band     :      0.40s CPU      0.45s WALL (      20 calls)
     v_of_rho     :      0.19s CPU      0.29s WALL (      20 calls)
     mix_rho      :      0.19s CPU      0.21s WALL (      20 calls)

     Called by c_bands:
     init_us_2    :      0.07s CPU      0.08s WALL (      41 calls)
     init_us_2:gp :      0.07s CPU      0.07s WALL (      41 calls)
     regterg      :      1.06s CPU      1.15s WALL (      20 calls)

     Called by *egterg:
     rdiaghg      :      0.44s CPU      1.20s WALL (      89 calls)
                                        1.18s GPU  (      89 calls)
     h_psi        :      0.97s CPU      3.95s WALL (      91 calls)
                                        3.95s GPU  (      91 calls)
     g_psi        :      0.00s CPU      0.00s WALL (      70 calls)
                                        0.00s GPU  (      70 calls)

     Called by h_psi:
     h_psi:calbec :      0.50s CPU      3.40s WALL (      91 calls)
                                        3.40s GPU  (      91 calls)
     vloc_psi     :      0.42s CPU      0.49s WALL (      91 calls)
                                        0.48s GPU  (      91 calls)
     add_vuspsi   :      0.03s CPU      0.05s WALL (      91 calls)
                                        0.05s GPU  (      91 calls)

     General routines
     calbec       :      0.50s CPU      3.41s WALL (      96 calls)
     fft          :      0.63s CPU      0.76s WALL (     167 calls)
                                        0.13s GPU  (     106 calls)
     ffts         :      0.05s CPU      0.05s WALL (      20 calls)
     fftw         :      0.50s CPU      0.65s WALL (    2114 calls)
                                        0.57s GPU  (    2114 calls)
 
     Parallel routines
 
     PWSCF        :      3.37s CPU      7.47s WALL

 
   This run was terminated on:  11: 9: 1  10May2023            

=------------------------------------------------------------------------------=
   JOB DONE.
=------------------------------------------------------------------------------=
