An instance of this daemon is already running

     Program PWSCF v.7.1 starts on 10May2023 at 10:56:45 

     This program is part of the open-source Quantum ESPRESSO suite
     for quantum simulation of materials; please cite
         "P. Giannozzi et al., J. Phys.:Condens. Matter 21 395502 (2009);
         "P. Giannozzi et al., J. Phys.:Condens. Matter 29 465901 (2017);
         "P. Giannozzi et al., J. Chem. Phys. 152 154105 (2020);
          URL http://www.quantum-espresso.org", 
     in publications or presentations arising from this work. More details at
     http://www.quantum-espresso.org/quote

     Parallel version (MPI & OpenMP), running on       4 processor cores
     Number of MPI processes:                 4
     Threads/MPI process:                     1

     MPI processes distributed on     1 nodes
     753554 MiB available memory on the printing compute node when the environment starts
 
     Reading input from pw-si-17.in
Warning: card &CELL ignored
Warning: card / ignored

     Current dimensions of program PWSCF are:
     Max number of different atomic species (ntypx) = 10
     Max number of k-points (npk) =  40000
     Max angular momentum in pseudopotentials (lmaxx) =  4

     IMPORTANT: XC functional enforced from input :
     Exchange-correlation= PBE
                           (   1   4   3   4   0   0   0)
     Any further DFT definition will be discarded
     Please, verify this is what you really want


     gamma-point specific algorithms are used
 
     K-points division:     npool     =       2
     R & G space division:  proc/nbgrp/npool/nimage =       2
     Subspace diagonalization in iterative solution of the eigenvalue problem:
     a serial algorithm will be used

     Message from routine divide_et_impera:
     suboptimal parallelization: some nodes have no k-points
 
     Parallelization info
     --------------------
     sticks:   dense  smooth     PW     G-vecs:    dense   smooth      PW
     Min        1945    1945    516                91383    91383   12416
     Max        1948    1948    517                91388    91388   12421
     Sum        3893    3893   1033               182771   182771   24837
 
     Using Slab Decomposition
 


     bravais-lattice index     =            0
     lattice parameter (alat)  =      20.1932  a.u.
     unit-cell volume          =    8234.1194 (a.u.)^3
     number of atoms/cell      =           64
     number of atomic types    =            1
     number of electrons       =       256.00
     number of Kohn-Sham states=          154
     kinetic-energy cutoff     =      30.0000  Ry
     charge density cutoff     =     120.0000  Ry
     scf convergence threshold =      1.0E-06
     mixing beta               =       0.5000
     number of iterations used =            8  plain     mixing
     Exchange-correlation= PBE
                           (   1   4   3   4   0   0   0)

     GPU acceleration is ACTIVE.
     GPU-aware MPI enabled

     Message from routine print_cuda_info:
     High GPU oversubscription detected. Are you sure this is what you want?

     celldm(1)=  20.193227  celldm(2)=   0.000000  celldm(3)=   0.000000
     celldm(4)=   0.000000  celldm(5)=   0.000000  celldm(6)=   0.000000

     crystal axes: (cart. coord. in units of alat)
               a(1) = (   1.000000   0.000000   0.000000 )  
               a(2) = (   0.000000   1.000000   0.000000 )  
               a(3) = (   0.000000   0.000000   1.000000 )  

     reciprocal axes: (cart. coord. in units 2 pi/alat)
               b(1) = (  1.000000  0.000000  0.000000 )  
               b(2) = (  0.000000  1.000000  0.000000 )  
               b(3) = (  0.000000  0.000000  1.000000 )  


     PseudoPot. # 1 for Si read from file:
     /home/ppiaggi/pseudos/Si_ONCV_PBE_sr.upf
     MD5 check sum: 8553c464762ac42b85b1eed164b4d029
     Pseudo is Norm-conserving, Zval =  4.0
     Generated using ONCVPSP code by D. R. Hamann
     Using radial grid of 1510 points,  4 beta functions with: 
                l(1) =   0
                l(2) =   0
                l(3) =   1
                l(4) =   1

     atomic species   valence    mass     pseudopotential
        Si             4.00    28.08500     Si( 1.00)

     No symmetry found



   Cartesian axes

     site n.     atom                  positions (alat units)
         1           Si  tau(   1) = (   0.8205640   0.5094150   0.5937410  )
         2           Si  tau(   2) = (   0.7393010   0.6891860   0.1669090  )
         3           Si  tau(   3) = (   0.7106690   0.1506690   0.0492016  )
         4           Si  tau(   4) = (   0.0020843   0.9300820   0.9281530  )
         5           Si  tau(   5) = (   0.8412820   0.9107630   0.2556400  )
         6           Si  tau(   6) = (   0.3520360   0.9223440   0.7571610  )
         7           Si  tau(   7) = (   0.4381230   0.2354420   0.6184410  )
         8           Si  tau(   8) = (   0.9609950   0.7916380   0.1394160  )
         9           Si  tau(   9) = (   0.6180470   0.3952410   0.8750570  )
        10           Si  tau(  10) = (   0.4323150   0.1464370   0.2219990  )
        11           Si  tau(  11) = (   0.2849320   0.6741080   0.1760850  )
        12           Si  tau(  12) = (   0.2578470   0.1904490   0.0914232  )
        13           Si  tau(  13) = (   0.1636490   0.9808330   0.1214200  )
        14           Si  tau(  14) = (   0.9967330   0.6600170   0.5073560  )
        15           Si  tau(  15) = (   0.6775690   0.9877630   0.5086070  )
        16           Si  tau(  16) = (   0.2890650   0.0946750   0.3651520  )
        17           Si  tau(  17) = (   0.4864180   0.5161570   0.0069547  )
        18           Si  tau(  18) = (   0.0903772   0.0318909   0.3088390  )
        19           Si  tau(  19) = (   0.9302490   0.1832690   0.2896110  )
        20           Si  tau(  20) = (   0.1448660   0.3926590   0.8421830  )
        21           Si  tau(  21) = (   0.0413798   0.1444450   0.6456470  )
        22           Si  tau(  22) = (   0.7016170   0.7663130   0.8052950  )
        23           Si  tau(  23) = (   0.4925860   0.8369800   0.3269180  )
        24           Si  tau(  24) = (   0.7209030   0.1560130   0.3246680  )
        25           Si  tau(  25) = (   0.3020040   0.4659710   0.6199610  )
        26           Si  tau(  26) = (   0.7163790   0.9924990   0.7501710  )
        27           Si  tau(  27) = (   0.3132110   0.2158980   0.8194780  )
        28           Si  tau(  28) = (   0.9325960   0.7749160   0.7590600  )
        29           Si  tau(  29) = (   0.6071740   0.4115060   0.4962710  )
        30           Si  tau(  30) = (   0.9253010   0.3014440   0.7746920  )
        31           Si  tau(  31) = (   0.5917230   0.6332350   0.3641940  )
        32           Si  tau(  32) = (   0.8149800   0.7907710   0.4361080  )
        33           Si  tau(  33) = (   0.0946006   0.8780170   0.4884670  )
        34           Si  tau(  34) = (   0.9274580   0.2703640   0.0795090  )
        35           Si  tau(  35) = (   0.5804130   0.7383240   0.0025008  )
        36           Si  tau(  36) = (   0.9835440   0.6318330   0.9467280  )
        37           Si  tau(  37) = (   0.8271410   0.5058780   0.8117450  )
        38           Si  tau(  38) = (   0.8951630   0.5292110   0.1509040  )
        39           Si  tau(  39) = (   0.3381470   0.6285030   0.4471070  )
        40           Si  tau(  40) = (   0.9372390   0.9741530   0.5987670  )
        41           Si  tau(  41) = (   0.1960010   0.5876210   0.9827970  )
        42           Si  tau(  42) = (   0.3530780   0.6954290   0.8481050  )
        43           Si  tau(  43) = (   0.0979065   0.7159050   0.2930660  )
        44           Si  tau(  44) = (   0.0204740   0.4996600   0.3337770  )
        45           Si  tau(  45) = (   0.5177200   0.5212880   0.6902120  )
        46           Si  tau(  46) = (   0.3688730   0.9018240   0.1036740  )
        47           Si  tau(  47) = (   0.5698670   0.3114080   0.2721490  )
        48           Si  tau(  48) = (   0.4560660   0.0022863   0.5184100  )
        49           Si  tau(  49) = (   0.2427990   0.4003830   0.2984880  )
        50           Si  tau(  50) = (   0.1266100   0.3795980   0.0863536  )
        51           Si  tau(  51) = (   0.6455630   0.2215030   0.7315010  )
        52           Si  tau(  52) = (   0.4405370   0.4947810   0.2187850  )
        53           Si  tau(  53) = (   0.6393270   0.9566650   0.1640020  )
        54           Si  tau(  54) = (   0.6903480   0.3912020   0.1191800  )
        55           Si  tau(  55) = (   0.8613770   0.0967340   0.8917320  )
        56           Si  tau(  56) = (   0.6750900   0.6859680   0.5865220  )
        57           Si  tau(  57) = (   0.1587820   0.0303483   0.8084280  )
        58           Si  tau(  58) = (   0.7679410   0.2636500   0.5524440  )
        59           Si  tau(  59) = (   0.2958180   0.8330900   0.5438490  )
        60           Si  tau(  60) = (   0.4822470   0.2099360   0.9657740  )
        61           Si  tau(  61) = (   0.1595250   0.6305730   0.6856530  )
        62           Si  tau(  62) = (   0.5082610   0.9861160   0.9013500  )
        63           Si  tau(  63) = (   0.2054780   0.2721210   0.4785130  )
        64           Si  tau(  64) = (   0.9718570   0.3315170   0.4715870  )

     number of k points=     1  Fermi-Dirac smearing, width (Ry)=  0.0100
                       cart. coord. in units 2pi/alat
        k(    1) = (   0.0000000   0.0000000   0.0000000), wk =   2.0000000

     Dense  grid:    91386 G-vectors     FFT dimensions: (  72,  72,  72)

     Estimated max dynamical RAM per process >     146.57 MB

     Estimated total dynamical RAM >     563.99 MB

     Initial potential from superposition of free atoms

     starting charge     255.9608, renormalised to     256.0000
     Starting wfcs are  256 randomized atomic wfcs

     total cpu time spent up to now is        5.0 secs

     Self-consistent Calculation

     iteration #  1     ecut=    30.00 Ry     beta= 0.50
     Davidson diagonalization with overlap
     ethr =  1.00E-02,  avg # of iterations =  3.0

     Threshold (ethr) on eigenvalues was too large:
     Diagonalizing with lowered threshold

     Davidson diagonalization with overlap
     ethr =  4.13E-04,  avg # of iterations =  4.0

     total cpu time spent up to now is        5.3 secs

     total energy              =    -501.38349025 Ry
     estimated scf accuracy    <       1.29251577 Ry

     iteration #  2     ecut=    30.00 Ry     beta= 0.50
     Davidson diagonalization with overlap
     ethr =  5.05E-04,  avg # of iterations =  4.0

     total cpu time spent up to now is        5.4 secs

     total energy              =    -500.79554713 Ry
     estimated scf accuracy    <       7.42483503 Ry

     iteration #  3     ecut=    30.00 Ry     beta= 0.50
     Davidson diagonalization with overlap
     ethr =  5.05E-04,  avg # of iterations =  4.0

     total cpu time spent up to now is        5.5 secs

     total energy              =    -501.50921619 Ry
     estimated scf accuracy    <       1.38140762 Ry

     iteration #  4     ecut=    30.00 Ry     beta= 0.50
     Davidson diagonalization with overlap
     ethr =  5.05E-04,  avg # of iterations =  2.0

     total cpu time spent up to now is        5.6 secs

     total energy              =    -501.58217052 Ry
     estimated scf accuracy    <       0.63409242 Ry

     iteration #  5     ecut=    30.00 Ry     beta= 0.50
     Davidson diagonalization with overlap
     ethr =  2.48E-04,  avg # of iterations =  2.0

     total cpu time spent up to now is        5.7 secs

     total energy              =    -501.62086479 Ry
     estimated scf accuracy    <       0.39700653 Ry

     iteration #  6     ecut=    30.00 Ry     beta= 0.50
     Davidson diagonalization with overlap
     ethr =  1.55E-04,  avg # of iterations =  2.0

     total cpu time spent up to now is        5.8 secs

     total energy              =    -501.65866558 Ry
     estimated scf accuracy    <       0.07025047 Ry

     iteration #  7     ecut=    30.00 Ry     beta= 0.50
     Davidson diagonalization with overlap
     ethr =  2.74E-05,  avg # of iterations =  2.0

     total cpu time spent up to now is        5.9 secs

     total energy              =    -501.66559331 Ry
     estimated scf accuracy    <       0.02607504 Ry

     iteration #  8     ecut=    30.00 Ry     beta= 0.50
     Davidson diagonalization with overlap
     c_bands:  1 eigenvalues not converged
     ethr =  1.02E-05,  avg # of iterations = 20.0

     total cpu time spent up to now is        6.1 secs

     total energy              =    -501.66823024 Ry
     estimated scf accuracy    <       0.01491858 Ry

     iteration #  9     ecut=    30.00 Ry     beta= 0.50
     Davidson diagonalization with overlap
     ethr =  5.83E-06,  avg # of iterations =  8.0

     total cpu time spent up to now is        6.2 secs

     total energy              =    -501.66946910 Ry
     estimated scf accuracy    <       0.00188261 Ry

     iteration # 10     ecut=    30.00 Ry     beta= 0.50
     Davidson diagonalization with overlap
     ethr =  7.35E-07,  avg # of iterations = 16.0

     total cpu time spent up to now is        6.4 secs

     total energy              =    -501.66970963 Ry
     estimated scf accuracy    <       0.00134586 Ry

     iteration # 11     ecut=    30.00 Ry     beta= 0.50
     Davidson diagonalization with overlap
     ethr =  5.26E-07,  avg # of iterations =  2.0

     total cpu time spent up to now is        6.5 secs

     total energy              =    -501.66981451 Ry
     estimated scf accuracy    <       0.00052783 Ry

     iteration # 12     ecut=    30.00 Ry     beta= 0.50
     Davidson diagonalization with overlap
     ethr =  2.06E-07,  avg # of iterations =  2.0

     total cpu time spent up to now is        6.6 secs

     total energy              =    -501.66988021 Ry
     estimated scf accuracy    <       0.00016522 Ry

     iteration # 13     ecut=    30.00 Ry     beta= 0.50
     Davidson diagonalization with overlap
     ethr =  6.45E-08,  avg # of iterations =  2.0

     total cpu time spent up to now is        6.7 secs

     total energy              =    -501.66989453 Ry
     estimated scf accuracy    <       0.00001352 Ry

     iteration # 14     ecut=    30.00 Ry     beta= 0.50
     Davidson diagonalization with overlap
     ethr =  5.28E-09,  avg # of iterations =  5.0

     total cpu time spent up to now is        6.8 secs

     total energy              =    -501.66989502 Ry
     estimated scf accuracy    <       0.00002732 Ry

     iteration # 15     ecut=    30.00 Ry     beta= 0.50
     Davidson diagonalization with overlap
     ethr =  5.28E-09,  avg # of iterations =  3.0

     total cpu time spent up to now is        6.9 secs

     total energy              =    -501.66989733 Ry
     estimated scf accuracy    <       0.00001739 Ry

     iteration # 16     ecut=    30.00 Ry     beta= 0.50
     Davidson diagonalization with overlap
     ethr =  5.28E-09,  avg # of iterations =  2.0

     total cpu time spent up to now is        7.0 secs

     total energy              =    -501.66989862 Ry
     estimated scf accuracy    <       0.00000279 Ry

     iteration # 17     ecut=    30.00 Ry     beta= 0.50
     Davidson diagonalization with overlap
     ethr =  1.09E-09,  avg # of iterations =  2.0

     total cpu time spent up to now is        7.1 secs

     total energy              =    -501.66989881 Ry
     estimated scf accuracy    <       0.00000117 Ry

     iteration # 18     ecut=    30.00 Ry     beta= 0.50
     Davidson diagonalization with overlap
     ethr =  4.56E-10,  avg # of iterations =  3.0

     total cpu time spent up to now is        7.2 secs

     End of self-consistent calculation

          k = 0.0000 0.0000 0.0000 ( 11444 PWs)   bands (ev):

    -5.4699  -4.6236  -4.4991  -4.3272  -4.1520  -4.0952  -4.0499  -3.6236
    -3.4263  -3.3825  -3.2200  -3.1420  -3.0111  -2.9580  -2.9390  -2.8989
    -2.8923  -2.7793  -2.6846  -2.2109  -2.0310  -1.9874  -1.9292  -1.8446
    -1.7335  -1.6718  -1.4634  -1.1374  -1.0628  -0.8969  -0.7920  -0.6330
    -0.4137  -0.3758  -0.2452  -0.2066  -0.1122   0.0129   0.0770   0.1789
     0.2643   0.2920   0.4182   0.4919   0.5845   0.6351   0.7742   0.8368
     0.9361   1.0107   1.0834   1.1262   1.2362   1.3089   1.3774   1.3973
     1.5595   1.6057   1.8314   1.9429   2.0610   2.2284   2.3144   2.3730
     2.4275   2.4932   2.5569   2.6862   2.7443   2.8287   2.8332   2.9894
     3.0339   3.1345   3.1580   3.1917   3.2863   3.3794   3.4464   3.5585
     3.7137   3.9794   4.0927   4.1316   4.2571   4.3150   4.3486   4.4828
     4.5199   4.5777   4.6984   4.7233   4.7980   4.8965   4.9660   5.0008
     5.0407   5.1369   5.2100   5.2553   5.3443   5.3739   5.4497   5.4551
     5.5549   5.5890   5.6899   5.7261   5.7835   5.8651   5.9293   5.9790
     6.0941   6.1230   6.1264   6.1521   6.2772   6.3560   6.4067   6.4864
     6.5099   6.5343   6.6213   6.7130   6.7300   6.8852   6.9210   6.9553
     7.0017   7.0862   7.1458   7.2299   7.3249   7.3829   7.4122   7.5506
     7.5694   7.5808   7.7220   7.7623   7.8211   7.8751   7.9425   7.9824
     8.1155   8.1400   8.2132   8.3107   8.3585   8.4162   8.4458   8.5347
     8.5576   8.6489

     the Fermi energy is     6.9985 ev

!    total energy              =    -501.66989819 Ry
     estimated scf accuracy    <       0.00000096 Ry
     smearing contrib. (-TS)   =      -0.13670320 Ry
     internal energy E=F+TS    =    -501.53319499 Ry

     The total energy is F=E-TS. E is the sum of the following terms:
     one-electron contribution =     182.82429420 Ry
     hartree contribution      =      25.47008415 Ry
     xc contribution           =    -150.99377485 Ry
     ewald contribution        =    -558.83379849 Ry

     convergence has been achieved in  18 iterations

     Forces acting on atoms (cartesian axes, Ry/au):

     atom    1 type  1   force =     0.01174611    0.00415600   -0.00351470
     atom    2 type  1   force =    -0.00112236    0.00725173    0.02850207
     atom    3 type  1   force =    -0.01541335    0.00865583    0.01102220
     atom    4 type  1   force =     0.02537106   -0.01117282    0.04281087
     atom    5 type  1   force =    -0.05057617    0.03584237    0.02780737
     atom    6 type  1   force =    -0.02825442   -0.04207667   -0.00959506
     atom    7 type  1   force =     0.01909049   -0.01640002    0.00807751
     atom    8 type  1   force =     0.04362525   -0.03095492   -0.08280438
     atom    9 type  1   force =     0.02587134    0.00835190   -0.01549048
     atom   10 type  1   force =     0.03420835   -0.01394215   -0.05994265
     atom   11 type  1   force =     0.01892407    0.01774534    0.00868784
     atom   12 type  1   force =    -0.01985330    0.00366425   -0.02370929
     atom   13 type  1   force =    -0.01203938    0.00277124   -0.08078608
     atom   14 type  1   force =    -0.00772638   -0.00468571    0.01855706
     atom   15 type  1   force =     0.03641904    0.00718383   -0.00621731
     atom   16 type  1   force =     0.01151661   -0.00083096    0.05695773
     atom   17 type  1   force =    -0.00099568    0.04642731   -0.00688005
     atom   18 type  1   force =    -0.03219376   -0.02483103    0.03716231
     atom   19 type  1   force =     0.03232689    0.01874946    0.00752301
     atom   20 type  1   force =     0.01653746    0.00511933    0.00046440
     atom   21 type  1   force =     0.04803190    0.06127334    0.02418734
     atom   22 type  1   force =     0.02749764    0.01032315   -0.02614093
     atom   23 type  1   force =    -0.02119751    0.01700070   -0.02225609
     atom   24 type  1   force =    -0.02511618   -0.05168934    0.04318417
     atom   25 type  1   force =     0.00671795   -0.00862655   -0.01056418
     atom   26 type  1   force =    -0.01536405    0.00004005   -0.00378825
     atom   27 type  1   force =    -0.04151352    0.00683632    0.00935077
     atom   28 type  1   force =    -0.00184668    0.01076276    0.01018647
     atom   29 type  1   force =    -0.01347689    0.01669941   -0.01400166
     atom   30 type  1   force =     0.02570417   -0.02097123    0.01734272
     atom   31 type  1   force =    -0.01538282   -0.00758032   -0.00746513
     atom   32 type  1   force =    -0.00992162    0.04352938    0.00817299
     atom   33 type  1   force =     0.00333847   -0.02265442   -0.06422537
     atom   34 type  1   force =    -0.00874927    0.01491845    0.01103639
     atom   35 type  1   force =    -0.00033871   -0.00272994   -0.00742617
     atom   36 type  1   force =    -0.03417095   -0.00906370    0.02511942
     atom   37 type  1   force =    -0.00561119   -0.02195795    0.02575463
     atom   38 type  1   force =    -0.01178234   -0.00574183   -0.03003300
     atom   39 type  1   force =     0.01202305   -0.00619078   -0.00504997
     atom   40 type  1   force =    -0.07574409   -0.06802883    0.02307496
     atom   41 type  1   force =     0.00877548   -0.02077943   -0.01838896
     atom   42 type  1   force =    -0.00462817   -0.01156539   -0.01586762
     atom   43 type  1   force =     0.03164218   -0.00508464    0.00586833
     atom   44 type  1   force =     0.02789986    0.02003494   -0.00873813
     atom   45 type  1   force =    -0.01590975   -0.00581203   -0.00864701
     atom   46 type  1   force =     0.02825730   -0.03522316    0.01263300
     atom   47 type  1   force =    -0.01060671   -0.01332179    0.07200353
     atom   48 type  1   force =    -0.04835161    0.01990195   -0.02305850
     atom   49 type  1   force =    -0.03697021    0.02576281   -0.02192822
     atom   50 type  1   force =     0.01193033   -0.01518251    0.00437693
     atom   51 type  1   force =    -0.03341189   -0.02709805   -0.00074311
     atom   52 type  1   force =    -0.02183398    0.04199309    0.03263665
     atom   53 type  1   force =    -0.01636802    0.02044500    0.01881721
     atom   54 type  1   force =     0.06020930    0.00119711   -0.06974942
     atom   55 type  1   force =    -0.01012934    0.03360029   -0.00139011
     atom   56 type  1   force =    -0.01448802   -0.03000635    0.02117305
     atom   57 type  1   force =     0.03467613    0.03620720   -0.02085102
     atom   58 type  1   force =     0.01783774    0.01687659   -0.01252626
     atom   59 type  1   force =     0.02804575   -0.02173788    0.02307118
     atom   60 type  1   force =     0.00611646   -0.02386200    0.01489145
     atom   61 type  1   force =    -0.00150878    0.00644473    0.00113390
     atom   62 type  1   force =     0.00796495    0.00915828    0.02277794
     atom   63 type  1   force =    -0.01995183    0.01470766    0.03189075
     atom   64 type  1   force =     0.02024362   -0.01382935   -0.02447704

     Total force =     0.368005     Total SCF correction =     0.002020


     Computing stress (Cartesian axis) and pressure

          total   stress  (Ry/bohr**3)                   (kbar)     P=      -28.08
  -0.00013892  -0.00005603  -0.00001173          -20.44       -8.24       -1.73
  -0.00005603  -0.00019962   0.00001006           -8.24      -29.37        1.48
  -0.00001173   0.00001006  -0.00023408           -1.73        1.48      -34.43

 
     init_run     :      1.09s CPU      4.96s WALL (       1 calls)
     electrons    :      2.04s CPU      2.19s WALL (       1 calls)
     forces       :      0.03s CPU      0.04s WALL (       1 calls)
     stress       :      0.15s CPU      0.16s WALL (       1 calls)

     Called by init_run:
     wfcinit      :      0.55s CPU      4.24s WALL (       1 calls)
                                        4.24s GPU  (       1 calls)
     potinit      :      0.05s CPU      0.15s WALL (       1 calls)
     hinit0       :      0.47s CPU      0.50s WALL (       1 calls)

     Called by electrons:
     c_bands      :      1.26s CPU      1.33s WALL (      19 calls)
     sum_band     :      0.38s CPU      0.42s WALL (      19 calls)
     v_of_rho     :      0.18s CPU      0.29s WALL (      19 calls)
     mix_rho      :      0.18s CPU      0.20s WALL (      19 calls)

     Called by c_bands:
     init_us_2    :      0.07s CPU      0.07s WALL (      39 calls)
     init_us_2:gp :      0.07s CPU      0.07s WALL (      39 calls)
     regterg      :      1.10s CPU      1.16s WALL (      19 calls)

     Called by *egterg:
     rdiaghg      :      0.48s CPU      1.24s WALL (     106 calls)
                                        1.22s GPU  (     106 calls)
     h_psi        :      0.96s CPU      3.93s WALL (     108 calls)
                                        3.93s GPU  (     108 calls)
     g_psi        :      0.00s CPU      0.00s WALL (      88 calls)
                                        0.00s GPU  (      88 calls)

     Called by h_psi:
     h_psi:calbec :      0.51s CPU      3.40s WALL (     108 calls)
                                        3.40s GPU  (     108 calls)
     vloc_psi     :      0.38s CPU      0.46s WALL (     108 calls)
                                        0.46s GPU  (     108 calls)
     add_vuspsi   :      0.05s CPU      0.07s WALL (     108 calls)
                                        0.06s GPU  (     108 calls)

     General routines
     calbec       :      0.51s CPU      3.40s WALL (     113 calls)
     fft          :      0.62s CPU      0.76s WALL (     159 calls)
                                        0.14s GPU  (     101 calls)
     ffts         :      0.04s CPU      0.05s WALL (      19 calls)
     fftw         :      0.46s CPU      0.61s WALL (    2047 calls)
                                        0.53s GPU  (    2047 calls)
 
     Parallel routines
 
     PWSCF        :      3.36s CPU      7.44s WALL

 
   This run was terminated on:  10:56:52  10May2023            

=------------------------------------------------------------------------------=
   JOB DONE.
=------------------------------------------------------------------------------=
