An instance of this daemon is already running
An instance of this daemon is already running

     Program PWSCF v.7.1 starts on 10May2023 at 10:56:16 

     This program is part of the open-source Quantum ESPRESSO suite
     for quantum simulation of materials; please cite
         "P. Giannozzi et al., J. Phys.:Condens. Matter 21 395502 (2009);
         "P. Giannozzi et al., J. Phys.:Condens. Matter 29 465901 (2017);
         "P. Giannozzi et al., J. Chem. Phys. 152 154105 (2020);
          URL http://www.quantum-espresso.org", 
     in publications or presentations arising from this work. More details at
     http://www.quantum-espresso.org/quote

     Parallel version (MPI & OpenMP), running on       4 processor cores
     Number of MPI processes:                 4
     Threads/MPI process:                     1

     MPI processes distributed on     1 nodes
     753564 MiB available memory on the printing compute node when the environment starts
 
     Reading input from pw-si-14.in
Warning: card &CELL ignored
Warning: card / ignored

     Current dimensions of program PWSCF are:
     Max number of different atomic species (ntypx) = 10
     Max number of k-points (npk) =  40000
     Max angular momentum in pseudopotentials (lmaxx) =  4

     IMPORTANT: XC functional enforced from input :
     Exchange-correlation= PBE
                           (   1   4   3   4   0   0   0)
     Any further DFT definition will be discarded
     Please, verify this is what you really want


     gamma-point specific algorithms are used
 
     K-points division:     npool     =       2
     R & G space division:  proc/nbgrp/npool/nimage =       2
     Subspace diagonalization in iterative solution of the eigenvalue problem:
     a serial algorithm will be used

     Message from routine divide_et_impera:
     suboptimal parallelization: some nodes have no k-points
 
     Parallelization info
     --------------------
     sticks:   dense  smooth     PW     G-vecs:    dense   smooth      PW
     Min        1971    1971    520                93009    93009   12668
     Max        1974    1974    521                93014    93014   12673
     Sum        3945    3945   1041               186023   186023   25341
 
     Using Slab Decomposition
 


     bravais-lattice index     =            0
     lattice parameter (alat)  =      20.3076  a.u.
     unit-cell volume          =    8374.7958 (a.u.)^3
     number of atoms/cell      =           64
     number of atomic types    =            1
     number of electrons       =       256.00
     number of Kohn-Sham states=          154
     kinetic-energy cutoff     =      30.0000  Ry
     charge density cutoff     =     120.0000  Ry
     scf convergence threshold =      1.0E-06
     mixing beta               =       0.5000
     number of iterations used =            8  plain     mixing
     Exchange-correlation= PBE
                           (   1   4   3   4   0   0   0)

     GPU acceleration is ACTIVE.
     GPU-aware MPI enabled

     Message from routine print_cuda_info:
     High GPU oversubscription detected. Are you sure this is what you want?

     celldm(1)=  20.307575  celldm(2)=   0.000000  celldm(3)=   0.000000
     celldm(4)=   0.000000  celldm(5)=   0.000000  celldm(6)=   0.000000

     crystal axes: (cart. coord. in units of alat)
               a(1) = (   1.000000   0.000000   0.000000 )  
               a(2) = (   0.000000   1.000000   0.000000 )  
               a(3) = (   0.000000   0.000000   1.000000 )  

     reciprocal axes: (cart. coord. in units 2 pi/alat)
               b(1) = (  1.000000  0.000000  0.000000 )  
               b(2) = (  0.000000  1.000000  0.000000 )  
               b(3) = (  0.000000  0.000000  1.000000 )  


     PseudoPot. # 1 for Si read from file:
     /home/ppiaggi/pseudos/Si_ONCV_PBE_sr.upf
     MD5 check sum: 8553c464762ac42b85b1eed164b4d029
     Pseudo is Norm-conserving, Zval =  4.0
     Generated using ONCVPSP code by D. R. Hamann
     Using radial grid of 1510 points,  4 beta functions with: 
                l(1) =   0
                l(2) =   0
                l(3) =   1
                l(4) =   1

     atomic species   valence    mass     pseudopotential
        Si             4.00    28.08500     Si( 1.00)

     No symmetry found



   Cartesian axes

     site n.     atom                  positions (alat units)
         1           Si  tau(   1) = (   0.9518650   0.6639790   0.8216700  )
         2           Si  tau(   2) = (   0.8276110   0.2155190   0.6029970  )
         3           Si  tau(   3) = (   0.4829320   0.6302480   0.7094210  )
         4           Si  tau(   4) = (   0.9769670   0.6679510   0.2398630  )
         5           Si  tau(   5) = (   0.9254900   0.8205510   0.5555830  )
         6           Si  tau(   6) = (   0.7325900   0.5120650   0.5890680  )
         7           Si  tau(   7) = (   0.3449100   0.8194040   0.5974970  )
         8           Si  tau(   8) = (   0.6477930   0.0706080   0.1643220  )
         9           Si  tau(   9) = (   0.7616300   0.1249100   0.8453290  )
        10           Si  tau(  10) = (   0.7233950   0.7524560   0.5713720  )
        11           Si  tau(  11) = (   0.1745310   0.7933810   0.4069610  )
        12           Si  tau(  12) = (   0.2800480   0.5145360   0.3083600  )
        13           Si  tau(  13) = (   0.3907860   0.9643090   0.3667960  )
        14           Si  tau(  14) = (   0.8569210   0.3100270   0.8521420  )
        15           Si  tau(  15) = (   0.9410450   0.5724680   0.0414544  )
        16           Si  tau(  16) = (   0.7733590   0.5676690   0.3354750  )
        17           Si  tau(  17) = (   0.2452280   0.9663920   0.7053650  )
        18           Si  tau(  18) = (   0.2023380   0.5877800   0.0524259  )
        19           Si  tau(  19) = (   0.5007510   0.4087750   0.2456240  )
        20           Si  tau(  20) = (   0.4821360   0.9257210   0.1731250  )
        21           Si  tau(  21) = (   0.8315420   0.8849410   0.1164720  )
        22           Si  tau(  22) = (   0.1143970   0.1335800   0.9227160  )
        23           Si  tau(  23) = (   0.4209810   0.3148160   0.4595050  )
        24           Si  tau(  24) = (   0.2636650   0.0495436   0.1126360  )
        25           Si  tau(  25) = (   0.7330690   0.6857490   0.8503590  )
        26           Si  tau(  26) = (   0.9391340   0.9929420   0.9422230  )
        27           Si  tau(  27) = (   0.5560140   0.6389920   0.2851450  )
        28           Si  tau(  28) = (   0.0956781   0.3228120   0.7452590  )
        29           Si  tau(  29) = (   0.0690266   0.5216870   0.3658130  )
        30           Si  tau(  30) = (   0.6973100   0.4755340   0.8167430  )
        31           Si  tau(  31) = (   0.2086650   0.7822890   0.9151810  )
        32           Si  tau(  32) = (   0.6317490   0.1648260   0.5309520  )
        33           Si  tau(  33) = (   0.1079240   0.8687620   0.1197420  )
        34           Si  tau(  34) = (   0.0001076   0.0723701   0.5373350  )
        35           Si  tau(  35) = (   0.2065340   0.1809030   0.5943860  )
        36           Si  tau(  36) = (   0.0075919   0.2717610   0.2301000  )
        37           Si  tau(  37) = (   0.0670734   0.0505477   0.3017050  )
        38           Si  tau(  38) = (   0.2477080   0.1629710   0.3814420  )
        39           Si  tau(  39) = (   0.3674640   0.2430170   0.7733660  )
        40           Si  tau(  40) = (   0.2967770   0.4685770   0.8504640  )
        41           Si  tau(  41) = (   0.9581100   0.4774290   0.6650580  )
        42           Si  tau(  42) = (   0.7144890   0.6866220   0.0517539  )
        43           Si  tau(  43) = (   0.2149470   0.6683900   0.7352270  )
        44           Si  tau(  44) = (   0.8907340   0.8787440   0.3336590  )
        45           Si  tau(  45) = (   0.4709580   0.7582610   0.0265720  )
        46           Si  tau(  46) = (   0.4796750   0.8616530   0.8296430  )
        47           Si  tau(  47) = (   0.5047480   0.5433470   0.4861210  )
        48           Si  tau(  48) = (   0.5891300   0.1698420   0.9941240  )
        49           Si  tau(  49) = (   0.0535354   0.3598450   0.0110640  )
        50           Si  tau(  50) = (   0.5027940   0.5247980   0.9320160  )
        51           Si  tau(  51) = (   0.2992590   0.7260950   0.2412910  )
        52           Si  tau(  52) = (   0.3642650   0.0658523   0.8984070  )
        53           Si  tau(  53) = (   0.5633780   0.3135500   0.7197820  )
        54           Si  tau(  54) = (   0.0781085   0.6537350   0.5457290  )
        55           Si  tau(  55) = (   0.6557400   0.2426990   0.3311340  )
        56           Si  tau(  56) = (   0.2608000   0.3068550   0.1566840  )
        57           Si  tau(  57) = (   0.6762630   0.9020280   0.7513810  )
        58           Si  tau(  58) = (   0.8690920   0.3643940   0.4109900  )
        59           Si  tau(  59) = (   0.6958770   0.4642250   0.1108090  )
        60           Si  tau(  60) = (   0.5685140   0.9494500   0.5333900  )
        61           Si  tau(  61) = (   0.4399960   0.3318730   0.0455819  )
        62           Si  tau(  62) = (   0.8082470   0.2923320   0.0735050  )
        63           Si  tau(  63) = (   0.6674720   0.8525220   0.3445640  )
        64           Si  tau(  64) = (   0.0213618   0.8890050   0.7530150  )

     number of k points=     1  Fermi-Dirac smearing, width (Ry)=  0.0100
                       cart. coord. in units 2pi/alat
        k(    1) = (   0.0000000   0.0000000   0.0000000), wk =   2.0000000

     Dense  grid:    93012 G-vectors     FFT dimensions: (  72,  72,  72)

     Estimated max dynamical RAM per process >     148.81 MB

     Estimated total dynamical RAM >     572.53 MB

     Initial potential from superposition of free atoms

     starting charge     255.9608, renormalised to     256.0000
     Starting wfcs are  256 randomized atomic wfcs

     total cpu time spent up to now is        5.0 secs

     Self-consistent Calculation

     iteration #  1     ecut=    30.00 Ry     beta= 0.50
     Davidson diagonalization with overlap
     ethr =  1.00E-02,  avg # of iterations =  3.0

     Threshold (ethr) on eigenvalues was too large:
     Diagonalizing with lowered threshold

     Davidson diagonalization with overlap
     ethr =  4.33E-04,  avg # of iterations =  4.0

     total cpu time spent up to now is        5.3 secs

     total energy              =    -501.11329875 Ry
     estimated scf accuracy    <       1.34028952 Ry

     iteration #  2     ecut=    30.00 Ry     beta= 0.50
     Davidson diagonalization with overlap
     ethr =  5.24E-04,  avg # of iterations =  4.0

     total cpu time spent up to now is        5.4 secs

     total energy              =    -500.45255268 Ry
     estimated scf accuracy    <       8.73802774 Ry

     iteration #  3     ecut=    30.00 Ry     beta= 0.50
     Davidson diagonalization with overlap
     ethr =  5.24E-04,  avg # of iterations =  4.0

     total cpu time spent up to now is        5.6 secs

     total energy              =    -501.23925292 Ry
     estimated scf accuracy    <       1.87119430 Ry

     iteration #  4     ecut=    30.00 Ry     beta= 0.50
     Davidson diagonalization with overlap
     ethr =  5.24E-04,  avg # of iterations =  2.0

     total cpu time spent up to now is        5.6 secs

     total energy              =    -501.35622339 Ry
     estimated scf accuracy    <       0.60714292 Ry

     iteration #  5     ecut=    30.00 Ry     beta= 0.50
     Davidson diagonalization with overlap
     ethr =  2.37E-04,  avg # of iterations =  2.0

     total cpu time spent up to now is        5.7 secs

     total energy              =    -501.38359015 Ry
     estimated scf accuracy    <       0.52312357 Ry

     iteration #  6     ecut=    30.00 Ry     beta= 0.50
     Davidson diagonalization with overlap
     ethr =  2.04E-04,  avg # of iterations =  2.0

     total cpu time spent up to now is        5.8 secs

     total energy              =    -501.43090818 Ry
     estimated scf accuracy    <       0.06970770 Ry

     iteration #  7     ecut=    30.00 Ry     beta= 0.50
     Davidson diagonalization with overlap
     ethr =  2.72E-05,  avg # of iterations =  2.0

     total cpu time spent up to now is        5.9 secs

     total energy              =    -501.43801808 Ry
     estimated scf accuracy    <       0.03175766 Ry

     iteration #  8     ecut=    30.00 Ry     beta= 0.50
     Davidson diagonalization with overlap
     ethr =  1.24E-05,  avg # of iterations =  2.0

     total cpu time spent up to now is        6.0 secs

     total energy              =    -501.44119298 Ry
     estimated scf accuracy    <       0.02212499 Ry

     iteration #  9     ecut=    30.00 Ry     beta= 0.50
     Davidson diagonalization with overlap
     ethr =  8.64E-06,  avg # of iterations =  2.0

     total cpu time spent up to now is        6.1 secs

     total energy              =    -501.44268558 Ry
     estimated scf accuracy    <       0.00345032 Ry

     iteration # 10     ecut=    30.00 Ry     beta= 0.50
     Davidson diagonalization with overlap
     c_bands:  1 eigenvalues not converged
     ethr =  1.35E-06,  avg # of iterations = 20.0

     total cpu time spent up to now is        6.3 secs

     total energy              =    -501.44302287 Ry
     estimated scf accuracy    <       0.00364124 Ry

     iteration # 11     ecut=    30.00 Ry     beta= 0.50
     Davidson diagonalization with overlap
     ethr =  1.35E-06,  avg # of iterations = 11.0

     total cpu time spent up to now is        6.5 secs

     total energy              =    -501.44329908 Ry
     estimated scf accuracy    <       0.00029463 Ry

     iteration # 12     ecut=    30.00 Ry     beta= 0.50
     Davidson diagonalization with overlap
     ethr =  1.15E-07,  avg # of iterations =  4.0

     total cpu time spent up to now is        6.6 secs

     total energy              =    -501.44333083 Ry
     estimated scf accuracy    <       0.00042154 Ry

     iteration # 13     ecut=    30.00 Ry     beta= 0.50
     Davidson diagonalization with overlap
     ethr =  1.15E-07,  avg # of iterations =  3.0

     total cpu time spent up to now is        6.7 secs

     total energy              =    -501.44336696 Ry
     estimated scf accuracy    <       0.00018849 Ry

     iteration # 14     ecut=    30.00 Ry     beta= 0.50
     Davidson diagonalization with overlap
     ethr =  7.36E-08,  avg # of iterations =  2.0

     total cpu time spent up to now is        6.8 secs

     total energy              =    -501.44337897 Ry
     estimated scf accuracy    <       0.00004565 Ry

     iteration # 15     ecut=    30.00 Ry     beta= 0.50
     Davidson diagonalization with overlap
     ethr =  1.78E-08,  avg # of iterations =  2.0

     total cpu time spent up to now is        6.9 secs

     total energy              =    -501.44338365 Ry
     estimated scf accuracy    <       0.00002329 Ry

     iteration # 16     ecut=    30.00 Ry     beta= 0.50
     Davidson diagonalization with overlap
     ethr =  9.10E-09,  avg # of iterations =  2.0

     total cpu time spent up to now is        7.0 secs

     total energy              =    -501.44338552 Ry
     estimated scf accuracy    <       0.00000872 Ry

     iteration # 17     ecut=    30.00 Ry     beta= 0.50
     Davidson diagonalization with overlap
     ethr =  3.41E-09,  avg # of iterations =  2.0

     total cpu time spent up to now is        7.1 secs

     total energy              =    -501.44338624 Ry
     estimated scf accuracy    <       0.00000219 Ry

     iteration # 18     ecut=    30.00 Ry     beta= 0.50
     Davidson diagonalization with overlap
     ethr =  8.56E-10,  avg # of iterations =  3.0

     total cpu time spent up to now is        7.2 secs

     total energy              =    -501.44338638 Ry
     estimated scf accuracy    <       0.00000365 Ry

     iteration # 19     ecut=    30.00 Ry     beta= 0.50
     Davidson diagonalization with overlap
     ethr =  8.56E-10,  avg # of iterations =  2.0

     total cpu time spent up to now is        7.3 secs

     End of self-consistent calculation

          k = 0.0000 0.0000 0.0000 ( 11564 PWs)   bands (ev):

    -5.5667  -4.7291  -4.5260  -4.4467  -4.3177  -4.1994  -4.0871  -3.6475
    -3.5728  -3.4919  -3.2983  -3.2571  -3.2108  -3.1457  -3.1086  -3.0438
    -2.9147  -2.7106  -2.5721  -2.4087  -2.3006  -2.1879  -2.0981  -2.0170
    -1.7917  -1.6706  -1.4592  -1.2460  -1.0606  -0.9759  -0.8711  -0.6527
    -0.6027  -0.5056  -0.3905  -0.2765  -0.2086  -0.0868  -0.0320  -0.0025
     0.1208   0.1688   0.3425   0.4094   0.4660   0.5121   0.5659   0.6461
     0.7135   0.8423   0.9183   0.9662   1.1168   1.2833   1.2976   1.3875
     1.4724   1.6086   1.7327   1.7978   1.8492   1.8852   2.0148   2.1714
     2.2939   2.3149   2.3696   2.5475   2.5787   2.6488   2.7758   2.8129
     2.9025   3.0003   3.0308   3.1598   3.2094   3.2889   3.3596   3.4955
     3.6325   3.8345   3.9241   4.0464   4.1151   4.1638   4.3638   4.4097
     4.4563   4.5433   4.6002   4.6738   4.7173   4.7945   4.8194   4.9335
     5.0130   5.0633   5.1236   5.1641   5.2044   5.2621   5.2890   5.3742
     5.4456   5.4790   5.5068   5.5744   5.6541   5.6855   5.7318   5.7887
     5.8542   5.9324   5.9950   6.0359   6.0679   6.1683   6.2002   6.2431
     6.3667   6.3765   6.4550   6.4961   6.6519   6.6918   6.7484   6.7713
     6.8103   6.8622   6.9205   7.0189   7.0477   7.0864   7.1312   7.2459
     7.3437   7.3990   7.4170   7.5455   7.6456   7.6753   7.7033   7.7387
     7.8590   7.8822   7.8843   8.0297   8.0715   8.1040   8.1620   8.2317
     8.2824   8.4365

     the Fermi energy is     6.7987 ev

!    total energy              =    -501.44338623 Ry
     estimated scf accuracy    <       0.00000051 Ry
     smearing contrib. (-TS)   =      -0.15360491 Ry
     internal energy E=F+TS    =    -501.28978132 Ry

     The total energy is F=E-TS. E is the sum of the following terms:
     one-electron contribution =     172.55208010 Ry
     hartree contribution      =      29.00974848 Ry
     xc contribution           =    -150.31847538 Ry
     ewald contribution        =    -552.53313452 Ry

     convergence has been achieved in  19 iterations

     Forces acting on atoms (cartesian axes, Ry/au):

     atom    1 type  1   force =     0.01812802   -0.00965368    0.00658783
     atom    2 type  1   force =     0.04393061    0.00149989   -0.01039704
     atom    3 type  1   force =    -0.01598464    0.01657146   -0.00317960
     atom    4 type  1   force =    -0.04611493    0.04048208   -0.01027572
     atom    5 type  1   force =     0.02651790    0.02340541    0.00326038
     atom    6 type  1   force =    -0.00098503    0.01407419   -0.01679746
     atom    7 type  1   force =     0.03017461   -0.04728670   -0.03745458
     atom    8 type  1   force =     0.03441569   -0.02423398    0.05975802
     atom    9 type  1   force =    -0.02190332   -0.07478260   -0.00455072
     atom   10 type  1   force =    -0.02637351   -0.01423183   -0.01310488
     atom   11 type  1   force =     0.02881499    0.04774262    0.00622860
     atom   12 type  1   force =     0.01980674   -0.03837862   -0.02850043
     atom   13 type  1   force =    -0.01773312    0.00801210    0.03355164
     atom   14 type  1   force =     0.04389590    0.05575625   -0.00724155
     atom   15 type  1   force =     0.01955870   -0.00646790   -0.00518336
     atom   16 type  1   force =     0.01216958   -0.00682441   -0.00937641
     atom   17 type  1   force =    -0.06661070    0.05987295    0.04682757
     atom   18 type  1   force =    -0.00287161   -0.00753365   -0.02244713
     atom   19 type  1   force =     0.02516353    0.00345715    0.02567280
     atom   20 type  1   force =    -0.00665273    0.01246361    0.01244154
     atom   21 type  1   force =    -0.01662928    0.02163790   -0.00243057
     atom   22 type  1   force =     0.00525275    0.03180144   -0.00306419
     atom   23 type  1   force =     0.02298427    0.01390191   -0.01835400
     atom   24 type  1   force =     0.00704424    0.00401769   -0.02339830
     atom   25 type  1   force =     0.01786333    0.04500795   -0.07826247
     atom   26 type  1   force =    -0.01179704    0.00907414   -0.01684884
     atom   27 type  1   force =     0.00544743    0.00441014    0.00900699
     atom   28 type  1   force =     0.00853578   -0.01823329    0.03032855
     atom   29 type  1   force =     0.00055096   -0.03657291    0.02215053
     atom   30 type  1   force =    -0.02691970   -0.03921278   -0.01238199
     atom   31 type  1   force =    -0.01304775    0.01010699    0.04131403
     atom   32 type  1   force =    -0.04042020    0.01345009    0.02085069
     atom   33 type  1   force =     0.01901793    0.00442997   -0.00218651
     atom   34 type  1   force =     0.01009208   -0.00537048   -0.01084859
     atom   35 type  1   force =    -0.00597470   -0.02835872    0.04463300
     atom   36 type  1   force =    -0.01084377   -0.02110836    0.01412941
     atom   37 type  1   force =    -0.02193938    0.00476397    0.00637458
     atom   38 type  1   force =     0.04031715   -0.00621265   -0.01844778
     atom   39 type  1   force =    -0.03155603    0.02781408   -0.02180274
     atom   40 type  1   force =    -0.02996478    0.00373993    0.00792274
     atom   41 type  1   force =    -0.02156536    0.03812812    0.00977105
     atom   42 type  1   force =    -0.02105408    0.01527371    0.07543605
     atom   43 type  1   force =     0.00777184   -0.03067950   -0.03879752
     atom   44 type  1   force =     0.00886722   -0.02044489   -0.02035111
     atom   45 type  1   force =     0.01203629   -0.02880771    0.00790942
     atom   46 type  1   force =    -0.03426762   -0.00873458    0.00454318
     atom   47 type  1   force =     0.00991260   -0.02568302    0.01715070
     atom   48 type  1   force =    -0.01212902    0.02136071   -0.05224666
     atom   49 type  1   force =     0.00706991    0.00388779   -0.00860752
     atom   50 type  1   force =     0.01267570   -0.00101755    0.00006250
     atom   51 type  1   force =     0.01895750   -0.00173928   -0.03775738
     atom   52 type  1   force =    -0.00501839   -0.03860923    0.01862969
     atom   53 type  1   force =     0.02129226   -0.00452508   -0.03438488
     atom   54 type  1   force =     0.00169450   -0.01710235    0.03176951
     atom   55 type  1   force =    -0.00326623    0.02128673   -0.03182783
     atom   56 type  1   force =    -0.05550756   -0.00737889    0.03898584
     atom   57 type  1   force =     0.00946747    0.00212644   -0.02701812
     atom   58 type  1   force =    -0.01747054   -0.00732223   -0.00297843
     atom   59 type  1   force =    -0.03529350    0.07061920    0.03148160
     atom   60 type  1   force =    -0.01170254   -0.00897844   -0.01302950
     atom   61 type  1   force =     0.04480566    0.00988358   -0.03147400
     atom   62 type  1   force =     0.03061580   -0.03911957   -0.00327703
     atom   63 type  1   force =    -0.01390571   -0.02170597    0.03401500
     atom   64 type  1   force =     0.02065384   -0.01374934    0.01749143

     Total force =     0.363784     Total SCF correction =     0.001423


     Computing stress (Cartesian axis) and pressure

          total   stress  (Ry/bohr**3)                   (kbar)     P=      -36.27
  -0.00019864   0.00008476  -0.00002761          -29.22       12.47       -4.06
   0.00008476  -0.00038315  -0.00005835           12.47      -56.36       -8.58
  -0.00002761  -0.00005835  -0.00015785           -4.06       -8.58      -23.22

 
     init_run     :      1.11s CPU      4.96s WALL (       1 calls)
     electrons    :      2.07s CPU      2.22s WALL (       1 calls)
     forces       :      0.04s CPU      0.04s WALL (       1 calls)
     stress       :      0.16s CPU      0.16s WALL (       1 calls)

     Called by init_run:
     wfcinit      :      0.56s CPU      4.24s WALL (       1 calls)
                                        4.24s GPU  (       1 calls)
     potinit      :      0.05s CPU      0.15s WALL (       1 calls)
     hinit0       :      0.47s CPU      0.50s WALL (       1 calls)

     Called by electrons:
     c_bands      :      1.22s CPU      1.29s WALL (      20 calls)
     sum_band     :      0.41s CPU      0.45s WALL (      20 calls)
     v_of_rho     :      0.20s CPU      0.30s WALL (      20 calls)
     mix_rho      :      0.20s CPU      0.21s WALL (      20 calls)

     Called by c_bands:
     init_us_2    :      0.07s CPU      0.08s WALL (      41 calls)
     init_us_2:gp :      0.07s CPU      0.08s WALL (      41 calls)
     regterg      :      1.05s CPU      1.12s WALL (      20 calls)

     Called by *egterg:
     rdiaghg      :      0.44s CPU      1.21s WALL (      97 calls)
                                        1.19s GPU  (      97 calls)
     h_psi        :      0.98s CPU      3.94s WALL (      99 calls)
                                        3.94s GPU  (      99 calls)
     g_psi        :      0.00s CPU      0.00s WALL (      78 calls)
                                        0.00s GPU  (      78 calls)

     Called by h_psi:
     h_psi:calbec :      0.53s CPU      3.41s WALL (      99 calls)
                                        3.40s GPU  (      99 calls)
     vloc_psi     :      0.39s CPU      0.47s WALL (      99 calls)
                                        0.47s GPU  (      99 calls)
     add_vuspsi   :      0.04s CPU      0.06s WALL (      99 calls)
                                        0.06s GPU  (      99 calls)

     General routines
     calbec       :      0.53s CPU      3.41s WALL (     104 calls)
     fft          :      0.64s CPU      0.77s WALL (     167 calls)
                                        0.14s GPU  (     106 calls)
     ffts         :      0.05s CPU      0.06s WALL (      20 calls)
     fftw         :      0.48s CPU      0.64s WALL (    2120 calls)
                                        0.55s GPU  (    2120 calls)
 
     Parallel routines
 
     PWSCF        :      3.41s CPU      7.47s WALL

 
   This run was terminated on:  10:56:23  10May2023            

=------------------------------------------------------------------------------=
   JOB DONE.
=------------------------------------------------------------------------------=
