An instance of this daemon is already running
An instance of this daemon is already running

     Program PWSCF v.7.1 starts on 10May2023 at 11: 9:13 

     This program is part of the open-source Quantum ESPRESSO suite
     for quantum simulation of materials; please cite
         "P. Giannozzi et al., J. Phys.:Condens. Matter 21 395502 (2009);
         "P. Giannozzi et al., J. Phys.:Condens. Matter 29 465901 (2017);
         "P. Giannozzi et al., J. Chem. Phys. 152 154105 (2020);
          URL http://www.quantum-espresso.org", 
     in publications or presentations arising from this work. More details at
     http://www.quantum-espresso.org/quote

     Parallel version (MPI & OpenMP), running on       4 processor cores
     Number of MPI processes:                 4
     Threads/MPI process:                     1

     MPI processes distributed on     1 nodes
     753556 MiB available memory on the printing compute node when the environment starts
 
     Reading input from pw-si-94.in
Warning: card &CELL ignored
Warning: card / ignored

     Current dimensions of program PWSCF are:
     Max number of different atomic species (ntypx) = 10
     Max number of k-points (npk) =  40000
     Max angular momentum in pseudopotentials (lmaxx) =  4

     IMPORTANT: XC functional enforced from input :
     Exchange-correlation= PBE
                           (   1   4   3   4   0   0   0)
     Any further DFT definition will be discarded
     Please, verify this is what you really want


     gamma-point specific algorithms are used
 
     K-points division:     npool     =       2
     R & G space division:  proc/nbgrp/npool/nimage =       2
     Subspace diagonalization in iterative solution of the eigenvalue problem:
     a serial algorithm will be used

     Message from routine divide_et_impera:
     suboptimal parallelization: some nodes have no k-points
 
     Parallelization info
     --------------------
     sticks:   dense  smooth     PW     G-vecs:    dense   smooth      PW
     Min        2012    2012    533                96083    96083   13000
     Max        2013    2013    536                96084    96084   13001
     Sum        4025    4025   1069               192167   192167   26001
 
     Using Slab Decomposition
 


     bravais-lattice index     =            0
     lattice parameter (alat)  =      20.5377  a.u.
     unit-cell volume          =    8662.7563 (a.u.)^3
     number of atoms/cell      =           64
     number of atomic types    =            1
     number of electrons       =       256.00
     number of Kohn-Sham states=          154
     kinetic-energy cutoff     =      30.0000  Ry
     charge density cutoff     =     120.0000  Ry
     scf convergence threshold =      1.0E-06
     mixing beta               =       0.5000
     number of iterations used =            8  plain     mixing
     Exchange-correlation= PBE
                           (   1   4   3   4   0   0   0)

     GPU acceleration is ACTIVE.
     GPU-aware MPI enabled

     Message from routine print_cuda_info:
     High GPU oversubscription detected. Are you sure this is what you want?

     celldm(1)=  20.537711  celldm(2)=   0.000000  celldm(3)=   0.000000
     celldm(4)=   0.000000  celldm(5)=   0.000000  celldm(6)=   0.000000

     crystal axes: (cart. coord. in units of alat)
               a(1) = (   1.000000   0.000000   0.000000 )  
               a(2) = (   0.000000   1.000000   0.000000 )  
               a(3) = (   0.000000   0.000000   1.000000 )  

     reciprocal axes: (cart. coord. in units 2 pi/alat)
               b(1) = (  1.000000  0.000000  0.000000 )  
               b(2) = (  0.000000  1.000000  0.000000 )  
               b(3) = (  0.000000  0.000000  1.000000 )  


     PseudoPot. # 1 for Si read from file:
     /home/ppiaggi/pseudos/Si_ONCV_PBE_sr.upf
     MD5 check sum: 8553c464762ac42b85b1eed164b4d029
     Pseudo is Norm-conserving, Zval =  4.0
     Generated using ONCVPSP code by D. R. Hamann
     Using radial grid of 1510 points,  4 beta functions with: 
                l(1) =   0
                l(2) =   0
                l(3) =   1
                l(4) =   1

     atomic species   valence    mass     pseudopotential
        Si             4.00    28.08500     Si( 1.00)

     No symmetry found



   Cartesian axes

     site n.     atom                  positions (alat units)
         1           Si  tau(   1) = (   0.0988239   0.0515709   0.0869289  )
         2           Si  tau(   2) = (   0.1394070   0.8223070   0.5875680  )
         3           Si  tau(   3) = (   0.5598070   0.9987840   0.3630170  )
         4           Si  tau(   4) = (   0.4218430   0.2086370   0.2049930  )
         5           Si  tau(   5) = (   0.0568814   0.7082930   0.9190440  )
         6           Si  tau(   6) = (   0.6459720   0.1635490   0.5194090  )
         7           Si  tau(   7) = (   0.4990360   0.9113310   0.5850610  )
         8           Si  tau(   8) = (   0.2970740   0.8035360   0.1333430  )
         9           Si  tau(   9) = (   0.8079140   0.3254030   0.0297814  )
        10           Si  tau(  10) = (   0.5123120   0.2731080   0.8531650  )
        11           Si  tau(  11) = (   0.1028430   0.8720750   0.2273610  )
        12           Si  tau(  12) = (   0.9169200   0.2165450   0.5730480  )
        13           Si  tau(  13) = (   0.9445640   0.9835810   0.9616880  )
        14           Si  tau(  14) = (   0.0714213   0.2724680   0.4257720  )
        15           Si  tau(  15) = (   0.4794300   0.5268730   0.6017890  )
        16           Si  tau(  16) = (   0.4043780   0.6317800   0.8196050  )
        17           Si  tau(  17) = (   0.3079480   0.8985240   0.7028180  )
        18           Si  tau(  18) = (   0.6478310   0.6450520   0.8563200  )
        19           Si  tau(  19) = (   0.6934310   0.7837820   0.0985947  )
        20           Si  tau(  20) = (   0.0624227   0.6451380   0.3088230  )
        21           Si  tau(  21) = (   0.8452700   0.0010725   0.4407640  )
        22           Si  tau(  22) = (   0.6177530   0.5661690   0.1621410  )
        23           Si  tau(  23) = (   0.0848837   0.6263390   0.5391570  )
        24           Si  tau(  24) = (   0.0958759   0.4364410   0.0675979  )
        25           Si  tau(  25) = (   0.0064567   0.8339140   0.7377100  )
        26           Si  tau(  26) = (   0.5030330   0.9300850   0.0593925  )
        27           Si  tau(  27) = (   0.2669660   0.7747990   0.8831810  )
        28           Si  tau(  28) = (   0.8239480   0.5364220   0.9681070  )
        29           Si  tau(  29) = (   0.9263170   0.7966460   0.0949082  )
        30           Si  tau(  30) = (   0.2622700   0.5065590   0.6419770  )
        31           Si  tau(  31) = (   0.0005649   0.4919600   0.8567320  )
        32           Si  tau(  32) = (   0.5483600   0.8755780   0.8406440  )
        33           Si  tau(  33) = (   0.1871780   0.0867095   0.4152520  )
        34           Si  tau(  34) = (   0.7645720   0.0433604   0.1193830  )
        35           Si  tau(  35) = (   0.9781500   0.2682120   0.7863580  )
        36           Si  tau(  36) = (   0.2800490   0.5563270   0.2098130  )
        37           Si  tau(  37) = (   0.8963710   0.5742840   0.1776120  )
        38           Si  tau(  38) = (   0.3254880   0.3354380   0.0221536  )
        39           Si  tau(  39) = (   0.8374970   0.4246220   0.6131710  )
        40           Si  tau(  40) = (   0.7158850   0.8536580   0.3154830  )
        41           Si  tau(  41) = (   0.4082860   0.3320990   0.3998520  )
        42           Si  tau(  42) = (   0.6049720   0.7132800   0.4801130  )
        43           Si  tau(  43) = (   0.0100873   0.2459190   0.1687560  )
        44           Si  tau(  44) = (   0.1055480   0.0346017   0.8055570  )
        45           Si  tau(  45) = (   0.6344400   0.0566643   0.7438910  )
        46           Si  tau(  46) = (   0.7840550   0.1668000   0.2959380  )
        47           Si  tau(  47) = (   0.2101930   0.3591300   0.8062020  )
        48           Si  tau(  48) = (   0.6533040   0.3434170   0.2191680  )
        49           Si  tau(  49) = (   0.5772980   0.1541820   0.0505770  )
        50           Si  tau(  50) = (   0.2896790   0.1137050   0.9888800  )
        51           Si  tau(  51) = (   0.3702280   0.1285560   0.5408170  )
        52           Si  tau(  52) = (   0.3251480   0.0171076   0.2606450  )
        53           Si  tau(  53) = (   0.9036040   0.6160990   0.6847500  )
        54           Si  tau(  54) = (   0.4706700   0.5480210   0.3506820  )
        55           Si  tau(  55) = (   0.8501370   0.9829160   0.6684270  )
        56           Si  tau(  56) = (   0.6625970   0.3923820   0.4621930  )
        57           Si  tau(  57) = (   0.3072940   0.1494530   0.7583730  )
        58           Si  tau(  58) = (   0.0516745   0.9201030   0.4298330  )
        59           Si  tau(  59) = (   0.2066460   0.4232330   0.4053390  )
        60           Si  tau(  60) = (   0.4243300   0.5207280   0.0239984  )
        61           Si  tau(  61) = (   0.7387060   0.7609390   0.6805260  )
        62           Si  tau(  62) = (   0.8030940   0.1733610   0.8613550  )
        63           Si  tau(  63) = (   0.6340400   0.4511990   0.7478660  )
        64           Si  tau(  64) = (   0.7690530   0.5940890   0.3744880  )

     number of k points=     1  Fermi-Dirac smearing, width (Ry)=  0.0100
                       cart. coord. in units 2pi/alat
        k(    1) = (   0.0000000   0.0000000   0.0000000), wk =   2.0000000

     Dense  grid:    96084 G-vectors     FFT dimensions: (  72,  72,  72)

     Estimated max dynamical RAM per process >     153.36 MB

     Estimated total dynamical RAM >     589.99 MB

     Initial potential from superposition of free atoms

     starting charge     255.9608, renormalised to     256.0000
     Starting wfcs are  256 randomized atomic wfcs

     total cpu time spent up to now is        5.0 secs

     Self-consistent Calculation

     iteration #  1     ecut=    30.00 Ry     beta= 0.50
     Davidson diagonalization with overlap
     ethr =  1.00E-02,  avg # of iterations =  3.0

     Threshold (ethr) on eigenvalues was too large:
     Diagonalizing with lowered threshold

     Davidson diagonalization with overlap
     ethr =  4.46E-04,  avg # of iterations =  4.0

     total cpu time spent up to now is        5.3 secs

     total energy              =    -501.24700244 Ry
     estimated scf accuracy    <       1.37285034 Ry

     iteration #  2     ecut=    30.00 Ry     beta= 0.50
     Davidson diagonalization with overlap
     ethr =  5.36E-04,  avg # of iterations =  5.0

     total cpu time spent up to now is        5.4 secs

     total energy              =    -500.67835160 Ry
     estimated scf accuracy    <       6.72477308 Ry

     iteration #  3     ecut=    30.00 Ry     beta= 0.50
     Davidson diagonalization with overlap
     ethr =  5.36E-04,  avg # of iterations =  4.0

     total cpu time spent up to now is        5.5 secs

     total energy              =    -501.33261396 Ry
     estimated scf accuracy    <       2.15290201 Ry

     iteration #  4     ecut=    30.00 Ry     beta= 0.50
     Davidson diagonalization with overlap
     ethr =  5.36E-04,  avg # of iterations =  2.0

     total cpu time spent up to now is        5.6 secs

     total energy              =    -501.46364262 Ry
     estimated scf accuracy    <       0.71052150 Ry

     iteration #  5     ecut=    30.00 Ry     beta= 0.50
     Davidson diagonalization with overlap
     ethr =  2.78E-04,  avg # of iterations =  2.0

     total cpu time spent up to now is        5.7 secs

     total energy              =    -501.49486026 Ry
     estimated scf accuracy    <       0.61791302 Ry

     iteration #  6     ecut=    30.00 Ry     beta= 0.50
     Davidson diagonalization with overlap
     ethr =  2.41E-04,  avg # of iterations =  2.0

     total cpu time spent up to now is        5.8 secs

     total energy              =    -501.54900816 Ry
     estimated scf accuracy    <       0.07383487 Ry

     iteration #  7     ecut=    30.00 Ry     beta= 0.50
     Davidson diagonalization with overlap
     ethr =  2.88E-05,  avg # of iterations =  3.0

     total cpu time spent up to now is        5.9 secs

     total energy              =    -501.55723727 Ry
     estimated scf accuracy    <       0.03951578 Ry

     iteration #  8     ecut=    30.00 Ry     beta= 0.50
     Davidson diagonalization with overlap
     ethr =  1.54E-05,  avg # of iterations = 17.0

     total cpu time spent up to now is        6.1 secs

     total energy              =    -501.56141089 Ry
     estimated scf accuracy    <       0.01517183 Ry

     iteration #  9     ecut=    30.00 Ry     beta= 0.50
     Davidson diagonalization with overlap
     ethr =  5.93E-06,  avg # of iterations =  3.0

     total cpu time spent up to now is        6.2 secs

     total energy              =    -501.56267264 Ry
     estimated scf accuracy    <       0.00182365 Ry

     iteration # 10     ecut=    30.00 Ry     beta= 0.50
     Davidson diagonalization with overlap
     ethr =  7.12E-07,  avg # of iterations =  9.0

     total cpu time spent up to now is        6.4 secs

     total energy              =    -501.56281349 Ry
     estimated scf accuracy    <       0.00270226 Ry

     iteration # 11     ecut=    30.00 Ry     beta= 0.50
     Davidson diagonalization with overlap
     ethr =  7.12E-07,  avg # of iterations =  2.0

     total cpu time spent up to now is        6.4 secs

     total energy              =    -501.56304115 Ry
     estimated scf accuracy    <       0.00063202 Ry

     iteration # 12     ecut=    30.00 Ry     beta= 0.50
     Davidson diagonalization with overlap
     ethr =  2.47E-07,  avg # of iterations =  2.0

     total cpu time spent up to now is        6.5 secs

     total energy              =    -501.56311049 Ry
     estimated scf accuracy    <       0.00014592 Ry

     iteration # 13     ecut=    30.00 Ry     beta= 0.50
     Davidson diagonalization with overlap
     ethr =  5.70E-08,  avg # of iterations =  4.0

     total cpu time spent up to now is        6.7 secs

     total energy              =    -501.56312222 Ry
     estimated scf accuracy    <       0.00014006 Ry

     iteration # 14     ecut=    30.00 Ry     beta= 0.50
     Davidson diagonalization with overlap
     ethr =  5.47E-08,  avg # of iterations =  2.0

     total cpu time spent up to now is        6.8 secs

     total energy              =    -501.56313010 Ry
     estimated scf accuracy    <       0.00002518 Ry

     iteration # 15     ecut=    30.00 Ry     beta= 0.50
     Davidson diagonalization with overlap
     ethr =  9.84E-09,  avg # of iterations =  4.0

     total cpu time spent up to now is        6.9 secs

     total energy              =    -501.56313267 Ry
     estimated scf accuracy    <       0.00004974 Ry

     iteration # 16     ecut=    30.00 Ry     beta= 0.50
     Davidson diagonalization with overlap
     ethr =  9.84E-09,  avg # of iterations =  2.0

     total cpu time spent up to now is        7.0 secs

     total energy              =    -501.56313624 Ry
     estimated scf accuracy    <       0.00000454 Ry

     iteration # 17     ecut=    30.00 Ry     beta= 0.50
     Davidson diagonalization with overlap
     ethr =  1.77E-09,  avg # of iterations =  4.0

     total cpu time spent up to now is        7.1 secs

     total energy              =    -501.56313649 Ry
     estimated scf accuracy    <       0.00000307 Ry

     iteration # 18     ecut=    30.00 Ry     beta= 0.50
     Davidson diagonalization with overlap
     ethr =  1.20E-09,  avg # of iterations =  3.0

     total cpu time spent up to now is        7.2 secs

     total energy              =    -501.56313677 Ry
     estimated scf accuracy    <       0.00000402 Ry

     iteration # 19     ecut=    30.00 Ry     beta= 0.50
     Davidson diagonalization with overlap
     ethr =  1.20E-09,  avg # of iterations =  2.0

     total cpu time spent up to now is        7.3 secs

     End of self-consistent calculation

          k = 0.0000 0.0000 0.0000 ( 11936 PWs)   bands (ev):

    -5.7715  -4.9875  -4.8484  -4.6537  -4.6015  -4.5576  -4.3695  -3.9923
    -3.9287  -3.7704  -3.6491  -3.5985  -3.5068  -3.4624  -3.3753  -3.2431
    -3.1634  -3.0421  -2.9219  -2.6422  -2.5584  -2.4939  -2.3853  -2.2852
    -2.1217  -2.0339  -1.7302  -1.5992  -1.5112  -1.2564  -1.2195  -1.0977
    -0.9028  -0.7965  -0.7486  -0.6367  -0.5527  -0.4504  -0.4343  -0.3408
    -0.2733  -0.2209  -0.1580  -0.0606   0.0006   0.1017   0.1918   0.2517
     0.2915   0.4389   0.5462   0.6694   0.8146   0.8460   1.0546   1.0995
     1.1959   1.3128   1.4543   1.5866   1.7174   1.7767   1.8983   1.9514
     2.0158   2.0688   2.1532   2.2242   2.3483   2.3558   2.4101   2.4125
     2.5791   2.6082   2.8153   2.8620   2.9034   3.0011   3.0562   3.1515
     3.2363   3.4451   3.6570   3.7274   3.7869   3.8747   3.9400   3.9830
     4.0286   4.1003   4.2101   4.2273   4.2883   4.3499   4.4959   4.5219
     4.6074   4.6608   4.6739   4.7621   4.8317   4.8450   4.9415   4.9900
     5.0313   5.0864   5.1088   5.1290   5.2562   5.3232   5.3562   5.4007
     5.4609   5.5191   5.5586   5.6401   5.7268   5.7625   5.8497   5.8716
     5.9178   5.9653   6.0977   6.1288   6.1397   6.2141   6.3893   6.4067
     6.4684   6.5410   6.5978   6.6097   6.7032   6.8089   6.8326   6.8669
     6.9504   6.9671   7.0451   7.1527   7.2881   7.3306   7.4040   7.4671
     7.5169   7.5781   7.6462   7.7041   7.8015   7.8525   7.8906   7.9326
     7.9602   8.0567

     the Fermi energy is     6.4264 ev

!    total energy              =    -501.56313646 Ry
     estimated scf accuracy    <       0.00000075 Ry
     smearing contrib. (-TS)   =      -0.13865180 Ry
     internal energy E=F+TS    =    -501.42448466 Ry

     The total energy is F=E-TS. E is the sum of the following terms:
     one-electron contribution =     157.99888781 Ry
     hartree contribution      =      32.80798262 Ry
     xc contribution           =    -149.97852650 Ry
     ewald contribution        =    -542.25282858 Ry

     convergence has been achieved in  19 iterations

     Forces acting on atoms (cartesian axes, Ry/au):

     atom    1 type  1   force =     0.01872063    0.03475312    0.02189709
     atom    2 type  1   force =     0.07121880   -0.00599284   -0.01701947
     atom    3 type  1   force =    -0.02992141    0.02982662    0.01793747
     atom    4 type  1   force =     0.01777878    0.02330819   -0.00723150
     atom    5 type  1   force =    -0.01000696   -0.00587492   -0.00028590
     atom    6 type  1   force =    -0.01557831   -0.01007665   -0.00626634
     atom    7 type  1   force =    -0.01055403    0.01744436   -0.00332105
     atom    8 type  1   force =     0.01199786   -0.00058948   -0.00905597
     atom    9 type  1   force =    -0.00756237   -0.03436587    0.03044013
     atom   10 type  1   force =    -0.01454134   -0.01574567    0.01723397
     atom   11 type  1   force =    -0.00811153   -0.01147999   -0.02717840
     atom   12 type  1   force =     0.00313510    0.00283159    0.00208421
     atom   13 type  1   force =    -0.05807173    0.01093345   -0.01310653
     atom   14 type  1   force =    -0.04102041   -0.06188996   -0.03784855
     atom   15 type  1   force =     0.01196695    0.01792295   -0.00578834
     atom   16 type  1   force =     0.03923083   -0.03433091    0.00570196
     atom   17 type  1   force =     0.01093887    0.02754392    0.00436411
     atom   18 type  1   force =     0.01448442    0.02076244    0.00512997
     atom   19 type  1   force =     0.00368901    0.00357197    0.01796874
     atom   20 type  1   force =     0.03447294    0.00106664   -0.00485294
     atom   21 type  1   force =     0.00602655   -0.01472911    0.01368889
     atom   22 type  1   force =    -0.02150686   -0.02112792    0.01121495
     atom   23 type  1   force =     0.00785818   -0.04601901    0.00792388
     atom   24 type  1   force =     0.00444929   -0.00416131    0.01355213
     atom   25 type  1   force =    -0.05797594    0.01993965    0.07357782
     atom   26 type  1   force =    -0.00741240    0.00080030   -0.02888699
     atom   27 type  1   force =    -0.02168504    0.03994715    0.03983555
     atom   28 type  1   force =    -0.03354108    0.01302339    0.01146357
     atom   29 type  1   force =     0.00523759   -0.02431513   -0.01916018
     atom   30 type  1   force =    -0.01211003   -0.00199499   -0.01950020
     atom   31 type  1   force =     0.02950510   -0.00155478    0.00163661
     atom   32 type  1   force =    -0.01916715   -0.02818941    0.01612412
     atom   33 type  1   force =     0.01982904    0.02110923    0.00860032
     atom   34 type  1   force =    -0.00609072   -0.02162091   -0.01638239
     atom   35 type  1   force =     0.03746625    0.02188397   -0.04086210
     atom   36 type  1   force =    -0.02799344    0.00924627    0.01213561
     atom   37 type  1   force =     0.00489434    0.01531595    0.00167937
     atom   38 type  1   force =    -0.01824336   -0.04145042   -0.01615355
     atom   39 type  1   force =    -0.05226279   -0.01019688    0.00169691
     atom   40 type  1   force =     0.00135262    0.00145247   -0.00015720
     atom   41 type  1   force =     0.01354397   -0.01083062   -0.00073123
     atom   42 type  1   force =    -0.00754111    0.00513850    0.02386590
     atom   43 type  1   force =    -0.01405430    0.00952956    0.01784622
     atom   44 type  1   force =     0.00423467    0.01818555    0.00059165
     atom   45 type  1   force =     0.03769247    0.01695776   -0.03404568
     atom   46 type  1   force =     0.01125085    0.01290298   -0.00094403
     atom   47 type  1   force =    -0.01442823   -0.00895990    0.00996025
     atom   48 type  1   force =     0.00862177    0.00384572    0.00099664
     atom   49 type  1   force =    -0.00440047    0.00076799   -0.00469877
     atom   50 type  1   force =    -0.00720590   -0.00516187   -0.00288394
     atom   51 type  1   force =     0.01805570   -0.00110054    0.01971722
     atom   52 type  1   force =     0.03451904   -0.00387014   -0.00703118
     atom   53 type  1   force =     0.03462172   -0.01595328   -0.02488948
     atom   54 type  1   force =     0.01422267    0.01205760   -0.00757708
     atom   55 type  1   force =    -0.04023734   -0.00967196   -0.01865783
     atom   56 type  1   force =     0.00473363   -0.00707613   -0.00512936
     atom   57 type  1   force =     0.00802244   -0.00678744   -0.00918011
     atom   58 type  1   force =    -0.02777446    0.04182290   -0.03109363
     atom   59 type  1   force =     0.04134232    0.05913334    0.00283717
     atom   60 type  1   force =     0.02555691    0.02922689    0.00499212
     atom   61 type  1   force =    -0.01023286    0.00376883   -0.02420211
     atom   62 type  1   force =    -0.01477481   -0.03646475    0.04904917
     atom   63 type  1   force =     0.00024245   -0.02164176   -0.01878936
     atom   64 type  1   force =     0.00309259   -0.02279668   -0.00283228

     Total force =     0.309493     Total SCF correction =     0.001695


     Computing stress (Cartesian axis) and pressure

          total   stress  (Ry/bohr**3)                   (kbar)     P=      -40.84
  -0.00027169   0.00001230  -0.00003110          -39.97        1.81       -4.58
   0.00001230  -0.00018560   0.00003013            1.81      -27.30        4.43
  -0.00003110   0.00003013  -0.00037552           -4.58        4.43      -55.24

 
     init_run     :      1.08s CPU      4.94s WALL (       1 calls)
     electrons    :      2.09s CPU      2.25s WALL (       1 calls)
     forces       :      0.03s CPU      0.04s WALL (       1 calls)
     stress       :      0.16s CPU      0.16s WALL (       1 calls)

     Called by init_run:
     wfcinit      :      0.55s CPU      4.22s WALL (       1 calls)
                                        4.22s GPU  (       1 calls)
     potinit      :      0.05s CPU      0.14s WALL (       1 calls)
     hinit0       :      0.47s CPU      0.50s WALL (       1 calls)

     Called by electrons:
     c_bands      :      1.25s CPU      1.32s WALL (      20 calls)
     sum_band     :      0.40s CPU      0.45s WALL (      20 calls)
     v_of_rho     :      0.19s CPU      0.30s WALL (      20 calls)
     mix_rho      :      0.20s CPU      0.22s WALL (      20 calls)

     Called by c_bands:
     init_us_2    :      0.07s CPU      0.08s WALL (      41 calls)
     init_us_2:gp :      0.07s CPU      0.07s WALL (      41 calls)
     regterg      :      1.08s CPU      1.15s WALL (      20 calls)

     Called by *egterg:
     rdiaghg      :      0.45s CPU      1.21s WALL (      98 calls)
                                        1.19s GPU  (      98 calls)
     h_psi        :      0.97s CPU      3.93s WALL (     100 calls)
                                        3.93s GPU  (     100 calls)
     g_psi        :      0.00s CPU      0.00s WALL (      79 calls)
                                        0.00s GPU  (      79 calls)

     Called by h_psi:
     h_psi:calbec :      0.51s CPU      3.39s WALL (     100 calls)
                                        3.39s GPU  (     100 calls)
     vloc_psi     :      0.40s CPU      0.47s WALL (     100 calls)
                                        0.47s GPU  (     100 calls)
     add_vuspsi   :      0.04s CPU      0.06s WALL (     100 calls)
                                        0.06s GPU  (     100 calls)

     General routines
     calbec       :      0.52s CPU      3.40s WALL (     105 calls)
     fft          :      0.63s CPU      0.77s WALL (     167 calls)
                                        0.13s GPU  (     106 calls)
     ffts         :      0.05s CPU      0.06s WALL (      20 calls)
     fftw         :      0.48s CPU      0.63s WALL (    2124 calls)
                                        0.55s GPU  (    2124 calls)
 
     Parallel routines
 
     PWSCF        :      3.42s CPU      7.48s WALL

 
   This run was terminated on:  11: 9:21  10May2023            

=------------------------------------------------------------------------------=
   JOB DONE.
=------------------------------------------------------------------------------=
