An instance of this daemon is already running

     Program PWSCF v.7.1 starts on 10May2023 at 11: 4:12 

     This program is part of the open-source Quantum ESPRESSO suite
     for quantum simulation of materials; please cite
         "P. Giannozzi et al., J. Phys.:Condens. Matter 21 395502 (2009);
         "P. Giannozzi et al., J. Phys.:Condens. Matter 29 465901 (2017);
         "P. Giannozzi et al., J. Chem. Phys. 152 154105 (2020);
          URL http://www.quantum-espresso.org", 
     in publications or presentations arising from this work. More details at
     http://www.quantum-espresso.org/quote

     Parallel version (MPI & OpenMP), running on       4 processor cores
     Number of MPI processes:                 4
     Threads/MPI process:                     1

     MPI processes distributed on     1 nodes
     753547 MiB available memory on the printing compute node when the environment starts
 
     Reading input from pw-si-63.in
Warning: card &CELL ignored
Warning: card / ignored

     Current dimensions of program PWSCF are:
     Max number of different atomic species (ntypx) = 10
     Max number of k-points (npk) =  40000
     Max angular momentum in pseudopotentials (lmaxx) =  4

     IMPORTANT: XC functional enforced from input :
     Exchange-correlation= PBE
                           (   1   4   3   4   0   0   0)
     Any further DFT definition will be discarded
     Please, verify this is what you really want


     gamma-point specific algorithms are used
 
     K-points division:     npool     =       2
     R & G space division:  proc/nbgrp/npool/nimage =       2
     Subspace diagonalization in iterative solution of the eigenvalue problem:
     a serial algorithm will be used

     Message from routine divide_et_impera:
     suboptimal parallelization: some nodes have no k-points
 
     Parallelization info
     --------------------
     sticks:   dense  smooth     PW     G-vecs:    dense   smooth      PW
     Min        1929    1929    504                90123    90123   12201
     Max        1932    1932    505                90128    90128   12204
     Sum        3861    3861   1009               180251   180251   24405
 
     Using Slab Decomposition
 


     bravais-lattice index     =            0
     lattice parameter (alat)  =      20.1041  a.u.
     unit-cell volume          =    8125.5672 (a.u.)^3
     number of atoms/cell      =           64
     number of atomic types    =            1
     number of electrons       =       256.00
     number of Kohn-Sham states=          154
     kinetic-energy cutoff     =      30.0000  Ry
     charge density cutoff     =     120.0000  Ry
     scf convergence threshold =      1.0E-06
     mixing beta               =       0.5000
     number of iterations used =            8  plain     mixing
     Exchange-correlation= PBE
                           (   1   4   3   4   0   0   0)

     GPU acceleration is ACTIVE.
     GPU-aware MPI enabled

     Message from routine print_cuda_info:
     High GPU oversubscription detected. Are you sure this is what you want?

     celldm(1)=  20.104097  celldm(2)=   0.000000  celldm(3)=   0.000000
     celldm(4)=   0.000000  celldm(5)=   0.000000  celldm(6)=   0.000000

     crystal axes: (cart. coord. in units of alat)
               a(1) = (   1.000000   0.000000   0.000000 )  
               a(2) = (   0.000000   1.000000   0.000000 )  
               a(3) = (   0.000000   0.000000   1.000000 )  

     reciprocal axes: (cart. coord. in units 2 pi/alat)
               b(1) = (  1.000000  0.000000  0.000000 )  
               b(2) = (  0.000000  1.000000  0.000000 )  
               b(3) = (  0.000000  0.000000  1.000000 )  


     PseudoPot. # 1 for Si read from file:
     /home/ppiaggi/pseudos/Si_ONCV_PBE_sr.upf
     MD5 check sum: 8553c464762ac42b85b1eed164b4d029
     Pseudo is Norm-conserving, Zval =  4.0
     Generated using ONCVPSP code by D. R. Hamann
     Using radial grid of 1510 points,  4 beta functions with: 
                l(1) =   0
                l(2) =   0
                l(3) =   1
                l(4) =   1

     atomic species   valence    mass     pseudopotential
        Si             4.00    28.08500     Si( 1.00)

     No symmetry found



   Cartesian axes

     site n.     atom                  positions (alat units)
         1           Si  tau(   1) = (   0.8583130   0.2885730   0.2993000  )
         2           Si  tau(   2) = (   0.3624600   0.0691820   0.3819150  )
         3           Si  tau(   3) = (   0.0263154   0.5355890   0.6842720  )
         4           Si  tau(   4) = (   0.3723980   0.5014150   0.1430750  )
         5           Si  tau(   5) = (   0.8878210   0.7310660   0.7683830  )
         6           Si  tau(   6) = (   0.6743200   0.9898550   0.6209450  )
         7           Si  tau(   7) = (   0.6025830   0.4171120   0.7706990  )
         8           Si  tau(   8) = (   0.7590100   0.6373380   0.6391290  )
         9           Si  tau(   9) = (   0.8617490   0.0127643   0.9360150  )
        10           Si  tau(  10) = (   0.2132720   0.6490760   0.1932340  )
        11           Si  tau(  11) = (   0.3799630   0.7079050   0.5363370  )
        12           Si  tau(  12) = (   0.0548999   0.6116140   0.9336740  )
        13           Si  tau(  13) = (   0.7558140   0.0708509   0.3848700  )
        14           Si  tau(  14) = (   0.1910100   0.7876130   0.8845290  )
        15           Si  tau(  15) = (   0.9319340   0.0754177   0.1507560  )
        16           Si  tau(  16) = (   0.5436200   0.1574470   0.4888790  )
        17           Si  tau(  17) = (   0.3610030   0.8641850   0.3150210  )
        18           Si  tau(  18) = (   0.6122480   0.4126010   0.4652160  )
        19           Si  tau(  19) = (   0.1366420   0.3290980   0.3070740  )
        20           Si  tau(  20) = (   0.6010240   0.7001810   0.0022314  )
        21           Si  tau(  21) = (   0.1558370   0.8063380   0.4508200  )
        22           Si  tau(  22) = (   0.0851430   0.2176990   0.7642630  )
        23           Si  tau(  23) = (   0.0357908   0.3016340   0.0803953  )
        24           Si  tau(  24) = (   0.4562360   0.8458050   0.7469400  )
        25           Si  tau(  25) = (   0.2452900   0.0688141   0.6116800  )
        26           Si  tau(  26) = (   0.1063780   0.0178481   0.3468700  )
        27           Si  tau(  27) = (   0.5599180   0.3074750   0.2505520  )
        28           Si  tau(  28) = (   0.9003950   0.8526710   0.2388460  )
        29           Si  tau(  29) = (   0.2598160   0.5671700   0.6949370  )
        30           Si  tau(  30) = (   0.8995190   0.1713410   0.5722180  )
        31           Si  tau(  31) = (   0.9739170   0.6480310   0.1376650  )
        32           Si  tau(  32) = (   0.4583360   0.3439500   0.6324250  )
        33           Si  tau(  33) = (   0.1871430   0.0678809   0.1130630  )
        34           Si  tau(  34) = (   0.3005240   0.2324820   0.9597640  )
        35           Si  tau(  35) = (   0.5944920   0.5526430   0.1768160  )
        36           Si  tau(  36) = (   0.8173860   0.4853290   0.1927320  )
        37           Si  tau(  37) = (   0.7190680   0.1304010   0.7955680  )
        38           Si  tau(  38) = (   0.6746390   0.9451600   0.1698300  )
        39           Si  tau(  39) = (   0.4290010   0.5386340   0.3991660  )
        40           Si  tau(  40) = (   0.3267240   0.2467710   0.2066650  )
        41           Si  tau(  41) = (   0.9510350   0.9513650   0.6876320  )
        42           Si  tau(  42) = (   0.9294390   0.8885780   0.4795990  )
        43           Si  tau(  43) = (   0.7999940   0.6472210   0.3911270  )
        44           Si  tau(  44) = (   0.8504440   0.3571940   0.7364110  )
        45           Si  tau(  45) = (   0.5295040   0.3301040   0.9686860  )
        46           Si  tau(  46) = (   0.3683770   0.5147850   0.9073960  )
        47           Si  tau(  47) = (   0.5796750   0.7708990   0.3090550  )
        48           Si  tau(  48) = (   0.2175130   0.8565860   0.6594220  )
        49           Si  tau(  49) = (   0.5035190   0.9130300   0.0076205  )
        50           Si  tau(  50) = (   0.6093250   0.7835270   0.5469160  )
        51           Si  tau(  51) = (   0.8313840   0.4118190   0.5088230  )
        52           Si  tau(  52) = (   0.2432280   0.3802550   0.5822120  )
        53           Si  tau(  53) = (   0.0941542   0.0034640   0.9118410  )
        54           Si  tau(  54) = (   0.5589180   0.1030300   0.9060990  )
        55           Si  tau(  55) = (   0.8175430   0.3503840   0.9785460  )
        56           Si  tau(  56) = (   0.8041460   0.7749210   0.9656500  )
        57           Si  tau(  57) = (   0.4236970   0.1355650   0.7375510  )
        58           Si  tau(  58) = (   0.0255494   0.6217330   0.4982920  )
        59           Si  tau(  59) = (   0.5220820   0.6489250   0.7811180  )
        60           Si  tau(  60) = (   0.0958120   0.1974650   0.4872810  )
        61           Si  tau(  61) = (   0.1539330   0.3805070   0.9148570  )
        62           Si  tau(  62) = (   0.6887080   0.1703750   0.1147360  )
        63           Si  tau(  63) = (   0.1807190   0.5012580   0.3869480  )
        64           Si  tau(  64) = (   0.2815770   0.8689660   0.1033060  )

     number of k points=     1  Fermi-Dirac smearing, width (Ry)=  0.0100
                       cart. coord. in units 2pi/alat
        k(    1) = (   0.0000000   0.0000000   0.0000000), wk =   2.0000000

     Dense  grid:    90126 G-vectors     FFT dimensions: (  72,  72,  72)

     Estimated max dynamical RAM per process >     144.83 MB

     Estimated total dynamical RAM >     557.30 MB

     Initial potential from superposition of free atoms

     starting charge     255.9608, renormalised to     256.0000
     Starting wfcs are  256 randomized atomic wfcs

     total cpu time spent up to now is        5.0 secs

     Self-consistent Calculation

     iteration #  1     ecut=    30.00 Ry     beta= 0.50
     Davidson diagonalization with overlap
     ethr =  1.00E-02,  avg # of iterations =  3.0

     Threshold (ethr) on eigenvalues was too large:
     Diagonalizing with lowered threshold

     Davidson diagonalization with overlap
     ethr =  3.83E-04,  avg # of iterations =  5.0

     total cpu time spent up to now is        5.3 secs

     total energy              =    -501.22234298 Ry
     estimated scf accuracy    <       1.19710483 Ry

     iteration #  2     ecut=    30.00 Ry     beta= 0.50
     Davidson diagonalization with overlap
     ethr =  4.68E-04,  avg # of iterations =  3.0

     total cpu time spent up to now is        5.4 secs

     total energy              =    -500.90262755 Ry
     estimated scf accuracy    <       3.36815317 Ry

     iteration #  3     ecut=    30.00 Ry     beta= 0.50
     Davidson diagonalization with overlap
     ethr =  4.68E-04,  avg # of iterations =  4.0

     total cpu time spent up to now is        5.5 secs

     total energy              =    -501.19423581 Ry
     estimated scf accuracy    <       2.53863160 Ry

     iteration #  4     ecut=    30.00 Ry     beta= 0.50
     Davidson diagonalization with overlap
     ethr =  4.68E-04,  avg # of iterations =  2.0

     total cpu time spent up to now is        5.6 secs

     total energy              =    -501.37608589 Ry
     estimated scf accuracy    <       0.63321632 Ry

     iteration #  5     ecut=    30.00 Ry     beta= 0.50
     Davidson diagonalization with overlap
     ethr =  2.47E-04,  avg # of iterations =  2.0

     total cpu time spent up to now is        5.7 secs

     total energy              =    -501.41047157 Ry
     estimated scf accuracy    <       0.31276397 Ry

     iteration #  6     ecut=    30.00 Ry     beta= 0.50
     Davidson diagonalization with overlap
     ethr =  1.22E-04,  avg # of iterations =  2.0

     total cpu time spent up to now is        5.8 secs

     total energy              =    -501.44403789 Ry
     estimated scf accuracy    <       0.12097255 Ry

     iteration #  7     ecut=    30.00 Ry     beta= 0.50
     Davidson diagonalization with overlap
     ethr =  4.73E-05,  avg # of iterations =  2.0

     total cpu time spent up to now is        5.9 secs

     total energy              =    -501.45280683 Ry
     estimated scf accuracy    <       0.01811554 Ry

     iteration #  8     ecut=    30.00 Ry     beta= 0.50
     Davidson diagonalization with overlap
     ethr =  7.08E-06,  avg # of iterations = 11.0

     total cpu time spent up to now is        6.1 secs

     total energy              =    -501.45494445 Ry
     estimated scf accuracy    <       0.02025119 Ry

     iteration #  9     ecut=    30.00 Ry     beta= 0.50
     Davidson diagonalization with overlap
     ethr =  7.08E-06,  avg # of iterations =  2.0

     total cpu time spent up to now is        6.2 secs

     total energy              =    -501.45657508 Ry
     estimated scf accuracy    <       0.00174773 Ry

     iteration # 10     ecut=    30.00 Ry     beta= 0.50
     Davidson diagonalization with overlap
     ethr =  6.83E-07,  avg # of iterations =  5.0

     total cpu time spent up to now is        6.3 secs

     total energy              =    -501.45675631 Ry
     estimated scf accuracy    <       0.00200596 Ry

     iteration # 11     ecut=    30.00 Ry     beta= 0.50
     Davidson diagonalization with overlap
     ethr =  6.83E-07,  avg # of iterations =  3.0

     total cpu time spent up to now is        6.4 secs

     total energy              =    -501.45692366 Ry
     estimated scf accuracy    <       0.00056518 Ry

     iteration # 12     ecut=    30.00 Ry     beta= 0.50
     Davidson diagonalization with overlap
     ethr =  2.21E-07,  avg # of iterations =  2.0

     total cpu time spent up to now is        6.5 secs

     total energy              =    -501.45696406 Ry
     estimated scf accuracy    <       0.00019025 Ry

     iteration # 13     ecut=    30.00 Ry     beta= 0.50
     Davidson diagonalization with overlap
     ethr =  7.43E-08,  avg # of iterations =  3.0

     total cpu time spent up to now is        6.6 secs

     total energy              =    -501.45697523 Ry
     estimated scf accuracy    <       0.00032080 Ry

     iteration # 14     ecut=    30.00 Ry     beta= 0.50
     Davidson diagonalization with overlap
     ethr =  7.43E-08,  avg # of iterations =  2.0

     total cpu time spent up to now is        6.7 secs

     total energy              =    -501.45699739 Ry
     estimated scf accuracy    <       0.00000990 Ry

     iteration # 15     ecut=    30.00 Ry     beta= 0.50
     Davidson diagonalization with overlap
     ethr =  3.87E-09,  avg # of iterations =  5.0

     total cpu time spent up to now is        6.8 secs

     total energy              =    -501.45699794 Ry
     estimated scf accuracy    <       0.00001848 Ry

     iteration # 16     ecut=    30.00 Ry     beta= 0.50
     Davidson diagonalization with overlap
     ethr =  3.87E-09,  avg # of iterations =  3.0

     total cpu time spent up to now is        6.9 secs

     total energy              =    -501.45699981 Ry
     estimated scf accuracy    <       0.00001264 Ry

     iteration # 17     ecut=    30.00 Ry     beta= 0.50
     Davidson diagonalization with overlap
     ethr =  3.87E-09,  avg # of iterations =  2.0

     total cpu time spent up to now is        7.0 secs

     total energy              =    -501.45700028 Ry
     estimated scf accuracy    <       0.00000243 Ry

     iteration # 18     ecut=    30.00 Ry     beta= 0.50
     Davidson diagonalization with overlap
     ethr =  9.47E-10,  avg # of iterations =  4.0

     total cpu time spent up to now is        7.1 secs

     total energy              =    -501.45700051 Ry
     estimated scf accuracy    <       0.00000376 Ry

     iteration # 19     ecut=    30.00 Ry     beta= 0.50
     Davidson diagonalization with overlap
     ethr =  9.47E-10,  avg # of iterations =  2.0

     total cpu time spent up to now is        7.2 secs

     End of self-consistent calculation

          k = 0.0000 0.0000 0.0000 ( 11324 PWs)   bands (ev):

    -5.3523  -4.4537  -4.2944  -4.2026  -4.0810  -4.0308  -3.9565  -3.4473
    -3.2412  -3.1568  -3.1374  -3.1205  -2.9938  -2.9331  -2.7978  -2.7815
    -2.7344  -2.5843  -2.4526  -2.1199  -2.0439  -1.8748  -1.8421  -1.6638
    -1.5570  -1.5162  -1.4206  -1.0386  -0.7771  -0.6981  -0.5162  -0.4040
    -0.2872  -0.2033  -0.0837   0.0479   0.0803   0.1570   0.2298   0.3794
     0.4719   0.5013   0.5068   0.5940   0.7038   0.7322   0.8074   0.9626
     1.0303   1.1303   1.2025   1.2723   1.4144   1.4265   1.4854   1.7258
     1.8474   1.9049   1.9686   2.0285   2.1142   2.2264   2.3186   2.4618
     2.5061   2.5840   2.7205   2.7404   2.7764   2.8529   2.9341   3.0319
     3.0745   3.2010   3.2623   3.2858   3.4072   3.5513   3.6240   3.7155
     3.8752   4.0787   4.1685   4.3914   4.5083   4.5633   4.5974   4.6794
     4.7689   4.8196   4.8419   4.9806   5.0179   5.1018   5.1104   5.2011
     5.2831   5.3302   5.4114   5.4599   5.5108   5.5972   5.6553   5.6706
     5.7519   5.7851   5.8357   5.8840   5.9009   6.0452   6.1005   6.1833
     6.2185   6.2670   6.3501   6.3873   6.4221   6.5648   6.5861   6.6482
     6.6829   6.7632   6.7938   6.8594   6.9802   7.0597   7.1232   7.1952
     7.2485   7.3015   7.3481   7.3896   7.4641   7.4857   7.5293   7.5951
     7.6428   7.6862   7.7339   7.8126   7.9090   8.0708   8.0824   8.1486
     8.1712   8.1959   8.2795   8.3218   8.5051   8.5427   8.6444   8.6732
     8.7338   8.7942

     the Fermi energy is     7.1914 ev

!    total energy              =    -501.45700053 Ry
     estimated scf accuracy    <       0.00000029 Ry
     smearing contrib. (-TS)   =      -0.14904547 Ry
     internal energy E=F+TS    =    -501.30795506 Ry

     The total energy is F=E-TS. E is the sum of the following terms:
     one-electron contribution =     189.94451947 Ry
     hartree contribution      =      23.39625382 Ry
     xc contribution           =    -151.04040386 Ry
     ewald contribution        =    -563.60832450 Ry

     convergence has been achieved in  19 iterations

     Forces acting on atoms (cartesian axes, Ry/au):

     atom    1 type  1   force =     0.00575938   -0.03354595    0.01259472
     atom    2 type  1   force =    -0.02143513    0.04537043    0.01655274
     atom    3 type  1   force =    -0.00649472   -0.02705857    0.09917187
     atom    4 type  1   force =     0.03252201   -0.02496391   -0.00672969
     atom    5 type  1   force =     0.06421007    0.04125515    0.03044618
     atom    6 type  1   force =    -0.01149649    0.00804259   -0.02690011
     atom    7 type  1   force =     0.05581049    0.04726688    0.02050626
     atom    8 type  1   force =    -0.08057399   -0.04450761   -0.06787038
     atom    9 type  1   force =     0.00931797   -0.02461647    0.00423003
     atom   10 type  1   force =    -0.03107877    0.00813970    0.02736564
     atom   11 type  1   force =    -0.00878320    0.01246327    0.02646654
     atom   12 type  1   force =    -0.00127926   -0.00870045   -0.04359901
     atom   13 type  1   force =    -0.01019590    0.01578399    0.02628484
     atom   14 type  1   force =     0.01141371    0.00738423   -0.00297154
     atom   15 type  1   force =     0.01774432    0.02462572   -0.00773750
     atom   16 type  1   force =     0.02069186   -0.00219015    0.00237853
     atom   17 type  1   force =     0.01630482   -0.04237765    0.00033714
     atom   18 type  1   force =    -0.02389282   -0.01754127   -0.02475648
     atom   19 type  1   force =    -0.04475681   -0.13354752   -0.09437883
     atom   20 type  1   force =    -0.00909421    0.00739452   -0.02897349
     atom   21 type  1   force =     0.01125898    0.01467740   -0.00007733
     atom   22 type  1   force =    -0.00803758   -0.02036283   -0.01658595
     atom   23 type  1   force =    -0.04421802   -0.02858351    0.05312148
     atom   24 type  1   force =    -0.03472339    0.04768143   -0.02161449
     atom   25 type  1   force =     0.01340091    0.01976564    0.00320643
     atom   26 type  1   force =     0.01028616   -0.02747657   -0.01933997
     atom   27 type  1   force =    -0.00466959    0.00855741    0.00519453
     atom   28 type  1   force =    -0.02006677   -0.00060031    0.01380702
     atom   29 type  1   force =    -0.00503329    0.02288897    0.02832365
     atom   30 type  1   force =    -0.01251263   -0.00452821    0.02656729
     atom   31 type  1   force =    -0.01282149    0.01480525    0.00632939
     atom   32 type  1   force =    -0.02248861   -0.05497077   -0.04953293
     atom   33 type  1   force =    -0.03385081    0.01968642    0.00297558
     atom   34 type  1   force =     0.06994600   -0.03369204    0.01412309
     atom   35 type  1   force =    -0.01966749    0.01483421    0.02222424
     atom   36 type  1   force =    -0.00638015    0.01792355   -0.02918308
     atom   37 type  1   force =     0.13397354    0.01497693   -0.06315026
     atom   38 type  1   force =     0.02371556   -0.03043386    0.02712202
     atom   39 type  1   force =     0.00177303    0.00347616   -0.02645767
     atom   40 type  1   force =     0.01768546    0.00616835    0.00940403
     atom   41 type  1   force =     0.01368979   -0.00136712    0.02858685
     atom   42 type  1   force =    -0.00149974   -0.00120049   -0.07123354
     atom   43 type  1   force =     0.02101421   -0.01207002    0.01534931
     atom   44 type  1   force =    -0.00944364   -0.01182759    0.00530507
     atom   45 type  1   force =    -0.02007675   -0.01620740    0.02794633
     atom   46 type  1   force =    -0.01525952   -0.01255459   -0.01713141
     atom   47 type  1   force =    -0.00521595   -0.01597938    0.00067957
     atom   48 type  1   force =     0.00242462   -0.01108301    0.02425199
     atom   49 type  1   force =    -0.01700089   -0.02778725    0.01239275
     atom   50 type  1   force =    -0.00251371    0.00783249    0.00769529
     atom   51 type  1   force =    -0.01196625    0.02938143    0.00019026
     atom   52 type  1   force =    -0.00311184   -0.00099452   -0.02320324
     atom   53 type  1   force =    -0.03725577    0.01606236   -0.01613236
     atom   54 type  1   force =    -0.08967222   -0.00288013    0.10539307
     atom   55 type  1   force =     0.00605652   -0.02257079    0.03679820
     atom   56 type  1   force =     0.02168493    0.03542187    0.03025697
     atom   57 type  1   force =    -0.03126041    0.02270190   -0.02976908
     atom   58 type  1   force =    -0.01894812    0.02864364   -0.08920474
     atom   59 type  1   force =     0.03102945   -0.08775231    0.03372677
     atom   60 type  1   force =     0.02302361   -0.00357399    0.00081027
     atom   61 type  1   force =    -0.00316413    0.06682234   -0.03537659
     atom   62 type  1   force =     0.01329017    0.03381473   -0.02223867
     atom   63 type  1   force =     0.05092199    0.14100482    0.04663225
     atom   64 type  1   force =     0.04099048   -0.01730750   -0.02059985

     Total force =     0.486810     Total SCF correction =     0.001067


     Computing stress (Cartesian axis) and pressure

          total   stress  (Ry/bohr**3)                   (kbar)     P=      -26.50
  -0.00014811   0.00005478  -0.00003456          -21.79        8.06       -5.08
   0.00005478  -0.00019956   0.00012444            8.06      -29.36       18.31
  -0.00003456   0.00012444  -0.00019273           -5.08       18.31      -28.35

 
     init_run     :      1.09s CPU      4.94s WALL (       1 calls)
     electrons    :      2.00s CPU      2.18s WALL (       1 calls)
     forces       :      0.04s CPU      0.04s WALL (       1 calls)
     stress       :      0.15s CPU      0.16s WALL (       1 calls)

     Called by init_run:
     wfcinit      :      0.55s CPU      4.22s WALL (       1 calls)
                                        4.22s GPU  (       1 calls)
     potinit      :      0.05s CPU      0.14s WALL (       1 calls)
     hinit0       :      0.47s CPU      0.50s WALL (       1 calls)

     Called by electrons:
     c_bands      :      1.19s CPU      1.28s WALL (      20 calls)
     sum_band     :      0.39s CPU      0.44s WALL (      20 calls)
     v_of_rho     :      0.20s CPU      0.30s WALL (      20 calls)
     mix_rho      :      0.19s CPU      0.21s WALL (      20 calls)

     Called by c_bands:
     init_us_2    :      0.07s CPU      0.08s WALL (      41 calls)
     init_us_2:gp :      0.07s CPU      0.07s WALL (      41 calls)
     regterg      :      1.02s CPU      1.10s WALL (      20 calls)

     Called by *egterg:
     rdiaghg      :      0.41s CPU      1.18s WALL (      86 calls)
                                        1.16s GPU  (      86 calls)
     h_psi        :      0.97s CPU      3.92s WALL (      88 calls)
                                        3.92s GPU  (      88 calls)
     g_psi        :      0.00s CPU      0.00s WALL (      67 calls)
                                        0.00s GPU  (      67 calls)

     Called by h_psi:
     h_psi:calbec :      0.52s CPU      3.39s WALL (      88 calls)
                                        3.39s GPU  (      88 calls)
     vloc_psi     :      0.39s CPU      0.47s WALL (      88 calls)
                                        0.47s GPU  (      88 calls)
     add_vuspsi   :      0.03s CPU      0.05s WALL (      88 calls)
                                        0.05s GPU  (      88 calls)

     General routines
     calbec       :      0.53s CPU      3.39s WALL (      93 calls)
     fft          :      0.63s CPU      0.77s WALL (     167 calls)
                                        0.14s GPU  (     106 calls)
     ffts         :      0.05s CPU      0.05s WALL (      20 calls)
     fftw         :      0.47s CPU      0.63s WALL (    2100 calls)
                                        0.55s GPU  (    2100 calls)
 
     Parallel routines
 
     PWSCF        :      3.33s CPU      7.40s WALL

 
   This run was terminated on:  11: 4:19  10May2023            

=------------------------------------------------------------------------------=
   JOB DONE.
=------------------------------------------------------------------------------=
