An instance of this daemon is already running

     Program PWSCF v.7.1 starts on 10May2023 at 10:58:32 

     This program is part of the open-source Quantum ESPRESSO suite
     for quantum simulation of materials; please cite
         "P. Giannozzi et al., J. Phys.:Condens. Matter 21 395502 (2009);
         "P. Giannozzi et al., J. Phys.:Condens. Matter 29 465901 (2017);
         "P. Giannozzi et al., J. Chem. Phys. 152 154105 (2020);
          URL http://www.quantum-espresso.org", 
     in publications or presentations arising from this work. More details at
     http://www.quantum-espresso.org/quote

     Parallel version (MPI & OpenMP), running on       4 processor cores
     Number of MPI processes:                 4
     Threads/MPI process:                     1

     MPI processes distributed on     1 nodes
     753558 MiB available memory on the printing compute node when the environment starts
 
     Reading input from pw-si-28.in
Warning: card &CELL ignored
Warning: card / ignored

     Current dimensions of program PWSCF are:
     Max number of different atomic species (ntypx) = 10
     Max number of k-points (npk) =  40000
     Max angular momentum in pseudopotentials (lmaxx) =  4

     IMPORTANT: XC functional enforced from input :
     Exchange-correlation= PBE
                           (   1   4   3   4   0   0   0)
     Any further DFT definition will be discarded
     Please, verify this is what you really want


     gamma-point specific algorithms are used
 
     K-points division:     npool     =       2
     R & G space division:  proc/nbgrp/npool/nimage =       2
     Subspace diagonalization in iterative solution of the eigenvalue problem:
     a serial algorithm will be used

     Message from routine divide_et_impera:
     suboptimal parallelization: some nodes have no k-points
 
     Parallelization info
     --------------------
     sticks:   dense  smooth     PW     G-vecs:    dense   smooth      PW
     Min        1942    1942    516                90833    90833   12416
     Max        1943    1943    517                90834    90834   12421
     Sum        3885    3885   1033               181667   181667   24837
 
     Using Slab Decomposition
 


     bravais-lattice index     =            0
     lattice parameter (alat)  =      20.1566  a.u.
     unit-cell volume          =    8189.4283 (a.u.)^3
     number of atoms/cell      =           64
     number of atomic types    =            1
     number of electrons       =       256.00
     number of Kohn-Sham states=          154
     kinetic-energy cutoff     =      30.0000  Ry
     charge density cutoff     =     120.0000  Ry
     scf convergence threshold =      1.0E-06
     mixing beta               =       0.5000
     number of iterations used =            8  plain     mixing
     Exchange-correlation= PBE
                           (   1   4   3   4   0   0   0)

     GPU acceleration is ACTIVE.
     GPU-aware MPI enabled

     Message from routine print_cuda_info:
     High GPU oversubscription detected. Are you sure this is what you want?

     celldm(1)=  20.156627  celldm(2)=   0.000000  celldm(3)=   0.000000
     celldm(4)=   0.000000  celldm(5)=   0.000000  celldm(6)=   0.000000

     crystal axes: (cart. coord. in units of alat)
               a(1) = (   1.000000   0.000000   0.000000 )  
               a(2) = (   0.000000   1.000000   0.000000 )  
               a(3) = (   0.000000   0.000000   1.000000 )  

     reciprocal axes: (cart. coord. in units 2 pi/alat)
               b(1) = (  1.000000  0.000000  0.000000 )  
               b(2) = (  0.000000  1.000000  0.000000 )  
               b(3) = (  0.000000  0.000000  1.000000 )  


     PseudoPot. # 1 for Si read from file:
     /home/ppiaggi/pseudos/Si_ONCV_PBE_sr.upf
     MD5 check sum: 8553c464762ac42b85b1eed164b4d029
     Pseudo is Norm-conserving, Zval =  4.0
     Generated using ONCVPSP code by D. R. Hamann
     Using radial grid of 1510 points,  4 beta functions with: 
                l(1) =   0
                l(2) =   0
                l(3) =   1
                l(4) =   1

     atomic species   valence    mass     pseudopotential
        Si             4.00    28.08500     Si( 1.00)

     No symmetry found



   Cartesian axes

     site n.     atom                  positions (alat units)
         1           Si  tau(   1) = (   0.7301370   0.0397907   0.4073910  )
         2           Si  tau(   2) = (   0.8714080   0.5063850   0.6019870  )
         3           Si  tau(   3) = (   0.1260800   0.0239734   0.9940940  )
         4           Si  tau(   4) = (   0.0628938   0.8142640   0.6254750  )
         5           Si  tau(   5) = (   0.3266810   0.1684340   0.4939150  )
         6           Si  tau(   6) = (   0.4599830   0.8742180   0.9675340  )
         7           Si  tau(   7) = (   0.6507000   0.8669430   0.6023780  )
         8           Si  tau(   8) = (   0.5836800   0.2075000   0.7278390  )
         9           Si  tau(   9) = (   0.5319240   0.2728440   0.1777920  )
        10           Si  tau(  10) = (   0.9326640   0.2520300   0.8401720  )
        11           Si  tau(  11) = (   0.3672450   0.3957150   0.3930410  )
        12           Si  tau(  12) = (   0.1240000   0.4812010   0.7258970  )
        13           Si  tau(  13) = (   0.6939350   0.5253910   0.3794610  )
        14           Si  tau(  14) = (   0.8860020   0.4014500   0.2962990  )
        15           Si  tau(  15) = (   0.3508650   0.3282680   0.9063310  )
        16           Si  tau(  16) = (   0.1472390   0.2540940   0.7544760  )
        17           Si  tau(  17) = (   0.9295660   0.1464650   0.0642009  )
        18           Si  tau(  18) = (   0.9155390   0.4789950   0.8477910  )
        19           Si  tau(  19) = (   0.6400720   0.6322130   0.1046370  )
        20           Si  tau(  20) = (   0.4921710   0.5042870   0.2093340  )
        21           Si  tau(  21) = (   0.1010780   0.9307010   0.3135420  )
        22           Si  tau(  22) = (   0.0367068   0.6003700   0.9788290  )
        23           Si  tau(  23) = (   0.5192400   0.0468994   0.5798830  )
        24           Si  tau(  24) = (   0.0834306   0.1647160   0.5503730  )
        25           Si  tau(  25) = (   0.8335390   0.8694420   0.7380940  )
        26           Si  tau(  26) = (   0.5713510   0.7505660   0.7915930  )
        27           Si  tau(  27) = (   0.3196300   0.8331470   0.1465450  )
        28           Si  tau(  28) = (   0.9067900   0.0176806   0.5357080  )
        29           Si  tau(  29) = (   0.3149720   0.0463189   0.3055930  )
        30           Si  tau(  30) = (   0.6005260   0.3287810   0.9830560  )
        31           Si  tau(  31) = (   0.8008810   0.4032910   0.0620951  )
        32           Si  tau(  32) = (   0.0453839   0.3637780   0.4776590  )
        33           Si  tau(  33) = (   0.1189420   0.6434190   0.2904080  )
        34           Si  tau(  34) = (   0.4088870   0.3639610   0.6658740  )
        35           Si  tau(  35) = (   0.0946752   0.4576700   0.1871600  )
        36           Si  tau(  36) = (   0.2365220   0.2830900   0.2302650  )
        37           Si  tau(  37) = (   0.6154800   0.5218060   0.6164960  )
        38           Si  tau(  38) = (   0.6328070   0.3060580   0.4894430  )
        39           Si  tau(  39) = (   0.5212700   0.9392350   0.3015540  )
        40           Si  tau(  40) = (   0.3094940   0.4948210   0.0569850  )
        41           Si  tau(  41) = (   0.7099720   0.0954391   0.0391285  )
        42           Si  tau(  42) = (   0.8646220   0.6214570   0.1642600  )
        43           Si  tau(  43) = (   0.2262690   0.9079530   0.5422340  )
        44           Si  tau(  44) = (   0.3773880   0.7391250   0.5367690  )
        45           Si  tau(  45) = (   0.8386330   0.7714170   0.9392680  )
        46           Si  tau(  46) = (   0.3296150   0.1663910   0.0547717  )
        47           Si  tau(  47) = (   0.7406250   0.2301580   0.2637400  )
        48           Si  tau(  48) = (   0.7741530   0.0634706   0.7945550  )
        49           Si  tau(  49) = (   0.2070880   0.5355340   0.5024630  )
        50           Si  tau(  50) = (   0.3681140   0.6783790   0.2968510  )
        51           Si  tau(  51) = (   0.0093882   0.1597450   0.3137050  )
        52           Si  tau(  52) = (   0.0921964   0.8200530   0.1072130  )
        53           Si  tau(  53) = (   0.9720430   0.6786640   0.4636700  )
        54           Si  tau(  54) = (   0.3979060   0.6240850   0.7376030  )
        55           Si  tau(  55) = (   0.8433410   0.2659330   0.6108030  )
        56           Si  tau(  56) = (   0.8719500   0.9101400   0.1171700  )
        57           Si  tau(  57) = (   0.2818190   0.0445684   0.7410300  )
        58           Si  tau(  58) = (   0.6918930   0.5879070   0.8785280  )
        59           Si  tau(  59) = (   0.4706640   0.0698955   0.8870740  )
        60           Si  tau(  60) = (   0.2350340   0.6440420   0.8887480  )
        61           Si  tau(  61) = (   0.6167970   0.7452960   0.4329000  )
        62           Si  tau(  62) = (   0.1561030   0.8698030   0.8293220  )
        63           Si  tau(  63) = (   0.6177870   0.8676100   0.1233530  )
        64           Si  tau(  64) = (   0.8444350   0.8216390   0.3315350  )

     number of k points=     1  Fermi-Dirac smearing, width (Ry)=  0.0100
                       cart. coord. in units 2pi/alat
        k(    1) = (   0.0000000   0.0000000   0.0000000), wk =   2.0000000

     Dense  grid:    90834 G-vectors     FFT dimensions: (  72,  72,  72)

     Estimated max dynamical RAM per process >     145.85 MB

     Estimated total dynamical RAM >     561.24 MB

     Initial potential from superposition of free atoms

     starting charge     255.9608, renormalised to     256.0000
     Starting wfcs are  256 randomized atomic wfcs

     total cpu time spent up to now is        5.0 secs

     Self-consistent Calculation

     iteration #  1     ecut=    30.00 Ry     beta= 0.50
     Davidson diagonalization with overlap
     ethr =  1.00E-02,  avg # of iterations =  3.0

     Threshold (ethr) on eigenvalues was too large:
     Diagonalizing with lowered threshold

     Davidson diagonalization with overlap
     ethr =  3.81E-04,  avg # of iterations =  4.0

     total cpu time spent up to now is        5.3 secs

     total energy              =    -501.29379098 Ry
     estimated scf accuracy    <       1.16042209 Ry

     iteration #  2     ecut=    30.00 Ry     beta= 0.50
     Davidson diagonalization with overlap
     ethr =  4.53E-04,  avg # of iterations =  4.0

     total cpu time spent up to now is        5.4 secs

     total energy              =    -500.83348784 Ry
     estimated scf accuracy    <       5.28007543 Ry

     iteration #  3     ecut=    30.00 Ry     beta= 0.50
     Davidson diagonalization with overlap
     ethr =  4.53E-04,  avg # of iterations =  4.0

     total cpu time spent up to now is        5.5 secs

     total energy              =    -501.31794089 Ry
     estimated scf accuracy    <       2.30008685 Ry

     iteration #  4     ecut=    30.00 Ry     beta= 0.50
     Davidson diagonalization with overlap
     ethr =  4.53E-04,  avg # of iterations =  2.0

     total cpu time spent up to now is        5.6 secs

     total energy              =    -501.45058898 Ry
     estimated scf accuracy    <       0.67457202 Ry

     iteration #  5     ecut=    30.00 Ry     beta= 0.50
     Davidson diagonalization with overlap
     ethr =  2.64E-04,  avg # of iterations =  2.0

     total cpu time spent up to now is        5.7 secs

     total energy              =    -501.48694279 Ry
     estimated scf accuracy    <       0.50099673 Ry

     iteration #  6     ecut=    30.00 Ry     beta= 0.50
     Davidson diagonalization with overlap
     ethr =  1.96E-04,  avg # of iterations =  2.0

     total cpu time spent up to now is        5.8 secs

     total energy              =    -501.53240815 Ry
     estimated scf accuracy    <       0.05872681 Ry

     iteration #  7     ecut=    30.00 Ry     beta= 0.50
     Davidson diagonalization with overlap
     ethr =  2.29E-05,  avg # of iterations = 17.0

     total cpu time spent up to now is        6.0 secs

     total energy              =    -501.53984517 Ry
     estimated scf accuracy    <       0.01876912 Ry

     iteration #  8     ecut=    30.00 Ry     beta= 0.50
     Davidson diagonalization with overlap
     ethr =  7.33E-06,  avg # of iterations = 12.0

     total cpu time spent up to now is        6.1 secs

     total energy              =    -501.54074244 Ry
     estimated scf accuracy    <       0.03980141 Ry

     iteration #  9     ecut=    30.00 Ry     beta= 0.50
     Davidson diagonalization with overlap
     ethr =  7.33E-06,  avg # of iterations =  2.0

     total cpu time spent up to now is        6.2 secs

     total energy              =    -501.54344343 Ry
     estimated scf accuracy    <       0.00198325 Ry

     iteration # 10     ecut=    30.00 Ry     beta= 0.50
     Davidson diagonalization with overlap
     ethr =  7.75E-07,  avg # of iterations = 10.0

     total cpu time spent up to now is        6.4 secs

     total energy              =    -501.54368575 Ry
     estimated scf accuracy    <       0.00206696 Ry

     iteration # 11     ecut=    30.00 Ry     beta= 0.50
     Davidson diagonalization with overlap
     ethr =  7.75E-07,  avg # of iterations =  2.0

     total cpu time spent up to now is        6.5 secs

     total energy              =    -501.54384510 Ry
     estimated scf accuracy    <       0.00056627 Ry

     iteration # 12     ecut=    30.00 Ry     beta= 0.50
     Davidson diagonalization with overlap
     ethr =  2.21E-07,  avg # of iterations =  2.0

     total cpu time spent up to now is        6.6 secs

     total energy              =    -501.54390813 Ry
     estimated scf accuracy    <       0.00015131 Ry

     iteration # 13     ecut=    30.00 Ry     beta= 0.50
     Davidson diagonalization with overlap
     ethr =  5.91E-08,  avg # of iterations =  2.0

     total cpu time spent up to now is        6.7 secs

     total energy              =    -501.54391901 Ry
     estimated scf accuracy    <       0.00010719 Ry

     iteration # 14     ecut=    30.00 Ry     beta= 0.50
     Davidson diagonalization with overlap
     ethr =  4.19E-08,  avg # of iterations =  2.0

     total cpu time spent up to now is        6.8 secs

     total energy              =    -501.54392622 Ry
     estimated scf accuracy    <       0.00001557 Ry

     iteration # 15     ecut=    30.00 Ry     beta= 0.50
     Davidson diagonalization with overlap
     ethr =  6.08E-09,  avg # of iterations =  4.0

     total cpu time spent up to now is        6.9 secs

     total energy              =    -501.54392768 Ry
     estimated scf accuracy    <       0.00002084 Ry

     iteration # 16     ecut=    30.00 Ry     beta= 0.50
     Davidson diagonalization with overlap
     ethr =  6.08E-09,  avg # of iterations =  2.0

     total cpu time spent up to now is        7.0 secs

     total energy              =    -501.54392933 Ry
     estimated scf accuracy    <       0.00000744 Ry

     iteration # 17     ecut=    30.00 Ry     beta= 0.50
     Davidson diagonalization with overlap
     ethr =  2.90E-09,  avg # of iterations =  2.0

     total cpu time spent up to now is        7.1 secs

     total energy              =    -501.54392991 Ry
     estimated scf accuracy    <       0.00000100 Ry

     iteration # 18     ecut=    30.00 Ry     beta= 0.50
     Davidson diagonalization with overlap
     ethr =  3.92E-10,  avg # of iterations =  3.0

     total cpu time spent up to now is        7.2 secs

     End of self-consistent calculation

          k = 0.0000 0.0000 0.0000 ( 11372 PWs)   bands (ev):

    -5.3510  -4.4066  -4.3053  -4.2091  -4.1499  -4.0011  -3.9682  -3.4274
    -3.3041  -3.2339  -3.1324  -3.0438  -2.9812  -2.9532  -2.8899  -2.8528
    -2.6881  -2.5856  -2.4889  -2.1720  -1.9224  -1.8321  -1.7376  -1.6577
    -1.5866  -1.5479  -1.4548  -1.0417  -0.8277  -0.7322  -0.6673  -0.4762
    -0.3546  -0.1383  -0.0475   0.0124   0.0980   0.1501   0.2372   0.2744
     0.4129   0.4709   0.5475   0.5983   0.6761   0.7350   0.8688   0.9540
     0.9854   1.0410   1.2321   1.2771   1.3403   1.4781   1.4849   1.5852
     1.7264   1.7407   1.7910   2.0095   2.1210   2.1701   2.3047   2.4217
     2.4770   2.5322   2.6847   2.7338   2.7483   2.7929   2.8949   2.9085
     3.0557   3.1155   3.1855   3.3094   3.4146   3.4812   3.5994   3.7509
     4.0007   4.0341   4.2184   4.2744   4.3679   4.4858   4.4948   4.5868
     4.6558   4.7702   4.7995   4.9421   5.0122   5.0650   5.1357   5.2239
     5.2807   5.3059   5.3608   5.4655   5.4949   5.5180   5.5642   5.6197
     5.6836   5.7159   5.7807   5.8646   5.8857   5.9773   6.0151   6.0568
     6.1022   6.1509   6.2068   6.2853   6.3192   6.4260   6.4955   6.5523
     6.5806   6.6294   6.6996   6.7636   6.8332   6.9061   6.9771   6.9948
     7.0469   7.0921   7.1532   7.1963   7.3230   7.4011   7.4816   7.5922
     7.6090   7.6659   7.6930   7.7529   7.8069   7.8806   8.0205   8.0772
     8.0860   8.2076   8.2231   8.2455   8.2863   8.3618   8.4698   8.5883
     8.6534   8.6928

     the Fermi energy is     7.0331 ev

!    total energy              =    -501.54392948 Ry
     estimated scf accuracy    <       0.00000081 Ry
     smearing contrib. (-TS)   =      -0.14814860 Ry
     internal energy E=F+TS    =    -501.39578088 Ry

     The total energy is F=E-TS. E is the sum of the following terms:
     one-electron contribution =     189.05319860 Ry
     hartree contribution      =      23.10131134 Ry
     xc contribution           =    -150.51513082 Ry
     ewald contribution        =    -563.03516001 Ry

     convergence has been achieved in  18 iterations

     Forces acting on atoms (cartesian axes, Ry/au):

     atom    1 type  1   force =    -0.01670374   -0.00200907   -0.02393720
     atom    2 type  1   force =     0.00113188   -0.00389382   -0.00522924
     atom    3 type  1   force =    -0.00422774    0.01444213    0.00936646
     atom    4 type  1   force =    -0.08507383   -0.02032277    0.03752495
     atom    5 type  1   force =    -0.00082374   -0.00129608    0.01257444
     atom    6 type  1   force =     0.01417501   -0.04063063   -0.00941153
     atom    7 type  1   force =     0.00244846    0.01212527    0.06579141
     atom    8 type  1   force =     0.01372477   -0.03094575    0.02672458
     atom    9 type  1   force =    -0.01670889   -0.00100944    0.01744445
     atom   10 type  1   force =    -0.00098723   -0.01081837   -0.01785896
     atom   11 type  1   force =    -0.00961639   -0.01718136    0.00761323
     atom   12 type  1   force =     0.00456774   -0.00279854   -0.00851462
     atom   13 type  1   force =    -0.00576027   -0.01501344    0.00079398
     atom   14 type  1   force =     0.00776634    0.01380676   -0.00050185
     atom   15 type  1   force =     0.00252792    0.02892438   -0.01549571
     atom   16 type  1   force =     0.00613049   -0.00366562    0.01940018
     atom   17 type  1   force =     0.01019600   -0.01993132    0.00080189
     atom   18 type  1   force =    -0.03082896   -0.00967456   -0.01842070
     atom   19 type  1   force =     0.04189646    0.01856533   -0.01613240
     atom   20 type  1   force =    -0.01310092   -0.00992198    0.02171968
     atom   21 type  1   force =     0.01571539    0.02520075    0.01762349
     atom   22 type  1   force =    -0.02927896    0.03250711    0.06157388
     atom   23 type  1   force =    -0.00147910    0.02794506   -0.00503030
     atom   24 type  1   force =     0.01602681   -0.02046535    0.00037183
     atom   25 type  1   force =     0.03248872   -0.01317167   -0.04380480
     atom   26 type  1   force =    -0.01104373    0.01641559    0.00388643
     atom   27 type  1   force =    -0.01435049    0.02233945   -0.02401410
     atom   28 type  1   force =     0.01442254    0.01315355    0.01483095
     atom   29 type  1   force =    -0.00734419   -0.03198806   -0.01345559
     atom   30 type  1   force =     0.00112625    0.00390292   -0.05362583
     atom   31 type  1   force =     0.00659010    0.00247127   -0.01433606
     atom   32 type  1   force =    -0.02375751    0.02801123   -0.02191183
     atom   33 type  1   force =     0.02595424    0.03483995    0.02520541
     atom   34 type  1   force =     0.01001081    0.01768469    0.01506908
     atom   35 type  1   force =    -0.00398705   -0.01345156   -0.05233232
     atom   36 type  1   force =    -0.01180231   -0.00024236    0.00651381
     atom   37 type  1   force =     0.00862905   -0.00971688   -0.00466411
     atom   38 type  1   force =     0.01499581    0.01449916    0.00029901
     atom   39 type  1   force =     0.00729744   -0.01101677    0.04826907
     atom   40 type  1   force =    -0.01360943   -0.00261926   -0.00427640
     atom   41 type  1   force =    -0.00952470   -0.01272831   -0.01966926
     atom   42 type  1   force =    -0.01536025   -0.00383870   -0.00213783
     atom   43 type  1   force =     0.05081505    0.06050319   -0.05071626
     atom   44 type  1   force =     0.00655613   -0.03045054   -0.02051749
     atom   45 type  1   force =     0.00303530   -0.05528605    0.01069834
     atom   46 type  1   force =    -0.01181473   -0.02346606    0.00872547
     atom   47 type  1   force =    -0.00586891   -0.01934116    0.01685935
     atom   48 type  1   force =    -0.02101780    0.07974097    0.02520458
     atom   49 type  1   force =     0.01315465   -0.01294720   -0.00184852
     atom   50 type  1   force =    -0.01716562   -0.00746651    0.03401549
     atom   51 type  1   force =     0.01431987   -0.01323699    0.00319651
     atom   52 type  1   force =     0.01034166   -0.01838342    0.01670184
     atom   53 type  1   force =     0.00437335   -0.00759660    0.02019692
     atom   54 type  1   force =     0.00655991   -0.01938945   -0.04057059
     atom   55 type  1   force =    -0.00558064    0.00739991    0.01489540
     atom   56 type  1   force =     0.00733467    0.00330337    0.00311497
     atom   57 type  1   force =     0.00258727    0.00134088   -0.00608395
     atom   58 type  1   force =     0.03033228    0.00620360    0.02335935
     atom   59 type  1   force =    -0.01179869    0.04057212   -0.02084800
     atom   60 type  1   force =     0.00462330    0.01605524    0.00062196
     atom   61 type  1   force =    -0.02286091   -0.00036364   -0.05087647
     atom   62 type  1   force =     0.00727281   -0.02774828   -0.00059579
     atom   63 type  1   force =     0.02559430    0.00797535   -0.02882995
     atom   64 type  1   force =    -0.02324598   -0.00590166    0.00465928

     Total force =     0.310114     Total SCF correction =     0.001830


     Computing stress (Cartesian axis) and pressure

          total   stress  (Ry/bohr**3)                   (kbar)     P=      -39.46
  -0.00028499   0.00006806   0.00000302          -41.92       10.01        0.44
   0.00006806  -0.00025829   0.00001507           10.01      -38.00        2.22
   0.00000302   0.00001507  -0.00026146            0.44        2.22      -38.46

 
     init_run     :      1.06s CPU      4.93s WALL (       1 calls)
     electrons    :      2.00s CPU      2.18s WALL (       1 calls)
     forces       :      0.04s CPU      0.04s WALL (       1 calls)
     stress       :      0.15s CPU      0.15s WALL (       1 calls)

     Called by init_run:
     wfcinit      :      0.51s CPU      4.22s WALL (       1 calls)
                                        4.22s GPU  (       1 calls)
     potinit      :      0.05s CPU      0.14s WALL (       1 calls)
     hinit0       :      0.47s CPU      0.50s WALL (       1 calls)

     Called by electrons:
     c_bands      :      1.23s CPU      1.33s WALL (      19 calls)
     sum_band     :      0.38s CPU      0.42s WALL (      19 calls)
     v_of_rho     :      0.18s CPU      0.29s WALL (      19 calls)
     mix_rho      :      0.18s CPU      0.19s WALL (      19 calls)

     Called by c_bands:
     init_us_2    :      0.07s CPU      0.07s WALL (      39 calls)
     init_us_2:gp :      0.07s CPU      0.07s WALL (      39 calls)
     regterg      :      1.06s CPU      1.15s WALL (      19 calls)

     Called by *egterg:
     rdiaghg      :      0.47s CPU      1.24s WALL (      99 calls)
                                        1.22s GPU  (      99 calls)
     h_psi        :      0.92s CPU      3.91s WALL (     101 calls)
                                        3.91s GPU  (     101 calls)
     g_psi        :      0.00s CPU      0.00s WALL (      81 calls)
                                        0.00s GPU  (      81 calls)

     Called by h_psi:
     h_psi:calbec :      0.48s CPU      3.39s WALL (     101 calls)
                                        3.39s GPU  (     101 calls)
     vloc_psi     :      0.38s CPU      0.46s WALL (     101 calls)
                                        0.45s GPU  (     101 calls)
     add_vuspsi   :      0.04s CPU      0.06s WALL (     101 calls)
                                        0.06s GPU  (     101 calls)

     General routines
     calbec       :      0.49s CPU      3.39s WALL (     106 calls)
     fft          :      0.61s CPU      0.75s WALL (     159 calls)
                                        0.13s GPU  (     101 calls)
     ffts         :      0.05s CPU      0.05s WALL (      19 calls)
     fftw         :      0.46s CPU      0.61s WALL (    2033 calls)
                                        0.53s GPU  (    2033 calls)
 
     Parallel routines
 
     PWSCF        :      3.28s CPU      7.39s WALL

 
   This run was terminated on:  10:58:40  10May2023            

=------------------------------------------------------------------------------=
   JOB DONE.
=------------------------------------------------------------------------------=
