An instance of this daemon is already running
An instance of this daemon is already running

     Program PWSCF v.7.1 starts on 10May2023 at 10:59:59 

     This program is part of the open-source Quantum ESPRESSO suite
     for quantum simulation of materials; please cite
         "P. Giannozzi et al., J. Phys.:Condens. Matter 21 395502 (2009);
         "P. Giannozzi et al., J. Phys.:Condens. Matter 29 465901 (2017);
         "P. Giannozzi et al., J. Chem. Phys. 152 154105 (2020);
          URL http://www.quantum-espresso.org", 
     in publications or presentations arising from this work. More details at
     http://www.quantum-espresso.org/quote

     Parallel version (MPI & OpenMP), running on       4 processor cores
     Number of MPI processes:                 4
     Threads/MPI process:                     1

     MPI processes distributed on     1 nodes
     753561 MiB available memory on the printing compute node when the environment starts
 
     Reading input from pw-si-37.in
Warning: card &CELL ignored
Warning: card / ignored

     Current dimensions of program PWSCF are:
     Max number of different atomic species (ntypx) = 10
     Max number of k-points (npk) =  40000
     Max angular momentum in pseudopotentials (lmaxx) =  4

     IMPORTANT: XC functional enforced from input :
     Exchange-correlation= PBE
                           (   1   4   3   4   0   0   0)
     Any further DFT definition will be discarded
     Please, verify this is what you really want


     gamma-point specific algorithms are used
 
     K-points division:     npool     =       2
     R & G space division:  proc/nbgrp/npool/nimage =       2
     Subspace diagonalization in iterative solution of the eigenvalue problem:
     a serial algorithm will be used

     Message from routine divide_et_impera:
     suboptimal parallelization: some nodes have no k-points
 
     Parallelization info
     --------------------
     sticks:   dense  smooth     PW     G-vecs:    dense   smooth      PW
     Min        1946    1946    516                91133    91133   12416
     Max        1947    1947    517                91134    91134   12421
     Sum        3893    3893   1033               182267   182267   24837
 
     Using Slab Decomposition
 


     bravais-lattice index     =            0
     lattice parameter (alat)  =      20.1761  a.u.
     unit-cell volume          =    8213.1578 (a.u.)^3
     number of atoms/cell      =           64
     number of atomic types    =            1
     number of electrons       =       256.00
     number of Kohn-Sham states=          154
     kinetic-energy cutoff     =      30.0000  Ry
     charge density cutoff     =     120.0000  Ry
     scf convergence threshold =      1.0E-06
     mixing beta               =       0.5000
     number of iterations used =            8  plain     mixing
     Exchange-correlation= PBE
                           (   1   4   3   4   0   0   0)

     GPU acceleration is ACTIVE.
     GPU-aware MPI enabled

     Message from routine print_cuda_info:
     High GPU oversubscription detected. Are you sure this is what you want?

     celldm(1)=  20.176077  celldm(2)=   0.000000  celldm(3)=   0.000000
     celldm(4)=   0.000000  celldm(5)=   0.000000  celldm(6)=   0.000000

     crystal axes: (cart. coord. in units of alat)
               a(1) = (   1.000000   0.000000   0.000000 )  
               a(2) = (   0.000000   1.000000   0.000000 )  
               a(3) = (   0.000000   0.000000   1.000000 )  

     reciprocal axes: (cart. coord. in units 2 pi/alat)
               b(1) = (  1.000000  0.000000  0.000000 )  
               b(2) = (  0.000000  1.000000  0.000000 )  
               b(3) = (  0.000000  0.000000  1.000000 )  


     PseudoPot. # 1 for Si read from file:
     /home/ppiaggi/pseudos/Si_ONCV_PBE_sr.upf
     MD5 check sum: 8553c464762ac42b85b1eed164b4d029
     Pseudo is Norm-conserving, Zval =  4.0
     Generated using ONCVPSP code by D. R. Hamann
     Using radial grid of 1510 points,  4 beta functions with: 
                l(1) =   0
                l(2) =   0
                l(3) =   1
                l(4) =   1

     atomic species   valence    mass     pseudopotential
        Si             4.00    28.08500     Si( 1.00)

     No symmetry found



   Cartesian axes

     site n.     atom                  positions (alat units)
         1           Si  tau(   1) = (   0.5128670   0.1463190   0.4364020  )
         2           Si  tau(   2) = (   0.9620460   0.3846100   0.4240870  )
         3           Si  tau(   3) = (   0.2737150   0.9169180   0.9832400  )
         4           Si  tau(   4) = (   0.0273178   0.0605430   0.8187240  )
         5           Si  tau(   5) = (   0.2901240   0.3053520   0.3034220  )
         6           Si  tau(   6) = (   0.8194810   0.4732290   0.1436030  )
         7           Si  tau(   7) = (   0.0275333   0.3394950   0.0348320  )
         8           Si  tau(   8) = (   0.8338780   0.4982200   0.8823870  )
         9           Si  tau(   9) = (   0.7376660   0.6814190   0.1633400  )
        10           Si  tau(  10) = (   0.1036200   0.6786010   0.5812250  )
        11           Si  tau(  11) = (   0.8330240   0.1973540   0.0512734  )
        12           Si  tau(  12) = (   0.7650000   0.2862590   0.3510050  )
        13           Si  tau(  13) = (   0.4083170   0.7404270   0.7786610  )
        14           Si  tau(  14) = (   0.7591670   0.2905820   0.7660330  )
        15           Si  tau(  15) = (   0.4246150   0.8013700   0.5575480  )
        16           Si  tau(  16) = (   0.8217020   0.9022320   0.0321851  )
        17           Si  tau(  17) = (   0.7625080   0.9660010   0.5483210  )
        18           Si  tau(  18) = (   0.2909360   0.0347835   0.7816770  )
        19           Si  tau(  19) = (   0.6047810   0.0028836   0.8054870  )
        20           Si  tau(  20) = (   0.9463940   0.5273260   0.6078060  )
        21           Si  tau(  21) = (   0.0271395   0.7719870   0.3355360  )
        22           Si  tau(  22) = (   0.7541890   0.6210490   0.6406680  )
        23           Si  tau(  23) = (   0.0196338   0.8315350   0.1147530  )
        24           Si  tau(  24) = (   0.8265300   0.0966449   0.2551610  )
        25           Si  tau(  25) = (   0.3433940   0.2334540   0.5801090  )
        26           Si  tau(  26) = (   0.7890770   0.8540570   0.3434830  )
        27           Si  tau(  27) = (   0.2295800   0.5679470   0.8146440  )
        28           Si  tau(  28) = (   0.7308970   0.7433370   0.9252480  )
        29           Si  tau(  29) = (   0.3788210   0.1457820   0.0294257  )
        30           Si  tau(  30) = (   0.4872310   0.1981820   0.7984460  )
        31           Si  tau(  31) = (   0.0779952   0.0500470   0.3086080  )
        32           Si  tau(  32) = (   0.8316070   0.0940213   0.8539830  )
        33           Si  tau(  33) = (   0.5305120   0.3024400   0.2267280  )
        34           Si  tau(  34) = (   0.3223040   0.0592298   0.2461520  )
        35           Si  tau(  35) = (   0.5789660   0.5033190   0.3167740  )
        36           Si  tau(  36) = (   0.1353360   0.2545810   0.7070460  )
        37           Si  tau(  37) = (   0.9443460   0.1014150   0.5755100  )
        38           Si  tau(  38) = (   0.0644154   0.4377170   0.8178080  )
        39           Si  tau(  39) = (   0.8286960   0.8245220   0.7144330  )
        40           Si  tau(  40) = (   0.6195180   0.0582969   0.0928469  )
        41           Si  tau(  41) = (   0.5330760   0.9959480   0.6026000  )
        42           Si  tau(  42) = (   0.6134460   0.3040930   0.9918190  )
        43           Si  tau(  43) = (   0.0419895   0.4955840   0.2470750  )
        44           Si  tau(  44) = (   0.5743500   0.5974380   0.8328220  )
        45           Si  tau(  45) = (   0.4322360   0.4263860   0.6852040  )
        46           Si  tau(  46) = (   0.0586077   0.9151830   0.5332380  )
        47           Si  tau(  47) = (   0.3368950   0.6023810   0.5475190  )
        48           Si  tau(  48) = (   0.2264680   0.6220580   0.1658240  )
        49           Si  tau(  49) = (   0.1103440   0.2297340   0.4678580  )
        50           Si  tau(  50) = (   0.2955760   0.8283870   0.3102200  )
        51           Si  tau(  51) = (   0.2681650   0.9777330   0.5352840  )
        52           Si  tau(  52) = (   0.0901011   0.0531541   0.0579405  )
        53           Si  tau(  53) = (   0.6215580   0.7328990   0.4680810  )
        54           Si  tau(  54) = (   0.5241320   0.7426750   0.2063840  )
        55           Si  tau(  55) = (   0.5308290   0.5173170   0.0502911  )
        56           Si  tau(  56) = (   0.7052640   0.2380130   0.5651930  )
        57           Si  tau(  57) = (   0.5678110   0.9833210   0.2941980  )
        58           Si  tau(  58) = (   0.6088690   0.4578980   0.5639010  )
        59           Si  tau(  59) = (   0.3594130   0.5474750   0.3411600  )
        60           Si  tau(  60) = (   0.1270810   0.7137540   0.9385290  )
        61           Si  tau(  61) = (   0.0422473   0.8414270   0.7784230  )
        62           Si  tau(  62) = (   0.2193950   0.2944970   0.0800572  )
        63           Si  tau(  63) = (   0.5143220   0.8563960   0.9897670  )
        64           Si  tau(  64) = (   0.3051740   0.5016740   0.0158892  )

     number of k points=     1  Fermi-Dirac smearing, width (Ry)=  0.0100
                       cart. coord. in units 2pi/alat
        k(    1) = (   0.0000000   0.0000000   0.0000000), wk =   2.0000000

     Dense  grid:    91134 G-vectors     FFT dimensions: (  72,  72,  72)

     Estimated max dynamical RAM per process >     146.23 MB

     Estimated total dynamical RAM >     562.67 MB

     Initial potential from superposition of free atoms

     starting charge     255.9608, renormalised to     256.0000
     Starting wfcs are  256 randomized atomic wfcs

     total cpu time spent up to now is        5.0 secs

     Self-consistent Calculation

     iteration #  1     ecut=    30.00 Ry     beta= 0.50
     Davidson diagonalization with overlap
     ethr =  1.00E-02,  avg # of iterations =  3.0

     Threshold (ethr) on eigenvalues was too large:
     Diagonalizing with lowered threshold

     Davidson diagonalization with overlap
     ethr =  4.26E-04,  avg # of iterations =  4.0

     total cpu time spent up to now is        5.3 secs

     total energy              =    -501.16175526 Ry
     estimated scf accuracy    <       1.28887647 Ry

     iteration #  2     ecut=    30.00 Ry     beta= 0.50
     Davidson diagonalization with overlap
     ethr =  5.03E-04,  avg # of iterations =  4.0

     total cpu time spent up to now is        5.4 secs

     total energy              =    -500.72494124 Ry
     estimated scf accuracy    <       4.95669436 Ry

     iteration #  3     ecut=    30.00 Ry     beta= 0.50
     Davidson diagonalization with overlap
     ethr =  5.03E-04,  avg # of iterations =  3.0

     total cpu time spent up to now is        5.5 secs

     total energy              =    -501.16679715 Ry
     estimated scf accuracy    <       2.86988477 Ry

     iteration #  4     ecut=    30.00 Ry     beta= 0.50
     Davidson diagonalization with overlap
     ethr =  5.03E-04,  avg # of iterations =  2.0

     total cpu time spent up to now is        5.6 secs

     total energy              =    -501.36463066 Ry
     estimated scf accuracy    <       0.62863532 Ry

     iteration #  5     ecut=    30.00 Ry     beta= 0.50
     Davidson diagonalization with overlap
     ethr =  2.46E-04,  avg # of iterations =  2.0

     total cpu time spent up to now is        5.7 secs

     total energy              =    -501.38762132 Ry
     estimated scf accuracy    <       0.50972995 Ry

     iteration #  6     ecut=    30.00 Ry     beta= 0.50
     Davidson diagonalization with overlap
     ethr =  1.99E-04,  avg # of iterations =  2.0

     total cpu time spent up to now is        5.8 secs

     total energy              =    -501.43212924 Ry
     estimated scf accuracy    <       0.14682177 Ry

     iteration #  7     ecut=    30.00 Ry     beta= 0.50
     Davidson diagonalization with overlap
     ethr =  5.74E-05,  avg # of iterations =  2.0

     total cpu time spent up to now is        5.9 secs

     total energy              =    -501.44541142 Ry
     estimated scf accuracy    <       0.01636286 Ry

     iteration #  8     ecut=    30.00 Ry     beta= 0.50
     Davidson diagonalization with overlap
     ethr =  6.39E-06,  avg # of iterations = 15.0

     total cpu time spent up to now is        6.1 secs

     total energy              =    -501.44630558 Ry
     estimated scf accuracy    <       0.03683885 Ry

     iteration #  9     ecut=    30.00 Ry     beta= 0.50
     Davidson diagonalization with overlap
     ethr =  6.39E-06,  avg # of iterations =  2.0

     total cpu time spent up to now is        6.2 secs

     total energy              =    -501.44913136 Ry
     estimated scf accuracy    <       0.00301271 Ry

     iteration # 10     ecut=    30.00 Ry     beta= 0.50
     Davidson diagonalization with overlap
     ethr =  1.18E-06,  avg # of iterations =  2.0

     total cpu time spent up to now is        6.3 secs

     total energy              =    -501.44947874 Ry
     estimated scf accuracy    <       0.00097028 Ry

     iteration # 11     ecut=    30.00 Ry     beta= 0.50
     Davidson diagonalization with overlap
     ethr =  3.79E-07,  avg # of iterations =  3.0

     total cpu time spent up to now is        6.4 secs

     total energy              =    -501.44950880 Ry
     estimated scf accuracy    <       0.00119540 Ry

     iteration # 12     ecut=    30.00 Ry     beta= 0.50
     Davidson diagonalization with overlap
     ethr =  3.79E-07,  avg # of iterations =  2.0

     total cpu time spent up to now is        6.5 secs

     total energy              =    -501.44961829 Ry
     estimated scf accuracy    <       0.00025033 Ry

     iteration # 13     ecut=    30.00 Ry     beta= 0.50
     Davidson diagonalization with overlap
     ethr =  9.78E-08,  avg # of iterations =  2.0

     total cpu time spent up to now is        6.6 secs

     total energy              =    -501.44963740 Ry
     estimated scf accuracy    <       0.00013863 Ry

     iteration # 14     ecut=    30.00 Ry     beta= 0.50
     Davidson diagonalization with overlap
     ethr =  5.42E-08,  avg # of iterations =  2.0

     total cpu time spent up to now is        6.7 secs

     total energy              =    -501.44964765 Ry
     estimated scf accuracy    <       0.00002683 Ry

     iteration # 15     ecut=    30.00 Ry     beta= 0.50
     Davidson diagonalization with overlap
     ethr =  1.05E-08,  avg # of iterations =  2.0

     total cpu time spent up to now is        6.8 secs

     total energy              =    -501.44964917 Ry
     estimated scf accuracy    <       0.00002665 Ry

     iteration # 16     ecut=    30.00 Ry     beta= 0.50
     Davidson diagonalization with overlap
     ethr =  1.04E-08,  avg # of iterations =  2.0

     total cpu time spent up to now is        6.9 secs

     total energy              =    -501.44965066 Ry
     estimated scf accuracy    <       0.00003483 Ry

     iteration # 17     ecut=    30.00 Ry     beta= 0.50
     Davidson diagonalization with overlap
     ethr =  1.04E-08,  avg # of iterations =  1.0

     total cpu time spent up to now is        7.0 secs

     total energy              =    -501.44965276 Ry
     estimated scf accuracy    <       0.00000245 Ry

     iteration # 18     ecut=    30.00 Ry     beta= 0.50
     Davidson diagonalization with overlap
     ethr =  9.58E-10,  avg # of iterations =  4.0

     total cpu time spent up to now is        7.1 secs

     total energy              =    -501.44965314 Ry
     estimated scf accuracy    <       0.00000218 Ry

     iteration # 19     ecut=    30.00 Ry     beta= 0.50
     Davidson diagonalization with overlap
     ethr =  8.50E-10,  avg # of iterations =  2.0

     total cpu time spent up to now is        7.2 secs

     End of self-consistent calculation

          k = 0.0000 0.0000 0.0000 ( 11444 PWs)   bands (ev):

    -5.3878  -4.4046  -4.3796  -4.3165  -4.1538  -3.9890  -3.9108  -3.4249
    -3.3542  -3.2514  -3.1804  -3.1429  -3.0716  -2.9548  -2.7702  -2.7304
    -2.6989  -2.6730  -2.5190  -2.2334  -2.1645  -1.9103  -1.7566  -1.7088
    -1.6338  -1.4359  -1.3623  -1.1636  -0.9920  -0.9480  -0.6250  -0.4720
    -0.3366  -0.3056  -0.2027  -0.0815  -0.0293   0.0600   0.1386   0.2167
     0.3079   0.4031   0.4876   0.6235   0.6581   0.7659   0.8377   0.9125
     0.9889   1.0783   1.2244   1.2301   1.3905   1.4113   1.5338   1.6444
     1.6885   1.7584   1.8656   2.0000   2.0602   2.2055   2.2322   2.2648
     2.4074   2.4923   2.5675   2.5926   2.7135   2.8403   2.9219   2.9287
     3.0866   3.1115   3.1400   3.3376   3.4175   3.4404   3.5309   3.6978
     3.7518   3.8893   4.1505   4.2708   4.3275   4.3473   4.5220   4.5495
     4.5917   4.6956   4.7753   4.8214   4.9166   4.9894   5.1114   5.1520
     5.1871   5.2202   5.2624   5.2818   5.3590   5.4201   5.5097   5.5572
     5.5831   5.6744   5.7121   5.7988   5.8231   5.9482   6.0111   6.0768
     6.1403   6.2107   6.2747   6.3211   6.3323   6.4153   6.4681   6.5838
     6.6052   6.7124   6.7449   6.8481   6.8773   6.9027   6.9350   7.0138
     7.0692   7.0743   7.2091   7.2243   7.2581   7.2627   7.3957   7.4520
     7.5057   7.5610   7.7280   7.7630   7.8285   7.8441   7.9783   8.0708
     8.1068   8.1732   8.2150   8.2616   8.3514   8.3817   8.4070   8.4546
     8.5364   8.5869

     the Fermi energy is     7.0366 ev

!    total energy              =    -501.44965308 Ry
     estimated scf accuracy    <       0.00000036 Ry
     smearing contrib. (-TS)   =      -0.16496394 Ry
     internal energy E=F+TS    =    -501.28468914 Ry

     The total energy is F=E-TS. E is the sum of the following terms:
     one-electron contribution =     185.06489307 Ry
     hartree contribution      =      24.81481545 Ry
     xc contribution           =    -150.60109204 Ry
     ewald contribution        =    -560.56330562 Ry

     convergence has been achieved in  19 iterations

     Forces acting on atoms (cartesian axes, Ry/au):

     atom    1 type  1   force =    -0.01205505    0.02046999    0.01918552
     atom    2 type  1   force =    -0.01861839    0.01159606    0.00436086
     atom    3 type  1   force =    -0.00023717    0.00492818   -0.01265951
     atom    4 type  1   force =     0.09663320   -0.00067123   -0.02181739
     atom    5 type  1   force =     0.01921305   -0.00274566   -0.02149692
     atom    6 type  1   force =     0.02594459   -0.00412682    0.00242910
     atom    7 type  1   force =    -0.11052161    0.02038872   -0.02416651
     atom    8 type  1   force =    -0.00239992   -0.00164980   -0.01405454
     atom    9 type  1   force =    -0.01263700    0.00904936   -0.01323123
     atom   10 type  1   force =     0.03172261    0.02755962    0.00094673
     atom   11 type  1   force =     0.00890731    0.01525456    0.00290583
     atom   12 type  1   force =     0.00913261    0.02550075    0.01569542
     atom   13 type  1   force =    -0.00715273   -0.00328437    0.02011179
     atom   14 type  1   force =    -0.00329051    0.02629337    0.03578518
     atom   15 type  1   force =    -0.01187751    0.01555860    0.00576780
     atom   16 type  1   force =     0.00265108    0.04130275    0.03142978
     atom   17 type  1   force =     0.00480358   -0.01505332    0.00120195
     atom   18 type  1   force =     0.00853017    0.02526754   -0.02062325
     atom   19 type  1   force =     0.01714362   -0.01067596    0.03940270
     atom   20 type  1   force =     0.01563784   -0.03485042    0.00446312
     atom   21 type  1   force =    -0.01455837    0.00563203    0.00621442
     atom   22 type  1   force =    -0.03935981   -0.00135170    0.00831901
     atom   23 type  1   force =    -0.00051500    0.03004672   -0.01215936
     atom   24 type  1   force =     0.01302436   -0.02068103   -0.01535281
     atom   25 type  1   force =    -0.01990709   -0.00889793    0.01297936
     atom   26 type  1   force =     0.00641228    0.00829649    0.01412180
     atom   27 type  1   force =     0.07994771    0.02315264    0.00249100
     atom   28 type  1   force =    -0.03144935   -0.04431218   -0.02071381
     atom   29 type  1   force =     0.01704359   -0.01677922   -0.00817020
     atom   30 type  1   force =    -0.00195558    0.00998530    0.01312227
     atom   31 type  1   force =    -0.01503429   -0.00861760    0.00122263
     atom   32 type  1   force =    -0.10813484    0.00292261    0.03033984
     atom   33 type  1   force =    -0.01003313   -0.00977113    0.00384230
     atom   34 type  1   force =     0.00219730   -0.00928433    0.00144408
     atom   35 type  1   force =     0.00195702    0.02803811    0.04924340
     atom   36 type  1   force =     0.01630151   -0.03365657   -0.01226238
     atom   37 type  1   force =    -0.01159320    0.01236134    0.01494340
     atom   38 type  1   force =    -0.06692607   -0.03597322   -0.01350602
     atom   39 type  1   force =    -0.01351533   -0.00400706    0.01155190
     atom   40 type  1   force =     0.00887627   -0.01209814   -0.01251715
     atom   41 type  1   force =     0.02667716    0.00123597   -0.01351973
     atom   42 type  1   force =     0.00174264   -0.00407022    0.00833752
     atom   43 type  1   force =    -0.01600747    0.02134019   -0.03671280
     atom   44 type  1   force =     0.02088473    0.00871358   -0.00688658
     atom   45 type  1   force =    -0.04679933   -0.00836591    0.01793453
     atom   46 type  1   force =     0.01805869   -0.02342753   -0.02826792
     atom   47 type  1   force =    -0.04050190   -0.00669013    0.01844259
     atom   48 type  1   force =    -0.04608362    0.03844174    0.07230770
     atom   49 type  1   force =     0.01092530   -0.02073962    0.00984834
     atom   50 type  1   force =    -0.00033050   -0.00792661   -0.00238800
     atom   51 type  1   force =     0.01274736    0.00916322    0.01348151
     atom   52 type  1   force =     0.01938165   -0.03370501    0.00197881
     atom   53 type  1   force =     0.02199703   -0.02336873   -0.01812866
     atom   54 type  1   force =    -0.00903477   -0.00752270   -0.00427849
     atom   55 type  1   force =    -0.00589490   -0.01118005   -0.02246382
     atom   56 type  1   force =    -0.02446631    0.01894741   -0.04024745
     atom   57 type  1   force =     0.00023559   -0.00870838   -0.01108159
     atom   58 type  1   force =     0.03025470   -0.00454039   -0.03849376
     atom   59 type  1   force =     0.00540051   -0.01924281   -0.02924658
     atom   60 type  1   force =     0.02069283    0.05363129    0.04641423
     atom   61 type  1   force =    -0.01988957   -0.01056328   -0.04123472
     atom   62 type  1   force =     0.09921030    0.00558740    0.03967617
     atom   63 type  1   force =     0.00124017    0.01197667   -0.02961952
     atom   64 type  1   force =     0.04525198   -0.06410312   -0.03664190

     Total force =     0.372887     Total SCF correction =     0.001099


     Computing stress (Cartesian axis) and pressure

          total   stress  (Ry/bohr**3)                   (kbar)     P=      -35.14
  -0.00023497  -0.00008766  -0.00003407          -34.56      -12.90       -5.01
  -0.00008766  -0.00023233   0.00001518          -12.90      -34.18        2.23
  -0.00003407   0.00001518  -0.00024941           -5.01        2.23      -36.69

 
     init_run     :      1.12s CPU      4.95s WALL (       1 calls)
     electrons    :      2.01s CPU      2.16s WALL (       1 calls)
     forces       :      0.03s CPU      0.04s WALL (       1 calls)
     stress       :      0.15s CPU      0.16s WALL (       1 calls)

     Called by init_run:
     wfcinit      :      0.58s CPU      4.23s WALL (       1 calls)
                                        4.23s GPU  (       1 calls)
     potinit      :      0.05s CPU      0.15s WALL (       1 calls)
     hinit0       :      0.46s CPU      0.50s WALL (       1 calls)

     Called by electrons:
     c_bands      :      1.18s CPU      1.24s WALL (      20 calls)
     sum_band     :      0.41s CPU      0.46s WALL (      20 calls)
     v_of_rho     :      0.20s CPU      0.30s WALL (      20 calls)
     mix_rho      :      0.19s CPU      0.21s WALL (      20 calls)

     Called by c_bands:
     init_us_2    :      0.07s CPU      0.08s WALL (      41 calls)
     init_us_2:gp :      0.07s CPU      0.08s WALL (      41 calls)
     regterg      :      1.00s CPU      1.06s WALL (      20 calls)

     Called by *egterg:
     rdiaghg      :      0.41s CPU      1.15s WALL (      80 calls)
                                        1.14s GPU  (      80 calls)
     h_psi        :      0.99s CPU      3.93s WALL (      82 calls)
                                        3.93s GPU  (      82 calls)
     g_psi        :      0.00s CPU      0.00s WALL (      61 calls)
                                        0.00s GPU  (      61 calls)

     Called by h_psi:
     h_psi:calbec :      0.54s CPU      3.40s WALL (      82 calls)
                                        3.40s GPU  (      82 calls)
     vloc_psi     :      0.40s CPU      0.47s WALL (      82 calls)
                                        0.47s GPU  (      82 calls)
     add_vuspsi   :      0.03s CPU      0.05s WALL (      82 calls)
                                        0.05s GPU  (      82 calls)

     General routines
     calbec       :      0.55s CPU      3.41s WALL (      87 calls)
     fft          :      0.63s CPU      0.77s WALL (     167 calls)
                                        0.14s GPU  (     106 calls)
     ffts         :      0.05s CPU      0.05s WALL (      20 calls)
     fftw         :      0.49s CPU      0.64s WALL (    2084 calls)
                                        0.56s GPU  (    2084 calls)
 
     Parallel routines
 
     PWSCF        :      3.36s CPU      7.40s WALL

 
   This run was terminated on:  11: 0: 7  10May2023            

=------------------------------------------------------------------------------=
   JOB DONE.
=------------------------------------------------------------------------------=
