An instance of this daemon is already running
An instance of this daemon is already running
An instance of this daemon is already running

     Program PWSCF v.7.1 starts on 10May2023 at 10:54:58 

     This program is part of the open-source Quantum ESPRESSO suite
     for quantum simulation of materials; please cite
         "P. Giannozzi et al., J. Phys.:Condens. Matter 21 395502 (2009);
         "P. Giannozzi et al., J. Phys.:Condens. Matter 29 465901 (2017);
         "P. Giannozzi et al., J. Chem. Phys. 152 154105 (2020);
          URL http://www.quantum-espresso.org", 
     in publications or presentations arising from this work. More details at
     http://www.quantum-espresso.org/quote

     Parallel version (MPI & OpenMP), running on       4 processor cores
     Number of MPI processes:                 4
     Threads/MPI process:                     1

     MPI processes distributed on     1 nodes
     753565 MiB available memory on the printing compute node when the environment starts
 
     Reading input from pw-si-6.in
Warning: card &CELL ignored
Warning: card / ignored

     Current dimensions of program PWSCF are:
     Max number of different atomic species (ntypx) = 10
     Max number of k-points (npk) =  40000
     Max angular momentum in pseudopotentials (lmaxx) =  4

     IMPORTANT: XC functional enforced from input :
     Exchange-correlation= PBE
                           (   1   4   3   4   0   0   0)
     Any further DFT definition will be discarded
     Please, verify this is what you really want


     gamma-point specific algorithms are used
 
     K-points division:     npool     =       2
     R & G space division:  proc/nbgrp/npool/nimage =       2
     Subspace diagonalization in iterative solution of the eigenvalue problem:
     a serial algorithm will be used

     Message from routine divide_et_impera:
     suboptimal parallelization: some nodes have no k-points
 
     Parallelization info
     --------------------
     sticks:   dense  smooth     PW     G-vecs:    dense   smooth      PW
     Min        1900    1900    501                88452    88452   11935
     Max        1901    1901    504                88457    88457   11936
     Sum        3801    3801   1005               176909   176909   23871
 
     Using Slab Decomposition
 


     bravais-lattice index     =            0
     lattice parameter (alat)  =      19.9725  a.u.
     unit-cell volume          =    7967.0114 (a.u.)^3
     number of atoms/cell      =           64
     number of atomic types    =            1
     number of electrons       =       256.00
     number of Kohn-Sham states=          154
     kinetic-energy cutoff     =      30.0000  Ry
     charge density cutoff     =     120.0000  Ry
     scf convergence threshold =      1.0E-06
     mixing beta               =       0.5000
     number of iterations used =            8  plain     mixing
     Exchange-correlation= PBE
                           (   1   4   3   4   0   0   0)

     GPU acceleration is ACTIVE.
     GPU-aware MPI enabled

     Message from routine print_cuda_info:
     High GPU oversubscription detected. Are you sure this is what you want?

     celldm(1)=  19.972472  celldm(2)=   0.000000  celldm(3)=   0.000000
     celldm(4)=   0.000000  celldm(5)=   0.000000  celldm(6)=   0.000000

     crystal axes: (cart. coord. in units of alat)
               a(1) = (   1.000000   0.000000   0.000000 )  
               a(2) = (   0.000000   1.000000   0.000000 )  
               a(3) = (   0.000000   0.000000   1.000000 )  

     reciprocal axes: (cart. coord. in units 2 pi/alat)
               b(1) = (  1.000000  0.000000  0.000000 )  
               b(2) = (  0.000000  1.000000  0.000000 )  
               b(3) = (  0.000000  0.000000  1.000000 )  


     PseudoPot. # 1 for Si read from file:
     /home/ppiaggi/pseudos/Si_ONCV_PBE_sr.upf
     MD5 check sum: 8553c464762ac42b85b1eed164b4d029
     Pseudo is Norm-conserving, Zval =  4.0
     Generated using ONCVPSP code by D. R. Hamann
     Using radial grid of 1510 points,  4 beta functions with: 
                l(1) =   0
                l(2) =   0
                l(3) =   1
                l(4) =   1

     atomic species   valence    mass     pseudopotential
        Si             4.00    28.08500     Si( 1.00)

     No symmetry found



   Cartesian axes

     site n.     atom                  positions (alat units)
         1           Si  tau(   1) = (   0.4000720   0.0822608   0.5216320  )
         2           Si  tau(   2) = (   0.4901430   0.0785706   0.1732110  )
         3           Si  tau(   3) = (   0.4429350   0.5698460   0.5968970  )
         4           Si  tau(   4) = (   0.1693530   0.7363970   0.5435180  )
         5           Si  tau(   5) = (   0.7851400   0.0788446   0.4689850  )
         6           Si  tau(   6) = (   0.3171760   0.0789816   0.9367580  )
         7           Si  tau(   7) = (   0.2784630   0.3355980   0.3630270  )
         8           Si  tau(   8) = (   0.9544310   0.7273390   0.6040860  )
         9           Si  tau(   9) = (   0.6768210   0.0621843   0.9613680  )
        10           Si  tau(  10) = (   0.1488880   0.7015200   0.9364020  )
        11           Si  tau(  11) = (   0.0050782   0.2621750   0.5959960  )
        12           Si  tau(  12) = (   0.5041530   0.2087650   0.9224010  )
        13           Si  tau(  13) = (   0.6669550   0.4990900   0.2860290  )
        14           Si  tau(  14) = (   0.5715110   0.0413154   0.3809890  )
        15           Si  tau(  15) = (   0.5267460   0.5527970   0.0939490  )
        16           Si  tau(  16) = (   0.6203130   0.6975350   0.9146270  )
        17           Si  tau(  17) = (   0.9444910   0.9980280   0.8635610  )
        18           Si  tau(  18) = (   0.1511350   0.1527030   0.3749550  )
        19           Si  tau(  19) = (   0.4346100   0.9409470   0.7335390  )
        20           Si  tau(  20) = (   0.5023450   0.8027900   0.4474770  )
        21           Si  tau(  21) = (   0.6410730   0.8903790   0.7896050  )
        22           Si  tau(  22) = (   0.1833760   0.1994400   0.0883739  )
        23           Si  tau(  23) = (   0.5530870   0.7473190   0.2408680  )
        24           Si  tau(  24) = (   0.1631890   0.0511737   0.7667930  )
        25           Si  tau(  25) = (   0.0235050   0.5132920   0.0744671  )
        26           Si  tau(  26) = (   0.2795410   0.5814090   0.3826840  )
        27           Si  tau(  27) = (   0.1093550   0.0287104   0.5400990  )
        28           Si  tau(  28) = (   0.5208610   0.8691700   0.0566354  )
        29           Si  tau(  29) = (   0.2891930   0.8764680   0.4152290  )
        30           Si  tau(  30) = (   0.3093970   0.8377070   0.1063910  )
        31           Si  tau(  31) = (   0.8183850   0.6702150   0.4009700  )
        32           Si  tau(  32) = (   0.6297230   0.3986480   0.9469270  )
        33           Si  tau(  33) = (   0.0574858   0.9329660   0.1576850  )
        34           Si  tau(  34) = (   0.9353270   0.2182730   0.3412980  )
        35           Si  tau(  35) = (   0.3094550   0.6135640   0.1538500  )
        36           Si  tau(  36) = (   0.4032330   0.6362940   0.8108740  )
        37           Si  tau(  37) = (   0.2432920   0.4218220   0.0710025  )
        38           Si  tau(  38) = (   0.3610870   0.4128430   0.8779850  )
        39           Si  tau(  39) = (   0.7879830   0.7971610   0.2036470  )
        40           Si  tau(  40) = (   0.7528940   0.5140080   0.7695260  )
        41           Si  tau(  41) = (   0.8159050   0.6515910   0.0239551  )
        42           Si  tau(  42) = (   0.8069970   0.1765760   0.6741890  )
        43           Si  tau(  43) = (   0.5433380   0.1691330   0.6930440  )
        44           Si  tau(  44) = (   0.7977180   0.3971670   0.4561240  )
        45           Si  tau(  45) = (   0.0255363   0.4854840   0.5335000  )
        46           Si  tau(  46) = (   0.6518760   0.7181110   0.6130930  )
        47           Si  tau(  47) = (   0.8210090   0.2546410   0.8910850  )
        48           Si  tau(  48) = (   0.3559830   0.3605580   0.5982030  )
        49           Si  tau(  49) = (   0.2579620   0.8097130   0.7742060  )
        50           Si  tau(  50) = (   0.1834780   0.2725570   0.7593190  )
        51           Si  tau(  51) = (   0.5307200   0.3069210   0.3953890  )
        52           Si  tau(  52) = (   0.4303770   0.3040190   0.1701560  )
        53           Si  tau(  53) = (   0.8093650   0.3938450   0.1199660  )
        54           Si  tau(  54) = (   0.7664410   0.0341552   0.1792430  )
        55           Si  tau(  55) = (   0.2730110   0.0320388   0.2228500  )
        56           Si  tau(  56) = (   0.6367510   0.3777110   0.6172870  )
        57           Si  tau(  57) = (   0.0477592   0.6743830   0.3062520  )
        58           Si  tau(  58) = (   0.9611510   0.8191200   0.9740340  )
        59           Si  tau(  59) = (   0.0582828   0.4267850   0.2983980  )
        60           Si  tau(  60) = (   0.9500940   0.5829200   0.7865340  )
        61           Si  tau(  61) = (   0.9517050   0.1618090   0.0754436  )
        62           Si  tau(  62) = (   0.0193257   0.3905960   0.8801310  )
        63           Si  tau(  63) = (   0.8302100   0.9175990   0.6689960  )
        64           Si  tau(  64) = (   0.9450310   0.9229340   0.3921800  )

     number of k points=     1  Fermi-Dirac smearing, width (Ry)=  0.0100
                       cart. coord. in units 2pi/alat
        k(    1) = (   0.0000000   0.0000000   0.0000000), wk =   2.0000000

     Dense  grid:    88455 G-vectors     FFT dimensions: (  72,  72,  72)

     Estimated max dynamical RAM per process >     142.33 MB

     Estimated total dynamical RAM >     547.71 MB

     Initial potential from superposition of free atoms

     starting charge     255.9608, renormalised to     256.0000
     Starting wfcs are  256 randomized atomic wfcs

     total cpu time spent up to now is        5.0 secs

     Self-consistent Calculation

     iteration #  1     ecut=    30.00 Ry     beta= 0.50
     Davidson diagonalization with overlap
     ethr =  1.00E-02,  avg # of iterations =  3.0

     Threshold (ethr) on eigenvalues was too large:
     Diagonalizing with lowered threshold

     Davidson diagonalization with overlap
     ethr =  3.95E-04,  avg # of iterations =  4.0

     total cpu time spent up to now is        5.3 secs

     total energy              =    -501.25756460 Ry
     estimated scf accuracy    <       1.20963083 Ry

     iteration #  2     ecut=    30.00 Ry     beta= 0.50
     Davidson diagonalization with overlap
     ethr =  4.73E-04,  avg # of iterations =  5.0

     total cpu time spent up to now is        5.4 secs

     total energy              =    -500.74250117 Ry
     estimated scf accuracy    <       6.49140501 Ry

     iteration #  3     ecut=    30.00 Ry     beta= 0.50
     Davidson diagonalization with overlap
     ethr =  4.73E-04,  avg # of iterations =  4.0

     total cpu time spent up to now is        5.5 secs

     total energy              =    -501.30686149 Ry
     estimated scf accuracy    <       2.26756222 Ry

     iteration #  4     ecut=    30.00 Ry     beta= 0.50
     Davidson diagonalization with overlap
     ethr =  4.73E-04,  avg # of iterations =  2.0

     total cpu time spent up to now is        5.6 secs

     total energy              =    -501.47760084 Ry
     estimated scf accuracy    <       0.56511665 Ry

     iteration #  5     ecut=    30.00 Ry     beta= 0.50
     Davidson diagonalization with overlap
     ethr =  2.21E-04,  avg # of iterations =  2.0

     total cpu time spent up to now is        5.7 secs

     total energy              =    -501.50471949 Ry
     estimated scf accuracy    <       0.31129112 Ry

     iteration #  6     ecut=    30.00 Ry     beta= 0.50
     Davidson diagonalization with overlap
     ethr =  1.22E-04,  avg # of iterations =  2.0

     total cpu time spent up to now is        5.8 secs

     total energy              =    -501.53557585 Ry
     estimated scf accuracy    <       0.11098549 Ry

     iteration #  7     ecut=    30.00 Ry     beta= 0.50
     Davidson diagonalization with overlap
     ethr =  4.34E-05,  avg # of iterations =  2.0

     total cpu time spent up to now is        5.9 secs

     total energy              =    -501.54445217 Ry
     estimated scf accuracy    <       0.01859443 Ry

     iteration #  8     ecut=    30.00 Ry     beta= 0.50
     Davidson diagonalization with overlap
     ethr =  7.26E-06,  avg # of iterations = 12.0

     total cpu time spent up to now is        6.1 secs

     total energy              =    -501.54650125 Ry
     estimated scf accuracy    <       0.02738240 Ry

     iteration #  9     ecut=    30.00 Ry     beta= 0.50
     Davidson diagonalization with overlap
     ethr =  7.26E-06,  avg # of iterations =  2.0

     total cpu time spent up to now is        6.2 secs

     total energy              =    -501.54853863 Ry
     estimated scf accuracy    <       0.00125623 Ry

     iteration # 10     ecut=    30.00 Ry     beta= 0.50
     Davidson diagonalization with overlap
     ethr =  4.91E-07,  avg # of iterations = 11.0

     total cpu time spent up to now is        6.3 secs

     total energy              =    -501.54865982 Ry
     estimated scf accuracy    <       0.00316513 Ry

     iteration # 11     ecut=    30.00 Ry     beta= 0.50
     Davidson diagonalization with overlap
     ethr =  4.91E-07,  avg # of iterations =  3.0

     total cpu time spent up to now is        6.4 secs

     total energy              =    -501.54887462 Ry
     estimated scf accuracy    <       0.00069862 Ry

     iteration # 12     ecut=    30.00 Ry     beta= 0.50
     Davidson diagonalization with overlap
     ethr =  2.73E-07,  avg # of iterations =  2.0

     total cpu time spent up to now is        6.5 secs

     total energy              =    -501.54893273 Ry
     estimated scf accuracy    <       0.00019352 Ry

     iteration # 13     ecut=    30.00 Ry     beta= 0.50
     Davidson diagonalization with overlap
     ethr =  7.56E-08,  avg # of iterations =  3.0

     total cpu time spent up to now is        6.6 secs

     total energy              =    -501.54894168 Ry
     estimated scf accuracy    <       0.00032041 Ry

     iteration # 14     ecut=    30.00 Ry     beta= 0.50
     Davidson diagonalization with overlap
     ethr =  7.56E-08,  avg # of iterations =  2.0

     total cpu time spent up to now is        6.7 secs

     total energy              =    -501.54896272 Ry
     estimated scf accuracy    <       0.00001028 Ry

     iteration # 15     ecut=    30.00 Ry     beta= 0.50
     Davidson diagonalization with overlap
     ethr =  4.02E-09,  avg # of iterations =  5.0

     total cpu time spent up to now is        6.8 secs

     total energy              =    -501.54896371 Ry
     estimated scf accuracy    <       0.00001243 Ry

     iteration # 16     ecut=    30.00 Ry     beta= 0.50
     Davidson diagonalization with overlap
     ethr =  4.02E-09,  avg # of iterations =  3.0

     total cpu time spent up to now is        6.9 secs

     total energy              =    -501.54896378 Ry
     estimated scf accuracy    <       0.00002946 Ry

     iteration # 17     ecut=    30.00 Ry     beta= 0.50
     Davidson diagonalization with overlap
     ethr =  4.02E-09,  avg # of iterations =  2.0

     total cpu time spent up to now is        7.0 secs

     total energy              =    -501.54896558 Ry
     estimated scf accuracy    <       0.00000165 Ry

     iteration # 18     ecut=    30.00 Ry     beta= 0.50
     Davidson diagonalization with overlap
     ethr =  6.45E-10,  avg # of iterations =  4.0

     total cpu time spent up to now is        7.1 secs

     total energy              =    -501.54896576 Ry
     estimated scf accuracy    <       0.00000149 Ry

     iteration # 19     ecut=    30.00 Ry     beta= 0.50
     Davidson diagonalization with overlap
     ethr =  5.84E-10,  avg # of iterations =  2.0

     total cpu time spent up to now is        7.2 secs

     End of self-consistent calculation

          k = 0.0000 0.0000 0.0000 ( 11060 PWs)   bands (ev):

    -5.2431  -4.2435  -4.2344  -4.0702  -3.9696  -3.8056  -3.6599  -3.1684
    -3.0970  -3.0045  -2.9379  -2.8713  -2.8466  -2.7742  -2.7271  -2.5593
    -2.5157  -2.4234  -2.2992  -1.8787  -1.7606  -1.7003  -1.6002  -1.5268
    -1.4974  -1.3773  -1.2450  -0.6244  -0.5709  -0.4867  -0.4450  -0.3232
    -0.0724   0.0766   0.2531   0.3038   0.3372   0.4117   0.5381   0.5552
     0.6314   0.6811   0.7863   0.8261   0.9014   0.9517   1.1009   1.1574
     1.1918   1.3679   1.4210   1.5260   1.5482   1.6178   1.7660   1.8202
     1.9170   2.0246   2.0918   2.1582   2.2801   2.3726   2.4143   2.5859
     2.7215   2.7384   2.8057   2.8350   2.9341   3.0724   3.1274   3.2145
     3.3177   3.3339   3.4519   3.4970   3.5918   3.6489   3.7176   3.8191
     4.0499   4.4127   4.4810   4.6430   4.6952   4.7942   4.9136   4.9562
     4.9771   5.0549   5.1153   5.1652   5.1989   5.3306   5.4006   5.5095
     5.5351   5.5984   5.6824   5.6993   5.7670   5.8309   5.8534   5.8714
     6.0122   6.0784   6.1123   6.1461   6.2563   6.3074   6.3704   6.4100
     6.4751   6.4841   6.5882   6.6133   6.6583   6.7140   6.8311   6.9289
     6.9525   6.9877   7.0236   7.0519   7.0882   7.1670   7.2485   7.2894
     7.3941   7.4423   7.4894   7.5174   7.6315   7.6522   7.7806   7.8534
     7.8644   7.9531   7.9772   8.0332   8.0958   8.2226   8.2549   8.3209
     8.3704   8.4401   8.5208   8.5782   8.6063   8.7004   8.7562   8.7984
     8.9110   9.0384

     the Fermi energy is     7.3415 ev

!    total energy              =    -501.54896527 Ry
     estimated scf accuracy    <       0.00000080 Ry
     smearing contrib. (-TS)   =      -0.14907219 Ry
     internal energy E=F+TS    =    -501.39989308 Ry

     The total energy is F=E-TS. E is the sum of the following terms:
     one-electron contribution =     197.68720501 Ry
     hartree contribution      =      21.61512698 Ry
     xc contribution           =    -151.29587715 Ry
     ewald contribution        =    -569.40634792 Ry

     convergence has been achieved in  19 iterations

     Forces acting on atoms (cartesian axes, Ry/au):

     atom    1 type  1   force =    -0.00129716   -0.01824472    0.05840687
     atom    2 type  1   force =    -0.00057711   -0.00537199   -0.00099032
     atom    3 type  1   force =     0.00974371   -0.00027393   -0.01385904
     atom    4 type  1   force =     0.01017387    0.00471456    0.00529419
     atom    5 type  1   force =     0.00128086   -0.02819205   -0.01409452
     atom    6 type  1   force =     0.00991150   -0.00525038   -0.01154394
     atom    7 type  1   force =     0.01053609    0.03020637    0.00304518
     atom    8 type  1   force =    -0.01170902    0.00254736   -0.02192137
     atom    9 type  1   force =     0.00390220   -0.01976052    0.02036707
     atom   10 type  1   force =    -0.01042814   -0.00900633    0.01576425
     atom   11 type  1   force =     0.00892255   -0.01438736   -0.01976586
     atom   12 type  1   force =    -0.00074040    0.00327368   -0.02792390
     atom   13 type  1   force =     0.00962041   -0.00422345    0.00056004
     atom   14 type  1   force =     0.02645748   -0.01196156   -0.00138057
     atom   15 type  1   force =     0.00484462   -0.00274882   -0.00279867
     atom   16 type  1   force =    -0.02824660   -0.00983642   -0.00823091
     atom   17 type  1   force =     0.00858506    0.05154513   -0.05583383
     atom   18 type  1   force =    -0.00605372    0.01453420   -0.02916387
     atom   19 type  1   force =    -0.01488383    0.03409848   -0.01792408
     atom   20 type  1   force =    -0.00253410    0.02776169    0.00094668
     atom   21 type  1   force =     0.01163340   -0.01552147    0.01570412
     atom   22 type  1   force =    -0.02596587    0.00177307   -0.00280610
     atom   23 type  1   force =     0.03533203   -0.01817060    0.00344951
     atom   24 type  1   force =    -0.04096126   -0.03327180    0.00153992
     atom   25 type  1   force =    -0.01397475    0.00853659    0.01863587
     atom   26 type  1   force =    -0.02413942   -0.01039328    0.00730675
     atom   27 type  1   force =    -0.01766729   -0.03246363    0.03158794
     atom   28 type  1   force =     0.00959991    0.03732581   -0.01582965
     atom   29 type  1   force =     0.00457613    0.02522896    0.01311200
     atom   30 type  1   force =    -0.01415241   -0.02516441   -0.03038771
     atom   31 type  1   force =     0.00948830   -0.00936459    0.01399901
     atom   32 type  1   force =     0.03407439    0.01136735   -0.00463820
     atom   33 type  1   force =    -0.01408185   -0.01006824    0.02715839
     atom   34 type  1   force =    -0.00772694    0.02763900    0.00235911
     atom   35 type  1   force =     0.01693613    0.02699694    0.02592570
     atom   36 type  1   force =     0.02405543   -0.02672489    0.01063985
     atom   37 type  1   force =    -0.01821181   -0.02800181   -0.01381287
     atom   38 type  1   force =    -0.00290698    0.01594863    0.00613718
     atom   39 type  1   force =    -0.02097357    0.00882048    0.02044531
     atom   40 type  1   force =    -0.08581750   -0.00836680    0.00420524
     atom   41 type  1   force =     0.01329793   -0.00121311    0.00344939
     atom   42 type  1   force =    -0.02428320    0.00940748    0.00844335
     atom   43 type  1   force =     0.01276662    0.02885511   -0.00055488
     atom   44 type  1   force =     0.03613371    0.00544574    0.00409898
     atom   45 type  1   force =    -0.03326893    0.00180139   -0.00889034
     atom   46 type  1   force =    -0.00278380   -0.01108204   -0.01906018
     atom   47 type  1   force =    -0.00231255   -0.00474202    0.01244611
     atom   48 type  1   force =     0.00459037   -0.03063853   -0.02122094
     atom   49 type  1   force =     0.00066029   -0.00707046   -0.03401522
     atom   50 type  1   force =     0.00183952    0.03651780   -0.00435840
     atom   51 type  1   force =     0.00337235    0.01142052   -0.02036526
     atom   52 type  1   force =     0.01105057    0.00627946    0.03362833
     atom   53 type  1   force =    -0.00186421    0.02152774   -0.00056816
     atom   54 type  1   force =     0.00480896   -0.00814028   -0.01085134
     atom   55 type  1   force =    -0.02253724   -0.00320463    0.02906436
     atom   56 type  1   force =    -0.00596204   -0.00821116    0.00071365
     atom   57 type  1   force =     0.00193274   -0.01426657    0.00424658
     atom   58 type  1   force =     0.02224925   -0.03083489    0.03682381
     atom   59 type  1   force =     0.01130287    0.01513856   -0.00628196
     atom   60 type  1   force =     0.06801966    0.02783220   -0.00423951
     atom   61 type  1   force =    -0.00651391   -0.00730531   -0.00079839
     atom   62 type  1   force =    -0.00120174   -0.02274628   -0.00765591
     atom   63 type  1   force =     0.01642669    0.00852546    0.00191275
     atom   64 type  1   force =     0.00565173   -0.00884537   -0.00965159

     Total force =     0.273491     Total SCF correction =     0.001818


     Computing stress (Cartesian axis) and pressure

          total   stress  (Ry/bohr**3)                   (kbar)     P=      -29.23
  -0.00021422   0.00000623  -0.00001564          -31.51        0.92       -2.30
   0.00000623  -0.00016293  -0.00001325            0.92      -23.97       -1.95
  -0.00001564  -0.00001325  -0.00021889           -2.30       -1.95      -32.20

 
     init_run     :      1.05s CPU      4.93s WALL (       1 calls)
     electrons    :      2.07s CPU      2.23s WALL (       1 calls)
     forces       :      0.03s CPU      0.04s WALL (       1 calls)
     stress       :      0.15s CPU      0.15s WALL (       1 calls)

     Called by init_run:
     wfcinit      :      0.51s CPU      4.20s WALL (       1 calls)
                                        4.20s GPU  (       1 calls)
     potinit      :      0.05s CPU      0.15s WALL (       1 calls)
     hinit0       :      0.47s CPU      0.50s WALL (       1 calls)

     Called by electrons:
     c_bands      :      1.26s CPU      1.34s WALL (      20 calls)
     sum_band     :      0.40s CPU      0.45s WALL (      20 calls)
     v_of_rho     :      0.19s CPU      0.30s WALL (      20 calls)
     mix_rho      :      0.19s CPU      0.20s WALL (      20 calls)

     Called by c_bands:
     init_us_2    :      0.07s CPU      0.08s WALL (      41 calls)
     init_us_2:gp :      0.07s CPU      0.08s WALL (      41 calls)
     regterg      :      1.09s CPU      1.16s WALL (      20 calls)

     Called by *egterg:
     rdiaghg      :      0.47s CPU      1.22s WALL (      94 calls)
                                        1.20s GPU  (      94 calls)
     h_psi        :      0.95s CPU      3.93s WALL (      96 calls)
                                        3.92s GPU  (      96 calls)
     g_psi        :      0.00s CPU      0.00s WALL (      75 calls)
                                        0.00s GPU  (      75 calls)

     Called by h_psi:
     h_psi:calbec :      0.48s CPU      3.38s WALL (      96 calls)
                                        3.38s GPU  (      96 calls)
     vloc_psi     :      0.41s CPU      0.48s WALL (      96 calls)
                                        0.47s GPU  (      96 calls)
     add_vuspsi   :      0.04s CPU      0.06s WALL (      96 calls)
                                        0.06s GPU  (      96 calls)

     General routines
     calbec       :      0.48s CPU      3.39s WALL (     101 calls)
     fft          :      0.62s CPU      0.77s WALL (     167 calls)
                                        0.14s GPU  (     106 calls)
     ffts         :      0.05s CPU      0.05s WALL (      20 calls)
     fftw         :      0.49s CPU      0.64s WALL (    2126 calls)
                                        0.56s GPU  (    2126 calls)
 
     Parallel routines
 
     PWSCF        :      3.35s CPU      7.44s WALL

 
   This run was terminated on:  10:55: 6  10May2023            

=------------------------------------------------------------------------------=
   JOB DONE.
=------------------------------------------------------------------------------=
