An instance of this daemon is already running
An instance of this daemon is already running

     Program PWSCF v.7.1 starts on 10May2023 at 10:59:30 

     This program is part of the open-source Quantum ESPRESSO suite
     for quantum simulation of materials; please cite
         "P. Giannozzi et al., J. Phys.:Condens. Matter 21 395502 (2009);
         "P. Giannozzi et al., J. Phys.:Condens. Matter 29 465901 (2017);
         "P. Giannozzi et al., J. Chem. Phys. 152 154105 (2020);
          URL http://www.quantum-espresso.org", 
     in publications or presentations arising from this work. More details at
     http://www.quantum-espresso.org/quote

     Parallel version (MPI & OpenMP), running on       4 processor cores
     Number of MPI processes:                 4
     Threads/MPI process:                     1

     MPI processes distributed on     1 nodes
     753549 MiB available memory on the printing compute node when the environment starts
 
     Reading input from pw-si-34.in
Warning: card &CELL ignored
Warning: card / ignored

     Current dimensions of program PWSCF are:
     Max number of different atomic species (ntypx) = 10
     Max number of k-points (npk) =  40000
     Max angular momentum in pseudopotentials (lmaxx) =  4

     IMPORTANT: XC functional enforced from input :
     Exchange-correlation= PBE
                           (   1   4   3   4   0   0   0)
     Any further DFT definition will be discarded
     Please, verify this is what you really want


     gamma-point specific algorithms are used
 
     K-points division:     npool     =       2
     R & G space division:  proc/nbgrp/npool/nimage =       2
     Subspace diagonalization in iterative solution of the eigenvalue problem:
     a serial algorithm will be used

     Message from routine divide_et_impera:
     suboptimal parallelization: some nodes have no k-points
 
     Parallelization info
     --------------------
     sticks:   dense  smooth     PW     G-vecs:    dense   smooth      PW
     Min        1933    1933    515                90495    90495   12286
     Max        1936    1936    518                90500    90500   12287
     Sum        3869    3869   1033               180995   180995   24573
 
     Using Slab Decomposition
 


     bravais-lattice index     =            0
     lattice parameter (alat)  =      20.1179  a.u.
     unit-cell volume          =    8142.2776 (a.u.)^3
     number of atoms/cell      =           64
     number of atomic types    =            1
     number of electrons       =       256.00
     number of Kohn-Sham states=          154
     kinetic-energy cutoff     =      30.0000  Ry
     charge density cutoff     =     120.0000  Ry
     scf convergence threshold =      1.0E-06
     mixing beta               =       0.5000
     number of iterations used =            8  plain     mixing
     Exchange-correlation= PBE
                           (   1   4   3   4   0   0   0)

     GPU acceleration is ACTIVE.
     GPU-aware MPI enabled

     Message from routine print_cuda_info:
     High GPU oversubscription detected. Are you sure this is what you want?

     celldm(1)=  20.117869  celldm(2)=   0.000000  celldm(3)=   0.000000
     celldm(4)=   0.000000  celldm(5)=   0.000000  celldm(6)=   0.000000

     crystal axes: (cart. coord. in units of alat)
               a(1) = (   1.000000   0.000000   0.000000 )  
               a(2) = (   0.000000   1.000000   0.000000 )  
               a(3) = (   0.000000   0.000000   1.000000 )  

     reciprocal axes: (cart. coord. in units 2 pi/alat)
               b(1) = (  1.000000  0.000000  0.000000 )  
               b(2) = (  0.000000  1.000000  0.000000 )  
               b(3) = (  0.000000  0.000000  1.000000 )  


     PseudoPot. # 1 for Si read from file:
     /home/ppiaggi/pseudos/Si_ONCV_PBE_sr.upf
     MD5 check sum: 8553c464762ac42b85b1eed164b4d029
     Pseudo is Norm-conserving, Zval =  4.0
     Generated using ONCVPSP code by D. R. Hamann
     Using radial grid of 1510 points,  4 beta functions with: 
                l(1) =   0
                l(2) =   0
                l(3) =   1
                l(4) =   1

     atomic species   valence    mass     pseudopotential
        Si             4.00    28.08500     Si( 1.00)

     No symmetry found



   Cartesian axes

     site n.     atom                  positions (alat units)
         1           Si  tau(   1) = (   0.4713750   0.2118540   0.1860300  )
         2           Si  tau(   2) = (   0.5009060   0.4798500   0.1861910  )
         3           Si  tau(   3) = (   0.7728860   0.7377840   0.3538340  )
         4           Si  tau(   4) = (   0.9869820   0.6159820   0.6876590  )
         5           Si  tau(   5) = (   0.0843483   0.4236350   0.7753940  )
         6           Si  tau(   6) = (   0.9672530   0.8522630   0.0266295  )
         7           Si  tau(   7) = (   0.2898970   0.8532860   0.6274330  )
         8           Si  tau(   8) = (   0.7945290   0.0326823   0.7987810  )
         9           Si  tau(   9) = (   0.7545100   0.1238330   0.1988720  )
        10           Si  tau(  10) = (   0.6014840   0.3444490   0.5487820  )
        11           Si  tau(  11) = (   0.1659060   0.2590210   0.3842380  )
        12           Si  tau(  12) = (   0.7172850   0.3484790   0.7843530  )
        13           Si  tau(  13) = (   0.7562520   0.9592290   0.0192749  )
        14           Si  tau(  14) = (   0.2354040   0.1247100   0.8959590  )
        15           Si  tau(  15) = (   0.5846840   0.7585090   0.0987079  )
        16           Si  tau(  16) = (   0.5909230   0.3391640   0.9962660  )
        17           Si  tau(  17) = (   0.0844019   0.5713800   0.2413710  )
        18           Si  tau(  18) = (   0.7902340   0.5180400   0.6594350  )
        19           Si  tau(  19) = (   0.4881580   0.5542500   0.4608100  )
        20           Si  tau(  20) = (   0.0599067   0.6079770   0.9712790  )
        21           Si  tau(  21) = (   0.7422590   0.5969350   0.0808819  )
        22           Si  tau(  22) = (   0.8686450   0.4510710   0.4470350  )
        23           Si  tau(  23) = (   0.9300290   0.3062780   0.8445600  )
        24           Si  tau(  24) = (   0.7968420   0.8959110   0.5195930  )
        25           Si  tau(  25) = (   0.2968490   0.5030680   0.9238180  )
        26           Si  tau(  26) = (   0.4375260   0.2309930   0.7127820  )
        27           Si  tau(  27) = (   0.0236262   0.1434070   0.5577230  )
        28           Si  tau(  28) = (   0.2696700   0.0731126   0.3472960  )
        29           Si  tau(  29) = (   0.9359100   0.7413430   0.2151770  )
        30           Si  tau(  30) = (   0.3150040   0.6338740   0.7149310  )
        31           Si  tau(  31) = (   0.4056800   0.9684590   0.1815950  )
        32           Si  tau(  32) = (   0.4346000   0.2934050   0.3905240  )
        33           Si  tau(  33) = (   0.0936149   0.9284890   0.2637160  )
        34           Si  tau(  34) = (   0.4293930   0.0852119   0.5068880  )
        35           Si  tau(  35) = (   0.6849600   0.5001000   0.3336220  )
        36           Si  tau(  36) = (   0.0238533   0.8809930   0.7431140  )
        37           Si  tau(  37) = (   0.5567250   0.5536780   0.8875250  )
        38           Si  tau(  38) = (   0.6548950   0.0966675   0.4256670  )
        39           Si  tau(  39) = (   0.2446680   0.7418270   0.2137390  )
        40           Si  tau(  40) = (   0.8285970   0.7119050   0.8762400  )
        41           Si  tau(  41) = (   0.1980360   0.7719700   0.4600670  )
        42           Si  tau(  42) = (   0.9103700   0.2426580   0.3605910  )
        43           Si  tau(  43) = (   0.0054525   0.1153740   0.1466840  )
        44           Si  tau(  44) = (   0.2185260   0.3093630   0.6449300  )
        45           Si  tau(  45) = (   0.7135960   0.8215770   0.7095000  )
        46           Si  tau(  46) = (   0.2299110   0.7708730   0.8803490  )
        47           Si  tau(  47) = (   0.9961220   0.0970167   0.9035870  )
        48           Si  tau(  48) = (   0.3894760   0.6420060   0.0686878  )
        49           Si  tau(  49) = (   0.2164610   0.0489574   0.6781160  )
        50           Si  tau(  50) = (   0.3369840   0.9159850   0.9741900  )
        51           Si  tau(  51) = (   0.3121480   0.2912930   0.0435240  )
        52           Si  tau(  52) = (   0.1420580   0.3244000   0.1799270  )
        53           Si  tau(  53) = (   0.4575210   0.7493280   0.3519280  )
        54           Si  tau(  54) = (   0.9540280   0.4063150   0.0568528  )
        55           Si  tau(  55) = (   0.0508159   0.5815670   0.4565990  )
        56           Si  tau(  56) = (   0.5480080   0.8933670   0.8869340  )
        57           Si  tau(  57) = (   0.5819870   0.1420830   0.8513710  )
        58           Si  tau(  58) = (   0.7922700   0.1657620   0.6079800  )
        59           Si  tau(  59) = (   0.7618330   0.3476180   0.1555190  )
        60           Si  tau(  60) = (   0.0166552   0.8999520   0.5057260  )
        61           Si  tau(  61) = (   0.2476940   0.4723730   0.5137030  )
        62           Si  tau(  62) = (   0.5066920   0.8662240   0.5375990  )
        63           Si  tau(  63) = (   0.6258770   0.8838680   0.2906740  )
        64           Si  tau(  64) = (   0.5490310   0.6458820   0.6651310  )

     number of k points=     1  Fermi-Dirac smearing, width (Ry)=  0.0100
                       cart. coord. in units 2pi/alat
        k(    1) = (   0.0000000   0.0000000   0.0000000), wk =   2.0000000

     Dense  grid:    90498 G-vectors     FFT dimensions: (  72,  72,  72)

     Estimated max dynamical RAM per process >     145.14 MB

     Estimated total dynamical RAM >     558.46 MB

     Initial potential from superposition of free atoms

     starting charge     255.9608, renormalised to     256.0000
     Starting wfcs are  256 randomized atomic wfcs

     total cpu time spent up to now is        5.0 secs

     Self-consistent Calculation

     iteration #  1     ecut=    30.00 Ry     beta= 0.50
     Davidson diagonalization with overlap
     ethr =  1.00E-02,  avg # of iterations =  3.0

     Threshold (ethr) on eigenvalues was too large:
     Diagonalizing with lowered threshold

     Davidson diagonalization with overlap
     ethr =  3.89E-04,  avg # of iterations =  4.0

     total cpu time spent up to now is        5.3 secs

     total energy              =    -501.31366826 Ry
     estimated scf accuracy    <       1.19551625 Ry

     iteration #  2     ecut=    30.00 Ry     beta= 0.50
     Davidson diagonalization with overlap
     ethr =  4.67E-04,  avg # of iterations =  4.0

     total cpu time spent up to now is        5.4 secs

     total energy              =    -500.98505652 Ry
     estimated scf accuracy    <       3.34595784 Ry

     iteration #  3     ecut=    30.00 Ry     beta= 0.50
     Davidson diagonalization with overlap
     ethr =  4.67E-04,  avg # of iterations =  3.0

     total cpu time spent up to now is        5.5 secs

     total energy              =    -501.30933804 Ry
     estimated scf accuracy    <       2.41074330 Ry

     iteration #  4     ecut=    30.00 Ry     beta= 0.50
     Davidson diagonalization with overlap
     ethr =  4.67E-04,  avg # of iterations =  2.0

     total cpu time spent up to now is        5.6 secs

     total energy              =    -501.46445797 Ry
     estimated scf accuracy    <       0.54039784 Ry

     iteration #  5     ecut=    30.00 Ry     beta= 0.50
     Davidson diagonalization with overlap
     ethr =  2.11E-04,  avg # of iterations =  2.0

     total cpu time spent up to now is        5.7 secs

     total energy              =    -501.48929244 Ry
     estimated scf accuracy    <       0.52284211 Ry

     iteration #  6     ecut=    30.00 Ry     beta= 0.50
     Davidson diagonalization with overlap
     ethr =  2.04E-04,  avg # of iterations =  2.0

     total cpu time spent up to now is        5.8 secs

     total energy              =    -501.53417064 Ry
     estimated scf accuracy    <       0.07960768 Ry

     iteration #  7     ecut=    30.00 Ry     beta= 0.50
     Davidson diagonalization with overlap
     ethr =  3.11E-05,  avg # of iterations =  2.0

     total cpu time spent up to now is        5.9 secs

     total energy              =    -501.54347031 Ry
     estimated scf accuracy    <       0.01879815 Ry

     iteration #  8     ecut=    30.00 Ry     beta= 0.50
     Davidson diagonalization with overlap
     ethr =  7.34E-06,  avg # of iterations = 19.0

     total cpu time spent up to now is        6.1 secs

     total energy              =    -501.54504327 Ry
     estimated scf accuracy    <       0.02277513 Ry

     iteration #  9     ecut=    30.00 Ry     beta= 0.50
     Davidson diagonalization with overlap
     ethr =  7.34E-06,  avg # of iterations =  2.0

     total cpu time spent up to now is        6.2 secs

     total energy              =    -501.54683491 Ry
     estimated scf accuracy    <       0.00130078 Ry

     iteration # 10     ecut=    30.00 Ry     beta= 0.50
     Davidson diagonalization with overlap
     ethr =  5.08E-07,  avg # of iterations =  5.0

     total cpu time spent up to now is        6.3 secs

     total energy              =    -501.54694983 Ry
     estimated scf accuracy    <       0.00277562 Ry

     iteration # 11     ecut=    30.00 Ry     beta= 0.50
     Davidson diagonalization with overlap
     ethr =  5.08E-07,  avg # of iterations =  3.0

     total cpu time spent up to now is        6.4 secs

     total energy              =    -501.54716522 Ry
     estimated scf accuracy    <       0.00059263 Ry

     iteration # 12     ecut=    30.00 Ry     beta= 0.50
     Davidson diagonalization with overlap
     ethr =  2.31E-07,  avg # of iterations =  2.0

     total cpu time spent up to now is        6.5 secs

     total energy              =    -501.54720983 Ry
     estimated scf accuracy    <       0.00016240 Ry

     iteration # 13     ecut=    30.00 Ry     beta= 0.50
     Davidson diagonalization with overlap
     ethr =  6.34E-08,  avg # of iterations =  3.0

     total cpu time spent up to now is        6.6 secs

     total energy              =    -501.54721711 Ry
     estimated scf accuracy    <       0.00027801 Ry

     iteration # 14     ecut=    30.00 Ry     beta= 0.50
     Davidson diagonalization with overlap
     ethr =  6.34E-08,  avg # of iterations =  2.0

     total cpu time spent up to now is        6.7 secs

     total energy              =    -501.54723540 Ry
     estimated scf accuracy    <       0.00001452 Ry

     iteration # 15     ecut=    30.00 Ry     beta= 0.50
     Davidson diagonalization with overlap
     ethr =  5.67E-09,  avg # of iterations =  5.0

     total cpu time spent up to now is        6.9 secs

     total energy              =    -501.54723688 Ry
     estimated scf accuracy    <       0.00003233 Ry

     iteration # 16     ecut=    30.00 Ry     beta= 0.50
     Davidson diagonalization with overlap
     ethr =  5.67E-09,  avg # of iterations =  3.0

     total cpu time spent up to now is        7.0 secs

     total energy              =    -501.54723937 Ry
     estimated scf accuracy    <       0.00000905 Ry

     iteration # 17     ecut=    30.00 Ry     beta= 0.50
     Davidson diagonalization with overlap
     ethr =  3.54E-09,  avg # of iterations =  2.0

     total cpu time spent up to now is        7.0 secs

     total energy              =    -501.54723976 Ry
     estimated scf accuracy    <       0.00000168 Ry

     iteration # 18     ecut=    30.00 Ry     beta= 0.50
     Davidson diagonalization with overlap
     ethr =  6.56E-10,  avg # of iterations =  4.0

     total cpu time spent up to now is        7.2 secs

     total energy              =    -501.54723984 Ry
     estimated scf accuracy    <       0.00000578 Ry

     iteration # 19     ecut=    30.00 Ry     beta= 0.50
     Davidson diagonalization with overlap
     ethr =  6.56E-10,  avg # of iterations =  3.0

     total cpu time spent up to now is        7.3 secs

     End of self-consistent calculation

          k = 0.0000 0.0000 0.0000 ( 11324 PWs)   bands (ev):

    -5.3475  -4.3734  -4.3250  -4.2442  -4.1474  -4.0511  -3.9217  -3.4158
    -3.2591  -3.1521  -3.1455  -3.0761  -3.0478  -2.9761  -2.8044  -2.7512
    -2.7318  -2.6072  -2.4483  -2.2153  -2.0909  -1.8969  -1.8527  -1.7823
    -1.6654  -1.3409  -1.2298  -1.0086  -0.8078  -0.6380  -0.6147  -0.4588
    -0.2748  -0.1971  -0.0584  -0.0143   0.1017   0.1367   0.1687   0.2169
     0.3278   0.3463   0.5628   0.5971   0.7071   0.7587   0.8248   0.9600
     1.0083   1.1537   1.2026   1.2608   1.3577   1.4479   1.5262   1.5759
     1.7455   1.7911   1.9083   2.0679   2.1498   2.2649   2.2976   2.4240
     2.4984   2.6703   2.6915   2.8093   2.9030   2.9554   2.9908   3.0304
     3.1227   3.1605   3.2105   3.3160   3.4188   3.5559   3.5906   3.7290
     3.7657   4.1585   4.2128   4.3031   4.3643   4.4333   4.4656   4.6551
     4.6964   4.7319   4.7760   4.9036   4.9680   5.0727   5.1143   5.1433
     5.2394   5.2734   5.3949   5.4273   5.5062   5.5717   5.6226   5.6555
     5.7500   5.7854   5.8405   5.8767   5.9041   6.0354   6.1152   6.1229
     6.2433   6.3026   6.3226   6.3961   6.4301   6.5131   6.5459   6.6035
     6.6805   6.7154   6.7782   6.8942   6.9010   6.9795   7.0491   7.0722
     7.1122   7.2599   7.3457   7.3636   7.4228   7.4451   7.5335   7.6461
     7.7092   7.7231   7.7510   7.8293   7.9211   7.9593   8.0334   8.0835
     8.1559   8.1967   8.2715   8.3321   8.4302   8.4999   8.5275   8.5639
     8.6261   8.8087

     the Fermi energy is     7.1345 ev

!    total energy              =    -501.54723996 Ry
     estimated scf accuracy    <       0.00000037 Ry
     smearing contrib. (-TS)   =      -0.14177756 Ry
     internal energy E=F+TS    =    -501.40546239 Ry

     The total energy is F=E-TS. E is the sum of the following terms:
     one-electron contribution =     190.43568430 Ry
     hartree contribution      =      22.93922837 Ry
     xc contribution           =    -150.98195700 Ry
     ewald contribution        =    -563.79841806 Ry

     convergence has been achieved in  19 iterations

     Forces acting on atoms (cartesian axes, Ry/au):

     atom    1 type  1   force =    -0.00568742   -0.02221000   -0.02303723
     atom    2 type  1   force =     0.02230893   -0.03213591    0.01097171
     atom    3 type  1   force =    -0.00697260   -0.04162208    0.00811296
     atom    4 type  1   force =     0.00565355    0.00828541    0.02078798
     atom    5 type  1   force =     0.04175055    0.06428501   -0.00416305
     atom    6 type  1   force =    -0.04263047   -0.00183077   -0.03450620
     atom    7 type  1   force =     0.06348692   -0.00854869    0.04197962
     atom    8 type  1   force =     0.00705549   -0.01931423    0.00549975
     atom    9 type  1   force =     0.01057846   -0.00719835    0.01253049
     atom   10 type  1   force =     0.00716415   -0.00546468    0.00968234
     atom   11 type  1   force =    -0.01057102    0.02712325    0.04858686
     atom   12 type  1   force =     0.00387510   -0.02851416   -0.01843097
     atom   13 type  1   force =     0.00220568    0.00301181    0.00442670
     atom   14 type  1   force =    -0.01362271   -0.03360802    0.00886723
     atom   15 type  1   force =    -0.01085853    0.01223828   -0.02543259
     atom   16 type  1   force =    -0.00659231    0.00231681    0.01117784
     atom   17 type  1   force =     0.00765143    0.01624157   -0.02812403
     atom   18 type  1   force =    -0.01700585   -0.00546639   -0.02835852
     atom   19 type  1   force =    -0.00805550   -0.02643938   -0.01283316
     atom   20 type  1   force =     0.00396845    0.00571927   -0.02460023
     atom   21 type  1   force =     0.00368861    0.00439034    0.00435790
     atom   22 type  1   force =    -0.01374661   -0.01564402    0.01703229
     atom   23 type  1   force =    -0.04143961   -0.04657746    0.04873394
     atom   24 type  1   force =    -0.02240235    0.00493286   -0.01280232
     atom   25 type  1   force =     0.00293058   -0.01895166   -0.02505231
     atom   26 type  1   force =    -0.01861177    0.00148418   -0.07007097
     atom   27 type  1   force =     0.00707407   -0.01176424   -0.02031677
     atom   28 type  1   force =     0.02122542   -0.04266839   -0.01852436
     atom   29 type  1   force =     0.01402159   -0.01790705   -0.00165384
     atom   30 type  1   force =     0.02034981   -0.01124673    0.00273474
     atom   31 type  1   force =     0.00448454    0.01993202    0.04006460
     atom   32 type  1   force =    -0.01414698    0.00778392   -0.01142773
     atom   33 type  1   force =     0.00976598   -0.01189510    0.01668049
     atom   34 type  1   force =    -0.00126179   -0.00462471    0.03237518
     atom   35 type  1   force =    -0.00986187    0.03406912   -0.03817825
     atom   36 type  1   force =     0.01111414   -0.00822698    0.01847290
     atom   37 type  1   force =    -0.01384524   -0.01898844    0.01832966
     atom   38 type  1   force =     0.02681685   -0.02814730   -0.02059771
     atom   39 type  1   force =     0.02008237    0.00781753    0.04420141
     atom   40 type  1   force =     0.04385200    0.00422480    0.00781058
     atom   41 type  1   force =    -0.04335566   -0.04071517   -0.07188669
     atom   42 type  1   force =     0.01010348   -0.00124420    0.01229928
     atom   43 type  1   force =    -0.01557447    0.00134247   -0.00741595
     atom   44 type  1   force =     0.01170842   -0.04185502    0.00810164
     atom   45 type  1   force =    -0.02516471   -0.00143697    0.04007344
     atom   46 type  1   force =    -0.10321652   -0.08683528   -0.06025899
     atom   47 type  1   force =     0.00947445    0.01757043    0.01833436
     atom   48 type  1   force =     0.00929860    0.01783831    0.01673670
     atom   49 type  1   force =    -0.02049115    0.03676363    0.01308105
     atom   50 type  1   force =     0.05620228    0.10627672    0.02070052
     atom   51 type  1   force =     0.00012924    0.01282148   -0.01813554
     atom   52 type  1   force =    -0.04695693    0.00781634   -0.03189480
     atom   53 type  1   force =    -0.04589104   -0.00436145   -0.01476218
     atom   54 type  1   force =     0.01020195    0.00562144   -0.00657041
     atom   55 type  1   force =     0.02943670    0.01840921    0.02093043
     atom   56 type  1   force =     0.01970177    0.01855788    0.01539589
     atom   57 type  1   force =     0.03069608    0.00388284    0.03028623
     atom   58 type  1   force =     0.00562299    0.01999823   -0.00075257
     atom   59 type  1   force =    -0.00255425    0.02379807    0.00468715
     atom   60 type  1   force =     0.01397882    0.03958430   -0.00171595
     atom   61 type  1   force =     0.02956645    0.02739755   -0.02465351
     atom   62 type  1   force =    -0.02528405    0.01059163    0.01109366
     atom   63 type  1   force =    -0.03204849    0.03382162   -0.01632934
     atom   64 type  1   force =     0.02062399    0.01949447    0.02734866

     Total force =     0.372121     Total SCF correction =     0.001183


     Computing stress (Cartesian axis) and pressure

          total   stress  (Ry/bohr**3)                   (kbar)     P=      -29.41
  -0.00021192   0.00002171  -0.00000012          -31.17        3.19       -0.02
   0.00002171  -0.00018764  -0.00004843            3.19      -27.60       -7.12
  -0.00000012  -0.00004843  -0.00020030           -0.02       -7.12      -29.47

 
     init_run     :      1.14s CPU      4.96s WALL (       1 calls)
     electrons    :      2.07s CPU      2.23s WALL (       1 calls)
     forces       :      0.04s CPU      0.04s WALL (       1 calls)
     stress       :      0.15s CPU      0.15s WALL (       1 calls)

     Called by init_run:
     wfcinit      :      0.58s CPU      4.24s WALL (       1 calls)
                                        4.24s GPU  (       1 calls)
     potinit      :      0.06s CPU      0.15s WALL (       1 calls)
     hinit0       :      0.47s CPU      0.50s WALL (       1 calls)

     Called by electrons:
     c_bands      :      1.25s CPU      1.33s WALL (      20 calls)
     sum_band     :      0.40s CPU      0.44s WALL (      20 calls)
     v_of_rho     :      0.20s CPU      0.30s WALL (      20 calls)
     mix_rho      :      0.19s CPU      0.21s WALL (      20 calls)

     Called by c_bands:
     init_us_2    :      0.07s CPU      0.08s WALL (      41 calls)
     init_us_2:gp :      0.07s CPU      0.08s WALL (      41 calls)
     regterg      :      1.07s CPU      1.14s WALL (      20 calls)

     Called by *egterg:
     rdiaghg      :      0.45s CPU      1.21s WALL (      94 calls)
                                        1.19s GPU  (      94 calls)
     h_psi        :      1.02s CPU      3.96s WALL (      96 calls)
                                        3.95s GPU  (      96 calls)
     g_psi        :      0.00s CPU      0.00s WALL (      75 calls)
                                        0.00s GPU  (      75 calls)

     Called by h_psi:
     h_psi:calbec :      0.55s CPU      3.41s WALL (      96 calls)
                                        3.41s GPU  (      96 calls)
     vloc_psi     :      0.41s CPU      0.48s WALL (      96 calls)
                                        0.48s GPU  (      96 calls)
     add_vuspsi   :      0.04s CPU      0.06s WALL (      96 calls)
                                        0.06s GPU  (      96 calls)

     General routines
     calbec       :      0.55s CPU      3.41s WALL (     101 calls)
     fft          :      0.64s CPU      0.77s WALL (     167 calls)
                                        0.14s GPU  (     106 calls)
     ffts         :      0.05s CPU      0.05s WALL (      20 calls)
     fftw         :      0.49s CPU      0.64s WALL (    2122 calls)
                                        0.56s GPU  (    2122 calls)
 
     Parallel routines
 
     PWSCF        :      3.44s CPU      7.46s WALL

 
   This run was terminated on:  10:59:38  10May2023            

=------------------------------------------------------------------------------=
   JOB DONE.
=------------------------------------------------------------------------------=
