An instance of this daemon is already running
An instance of this daemon is already running

     Program PWSCF v.7.1 starts on 10May2023 at 11: 7: 7 

     This program is part of the open-source Quantum ESPRESSO suite
     for quantum simulation of materials; please cite
         "P. Giannozzi et al., J. Phys.:Condens. Matter 21 395502 (2009);
         "P. Giannozzi et al., J. Phys.:Condens. Matter 29 465901 (2017);
         "P. Giannozzi et al., J. Chem. Phys. 152 154105 (2020);
          URL http://www.quantum-espresso.org", 
     in publications or presentations arising from this work. More details at
     http://www.quantum-espresso.org/quote

     Parallel version (MPI & OpenMP), running on       4 processor cores
     Number of MPI processes:                 4
     Threads/MPI process:                     1

     MPI processes distributed on     1 nodes
     753581 MiB available memory on the printing compute node when the environment starts
 
     Reading input from pw-si-81.in
Warning: card &CELL ignored
Warning: card / ignored

     Current dimensions of program PWSCF are:
     Max number of different atomic species (ntypx) = 10
     Max number of k-points (npk) =  40000
     Max angular momentum in pseudopotentials (lmaxx) =  4

     IMPORTANT: XC functional enforced from input :
     Exchange-correlation= PBE
                           (   1   4   3   4   0   0   0)
     Any further DFT definition will be discarded
     Please, verify this is what you really want


     gamma-point specific algorithms are used
 
     K-points division:     npool     =       2
     R & G space division:  proc/nbgrp/npool/nimage =       2
     Subspace diagonalization in iterative solution of the eigenvalue problem:
     a serial algorithm will be used

     Message from routine divide_et_impera:
     suboptimal parallelization: some nodes have no k-points
 
     Parallelization info
     --------------------
     sticks:   dense  smooth     PW     G-vecs:    dense   smooth      PW
     Min        1953    1953    519                91863    91863   12442
     Max        1956    1956    522                91868    91868   12443
     Sum        3909    3909   1041               183731   183731   24885
 
     Using Slab Decomposition
 


     bravais-lattice index     =            0
     lattice parameter (alat)  =      20.2329  a.u.
     unit-cell volume          =    8282.7537 (a.u.)^3
     number of atoms/cell      =           64
     number of atomic types    =            1
     number of electrons       =       256.00
     number of Kohn-Sham states=          154
     kinetic-energy cutoff     =      30.0000  Ry
     charge density cutoff     =     120.0000  Ry
     scf convergence threshold =      1.0E-06
     mixing beta               =       0.5000
     number of iterations used =            8  plain     mixing
     Exchange-correlation= PBE
                           (   1   4   3   4   0   0   0)

     GPU acceleration is ACTIVE.
     GPU-aware MPI enabled

     Message from routine print_cuda_info:
     High GPU oversubscription detected. Are you sure this is what you want?

     celldm(1)=  20.232905  celldm(2)=   0.000000  celldm(3)=   0.000000
     celldm(4)=   0.000000  celldm(5)=   0.000000  celldm(6)=   0.000000

     crystal axes: (cart. coord. in units of alat)
               a(1) = (   1.000000   0.000000   0.000000 )  
               a(2) = (   0.000000   1.000000   0.000000 )  
               a(3) = (   0.000000   0.000000   1.000000 )  

     reciprocal axes: (cart. coord. in units 2 pi/alat)
               b(1) = (  1.000000  0.000000  0.000000 )  
               b(2) = (  0.000000  1.000000  0.000000 )  
               b(3) = (  0.000000  0.000000  1.000000 )  


     PseudoPot. # 1 for Si read from file:
     /home/ppiaggi/pseudos/Si_ONCV_PBE_sr.upf
     MD5 check sum: 8553c464762ac42b85b1eed164b4d029
     Pseudo is Norm-conserving, Zval =  4.0
     Generated using ONCVPSP code by D. R. Hamann
     Using radial grid of 1510 points,  4 beta functions with: 
                l(1) =   0
                l(2) =   0
                l(3) =   1
                l(4) =   1

     atomic species   valence    mass     pseudopotential
        Si             4.00    28.08500     Si( 1.00)

     No symmetry found



   Cartesian axes

     site n.     atom                  positions (alat units)
         1           Si  tau(   1) = (   0.0175207   0.5344330   0.2645540  )
         2           Si  tau(   2) = (   0.8476420   0.7385550   0.3228080  )
         3           Si  tau(   3) = (   0.9899930   0.1848680   0.3735690  )
         4           Si  tau(   4) = (   0.2743270   0.9965730   0.0108153  )
         5           Si  tau(   5) = (   0.9115970   0.2210780   0.0106435  )
         6           Si  tau(   6) = (   0.4956160   0.9580580   0.5598600  )
         7           Si  tau(   7) = (   0.4737340   0.3323870   0.5664110  )
         8           Si  tau(   8) = (   0.6710510   0.4248380   0.1445560  )
         9           Si  tau(   9) = (   0.9119880   0.8864650   0.4766330  )
        10           Si  tau(  10) = (   0.7620720   0.1420810   0.7929760  )
        11           Si  tau(  11) = (   0.6594210   0.7742710   0.1570290  )
        12           Si  tau(  12) = (   0.5045980   0.2296420   0.3464170  )
        13           Si  tau(  13) = (   0.8232150   0.6126190   0.7480330  )
        14           Si  tau(  14) = (   0.8450710   0.9111120   0.7835290  )
        15           Si  tau(  15) = (   0.7239510   0.2675690   0.4626180  )
        16           Si  tau(  16) = (   0.6416170   0.9820090   0.9433260  )
        17           Si  tau(  17) = (   0.3578340   0.0936605   0.4564610  )
        18           Si  tau(  18) = (   0.7405470   0.0177667   0.4866790  )
        19           Si  tau(  19) = (   0.8924300   0.1836200   0.6224750  )
        20           Si  tau(  20) = (   0.9964950   0.6961900   0.6054040  )
        21           Si  tau(  21) = (   0.7423770   0.9964500   0.2518820  )
        22           Si  tau(  22) = (   0.1481860   0.9333490   0.4328250  )
        23           Si  tau(  23) = (   0.2450540   0.7721730   0.0786921  )
        24           Si  tau(  24) = (   0.0332905   0.3626550   0.6536360  )
        25           Si  tau(  25) = (   0.6766480   0.5686300   0.3401980  )
        26           Si  tau(  26) = (   0.3683610   0.8037230   0.6733790  )
        27           Si  tau(  27) = (   0.1904160   0.7204950   0.3077920  )
        28           Si  tau(  28) = (   0.2304100   0.6797270   0.5459520  )
        29           Si  tau(  29) = (   0.4312280   0.6009150   0.3740160  )
        30           Si  tau(  30) = (   0.4405460   0.1406780   0.8997710  )
        31           Si  tau(  31) = (   0.7121540   0.8047340   0.6213160  )
        32           Si  tau(  32) = (   0.6285040   0.7659490   0.9050190  )
        33           Si  tau(  33) = (   0.7517850   0.5822960   0.0036590  )
        34           Si  tau(  34) = (   0.1367540   0.2181320   0.9903780  )
        35           Si  tau(  35) = (   0.2265770   0.9561340   0.7684700  )
        36           Si  tau(  36) = (   0.4395560   0.7816780   0.2177300  )
        37           Si  tau(  37) = (   0.0223738   0.0033818   0.6603200  )
        38           Si  tau(  38) = (   0.0082978   0.6191730   0.9944410  )
        39           Si  tau(  39) = (   0.9401760   0.4203970   0.8830420  )
        40           Si  tau(  40) = (   0.2144730   0.5766860   0.7692420  )
        41           Si  tau(  41) = (   0.8634110   0.9723070   0.0550758  )
        42           Si  tau(  42) = (   0.1513900   0.3545640   0.2995220  )
        43           Si  tau(  43) = (   0.0935012   0.0274875   0.2036210  )
        44           Si  tau(  44) = (   0.7726120   0.4703330   0.4896760  )
        45           Si  tau(  45) = (   0.5110280   0.3338090   0.9742870  )
        46           Si  tau(  46) = (   0.5682660   0.1152270   0.6891280  )
        47           Si  tau(  47) = (   0.4180940   0.4717200   0.8468020  )
        48           Si  tau(  48) = (   0.7067850   0.3503280   0.8657810  )
        49           Si  tau(  49) = (   0.5640680   0.1027290   0.1468650  )
        50           Si  tau(  50) = (   0.0527320   0.7793260   0.8374580  )
        51           Si  tau(  51) = (   0.5249210   0.6683630   0.5524900  )
        52           Si  tau(  52) = (   0.8013210   0.2412940   0.1986540  )
        53           Si  tau(  53) = (   0.9804390   0.5223940   0.4896080  )
        54           Si  tau(  54) = (   0.2659050   0.3585600   0.1270770  )
        55           Si  tau(  55) = (   0.1818930   0.3393490   0.8317120  )
        56           Si  tau(  56) = (   0.4488760   0.4267800   0.2217890  )
        57           Si  tau(  57) = (   0.5982910   0.5092670   0.6748270  )
        58           Si  tau(  58) = (   0.2747880   0.4463150   0.4790150  )
        59           Si  tau(  59) = (   0.2368220   0.5512840   0.0268898  )
        60           Si  tau(  60) = (   0.1871980   0.2199720   0.5222270  )
        61           Si  tau(  61) = (   0.9869830   0.8044590   0.1396360  )
        62           Si  tau(  62) = (   0.3745660   0.9977210   0.2356570  )
        63           Si  tau(  63) = (   0.3169380   0.1926100   0.7278080  )
        64           Si  tau(  64) = (   0.4235080   0.7075710   0.8757340  )

     number of k points=     1  Fermi-Dirac smearing, width (Ry)=  0.0100
                       cart. coord. in units 2pi/alat
        k(    1) = (   0.0000000   0.0000000   0.0000000), wk =   2.0000000

     Dense  grid:    91866 G-vectors     FFT dimensions: (  72,  72,  72)

     Estimated max dynamical RAM per process >     147.32 MB

     Estimated total dynamical RAM >     566.85 MB

     Initial potential from superposition of free atoms

     starting charge     255.9608, renormalised to     256.0000
     Starting wfcs are  256 randomized atomic wfcs

     total cpu time spent up to now is        5.0 secs

     Self-consistent Calculation

     iteration #  1     ecut=    30.00 Ry     beta= 0.50
     Davidson diagonalization with overlap
     ethr =  1.00E-02,  avg # of iterations =  3.0

     Threshold (ethr) on eigenvalues was too large:
     Diagonalizing with lowered threshold

     Davidson diagonalization with overlap
     ethr =  3.75E-04,  avg # of iterations =  4.0

     total cpu time spent up to now is        5.3 secs

     total energy              =    -501.34662250 Ry
     estimated scf accuracy    <       1.15256742 Ry

     iteration #  2     ecut=    30.00 Ry     beta= 0.50
     Davidson diagonalization with overlap
     ethr =  4.50E-04,  avg # of iterations =  3.0

     total cpu time spent up to now is        5.4 secs

     total energy              =    -501.03276670 Ry
     estimated scf accuracy    <       3.06701936 Ry

     iteration #  3     ecut=    30.00 Ry     beta= 0.50
     Davidson diagonalization with overlap
     ethr =  4.50E-04,  avg # of iterations =  3.0

     total cpu time spent up to now is        5.5 secs

     total energy              =    -501.31215241 Ry
     estimated scf accuracy    <       2.61717992 Ry

     iteration #  4     ecut=    30.00 Ry     beta= 0.50
     Davidson diagonalization with overlap
     ethr =  4.50E-04,  avg # of iterations =  2.0

     total cpu time spent up to now is        5.6 secs

     total energy              =    -501.48925080 Ry
     estimated scf accuracy    <       0.47446106 Ry

     iteration #  5     ecut=    30.00 Ry     beta= 0.50
     Davidson diagonalization with overlap
     ethr =  1.85E-04,  avg # of iterations =  2.0

     total cpu time spent up to now is        5.7 secs

     total energy              =    -501.52903752 Ry
     estimated scf accuracy    <       0.14320585 Ry

     iteration #  6     ecut=    30.00 Ry     beta= 0.50
     Davidson diagonalization with overlap
     ethr =  5.59E-05,  avg # of iterations =  3.0

     total cpu time spent up to now is        5.8 secs

     total energy              =    -501.54076569 Ry
     estimated scf accuracy    <       0.21017426 Ry

     iteration #  7     ecut=    30.00 Ry     beta= 0.50
     Davidson diagonalization with overlap
     ethr =  5.59E-05,  avg # of iterations =  3.0

     total cpu time spent up to now is        5.9 secs

     total energy              =    -501.55625555 Ry
     estimated scf accuracy    <       0.00752516 Ry

     iteration #  8     ecut=    30.00 Ry     beta= 0.50
     Davidson diagonalization with overlap
     c_bands:  1 eigenvalues not converged
     ethr =  2.94E-06,  avg # of iterations = 20.0

     total cpu time spent up to now is        6.1 secs

     total energy              =    -501.55781640 Ry
     estimated scf accuracy    <       0.00616718 Ry

     iteration #  9     ecut=    30.00 Ry     beta= 0.50
     Davidson diagonalization with overlap
     ethr =  2.41E-06,  avg # of iterations =  2.0

     total cpu time spent up to now is        6.2 secs

     total energy              =    -501.55824974 Ry
     estimated scf accuracy    <       0.00605777 Ry

     iteration # 10     ecut=    30.00 Ry     beta= 0.50
     Davidson diagonalization with overlap
     ethr =  2.37E-06,  avg # of iterations =  1.0

     total cpu time spent up to now is        6.3 secs

     total energy              =    -501.55864536 Ry
     estimated scf accuracy    <       0.00076563 Ry

     iteration # 11     ecut=    30.00 Ry     beta= 0.50
     Davidson diagonalization with overlap
     ethr =  2.99E-07,  avg # of iterations =  2.0

     total cpu time spent up to now is        6.4 secs

     total energy              =    -501.55870814 Ry
     estimated scf accuracy    <       0.00040698 Ry

     iteration # 12     ecut=    30.00 Ry     beta= 0.50
     Davidson diagonalization with overlap
     ethr =  1.59E-07,  avg # of iterations =  3.0

     total cpu time spent up to now is        6.5 secs

     total energy              =    -501.55874552 Ry
     estimated scf accuracy    <       0.00029702 Ry

     iteration # 13     ecut=    30.00 Ry     beta= 0.50
     Davidson diagonalization with overlap
     ethr =  1.16E-07,  avg # of iterations =  2.0

     total cpu time spent up to now is        6.6 secs

     total energy              =    -501.55876358 Ry
     estimated scf accuracy    <       0.00012175 Ry

     iteration # 14     ecut=    30.00 Ry     beta= 0.50
     Davidson diagonalization with overlap
     ethr =  4.76E-08,  avg # of iterations =  2.0

     total cpu time spent up to now is        6.7 secs

     total energy              =    -501.55877307 Ry
     estimated scf accuracy    <       0.00004617 Ry

     iteration # 15     ecut=    30.00 Ry     beta= 0.50
     Davidson diagonalization with overlap
     ethr =  1.80E-08,  avg # of iterations =  2.0

     total cpu time spent up to now is        6.8 secs

     total energy              =    -501.55877509 Ry
     estimated scf accuracy    <       0.00001346 Ry

     iteration # 16     ecut=    30.00 Ry     beta= 0.50
     Davidson diagonalization with overlap
     ethr =  5.26E-09,  avg # of iterations =  2.0

     total cpu time spent up to now is        6.8 secs

     total energy              =    -501.55877673 Ry
     estimated scf accuracy    <       0.00000559 Ry

     iteration # 17     ecut=    30.00 Ry     beta= 0.50
     Davidson diagonalization with overlap
     ethr =  2.18E-09,  avg # of iterations =  2.0

     total cpu time spent up to now is        6.9 secs

     total energy              =    -501.55877717 Ry
     estimated scf accuracy    <       0.00000388 Ry

     iteration # 18     ecut=    30.00 Ry     beta= 0.50
     Davidson diagonalization with overlap
     ethr =  1.52E-09,  avg # of iterations =  1.0

     total cpu time spent up to now is        7.0 secs

     End of self-consistent calculation

          k = 0.0000 0.0000 0.0000 ( 11492 PWs)   bands (ev):

    -5.4380  -4.5831  -4.4158  -4.2547  -4.2363  -4.1316  -4.1045  -3.5339
    -3.3703  -3.3083  -3.2635  -3.2170  -3.1812  -3.1051  -3.0089  -2.9606
    -2.8217  -2.7874  -2.7170  -2.2589  -2.0624  -1.9831  -1.8640  -1.7432
    -1.6465  -1.6038  -1.4904  -1.1014  -1.0941  -0.9313  -0.8913  -0.7604
    -0.5435  -0.3153  -0.2555  -0.1485  -0.0616   0.0088   0.0490   0.1407
     0.3086   0.3502   0.3897   0.4558   0.5294   0.5874   0.6535   0.7406
     0.7965   0.9269   1.0322   1.0693   1.1582   1.2658   1.3591   1.4401
     1.5515   1.6402   1.7472   1.8797   1.9660   2.1392   2.2624   2.3385
     2.3472   2.5410   2.5512   2.6386   2.6877   2.7540   2.7812   2.9019
     2.9581   3.1239   3.1531   3.2372   3.3433   3.3870   3.4790   3.5650
     3.7243   3.9154   4.0338   4.1200   4.2514   4.2722   4.3397   4.4964
     4.5403   4.5579   4.6471   4.7337   4.7979   4.8553   4.9127   4.9752
     4.9962   5.0920   5.1996   5.2494   5.3065   5.3298   5.3937   5.4738
     5.5227   5.5358   5.6306   5.6800   5.7587   5.8030   5.8583   5.8788
     6.0033   6.0360   6.1256   6.1674   6.2239   6.2813   6.2950   6.4181
     6.4484   6.5320   6.6058   6.7007   6.7156   6.7325   6.8545   6.8779
     6.9454   6.9984   7.0661   7.1347   7.2448   7.2915   7.3404   7.3940
     7.4422   7.5089   7.5939   7.6660   7.6910   7.7544   7.8364   7.8867
     7.9151   7.9694   8.0767   8.1661   8.1913   8.2755   8.3686   8.4303
     8.5225   8.5600

     the Fermi energy is     6.9248 ev

!    total energy              =    -501.55877681 Ry
     estimated scf accuracy    <       0.00000074 Ry
     smearing contrib. (-TS)   =      -0.14535173 Ry
     internal energy E=F+TS    =    -501.41342508 Ry

     The total energy is F=E-TS. E is the sum of the following terms:
     one-electron contribution =     183.73337875 Ry
     hartree contribution      =      24.46862882 Ry
     xc contribution           =    -150.55761126 Ry
     ewald contribution        =    -559.05782140 Ry

     convergence has been achieved in  18 iterations

     Forces acting on atoms (cartesian axes, Ry/au):

     atom    1 type  1   force =     0.02255512    0.04073845    0.02107210
     atom    2 type  1   force =    -0.00415814    0.00077565   -0.03374331
     atom    3 type  1   force =     0.02657758   -0.00824765   -0.03070171
     atom    4 type  1   force =    -0.00162530    0.02852717   -0.01005783
     atom    5 type  1   force =     0.01829681   -0.02064772   -0.02020403
     atom    6 type  1   force =     0.03741999   -0.02208469    0.01445907
     atom    7 type  1   force =    -0.01870732   -0.00972964    0.01100439
     atom    8 type  1   force =    -0.02741199   -0.00473198    0.01158761
     atom    9 type  1   force =     0.04624435   -0.04499075    0.01291062
     atom   10 type  1   force =    -0.02415951   -0.00716816    0.03381660
     atom   11 type  1   force =     0.01208200    0.00659163   -0.01880220
     atom   12 type  1   force =     0.02583814    0.01685925    0.00558807
     atom   13 type  1   force =    -0.00499051   -0.00624173   -0.00859271
     atom   14 type  1   force =     0.00851542   -0.02151407    0.00551239
     atom   15 type  1   force =    -0.02625209   -0.06371632   -0.01966692
     atom   16 type  1   force =     0.02168949    0.03619808    0.01743028
     atom   17 type  1   force =    -0.00413785    0.00008738   -0.05674384
     atom   18 type  1   force =    -0.04413694    0.01539673   -0.02247210
     atom   19 type  1   force =     0.02253264    0.01940863   -0.03066456
     atom   20 type  1   force =     0.01035471    0.05445166    0.04035889
     atom   21 type  1   force =    -0.01397311    0.00308811    0.00259757
     atom   22 type  1   force =    -0.02711027   -0.00134554   -0.03776151
     atom   23 type  1   force =     0.02881759   -0.00427949    0.00788395
     atom   24 type  1   force =     0.01438437   -0.00839250    0.00756018
     atom   25 type  1   force =    -0.05565787    0.05689522   -0.06963943
     atom   26 type  1   force =     0.01385636   -0.00155329   -0.00403016
     atom   27 type  1   force =    -0.02513269    0.01285653    0.01176897
     atom   28 type  1   force =    -0.02268552   -0.03009829   -0.01208081
     atom   29 type  1   force =    -0.00749772    0.00906592   -0.04634446
     atom   30 type  1   force =     0.01207544   -0.05167167    0.00994027
     atom   31 type  1   force =     0.00675402    0.00079468    0.01065696
     atom   32 type  1   force =     0.03193043   -0.00580718    0.01255827
     atom   33 type  1   force =     0.03399343    0.01928073   -0.00700558
     atom   34 type  1   force =    -0.00672598   -0.06511238    0.06714146
     atom   35 type  1   force =    -0.03673808    0.01307486    0.01300740
     atom   36 type  1   force =    -0.02748103   -0.00865641    0.00641980
     atom   37 type  1   force =     0.01841695   -0.00316293   -0.00251184
     atom   38 type  1   force =    -0.01333295   -0.01863402    0.01432554
     atom   39 type  1   force =    -0.01874117    0.01781289   -0.01570820
     atom   40 type  1   force =    -0.00361875   -0.01267452    0.01479512
     atom   41 type  1   force =    -0.00254202    0.01652475   -0.00776786
     atom   42 type  1   force =    -0.03820668   -0.00482048    0.07031061
     atom   43 type  1   force =    -0.01121048   -0.00680489    0.03184785
     atom   44 type  1   force =     0.00339318   -0.01060880    0.08314078
     atom   45 type  1   force =     0.03423996   -0.02147653    0.05799789
     atom   46 type  1   force =    -0.02075835    0.03331136    0.02540553
     atom   47 type  1   force =    -0.03265730    0.08186074   -0.04138642
     atom   48 type  1   force =     0.00832677    0.02133715   -0.00587428
     atom   49 type  1   force =     0.01185803   -0.00439455    0.01823468
     atom   50 type  1   force =    -0.00826383   -0.00802643   -0.03585881
     atom   51 type  1   force =     0.02335306    0.04053415    0.01709367
     atom   52 type  1   force =    -0.01566662   -0.00536248    0.04431287
     atom   53 type  1   force =     0.01276648   -0.04049279   -0.00590435
     atom   54 type  1   force =     0.01442064   -0.01288766   -0.04485465
     atom   55 type  1   force =    -0.00021352    0.06518255   -0.09246051
     atom   56 type  1   force =     0.04447707   -0.02219338    0.02367950
     atom   57 type  1   force =     0.02209711   -0.05242370    0.02155479
     atom   58 type  1   force =     0.01715581   -0.00128849    0.00613338
     atom   59 type  1   force =    -0.02796650    0.02739692   -0.04913436
     atom   60 type  1   force =    -0.01954645    0.01225348    0.00376617
     atom   61 type  1   force =     0.01343812   -0.01356756    0.01444997
     atom   62 type  1   force =    -0.00335494   -0.00182614    0.00378088
     atom   63 type  1   force =     0.01050958   -0.00234399   -0.03483345
     atom   64 type  1   force =    -0.03370914   -0.02132589   -0.00929818

     Total force =     0.386779     Total SCF correction =     0.001771


     Computing stress (Cartesian axis) and pressure

          total   stress  (Ry/bohr**3)                   (kbar)     P=      -35.44
  -0.00025051  -0.00000132   0.00003912          -36.85       -0.19        5.75
  -0.00000132  -0.00027231  -0.00000702           -0.19      -40.06       -1.03
   0.00003912  -0.00000702  -0.00019996            5.75       -1.03      -29.42

 
     init_run     :      1.08s CPU      4.94s WALL (       1 calls)
     electrons    :      1.86s CPU      2.01s WALL (       1 calls)
     forces       :      0.04s CPU      0.04s WALL (       1 calls)
     stress       :      0.16s CPU      0.16s WALL (       1 calls)

     Called by init_run:
     wfcinit      :      0.55s CPU      4.22s WALL (       1 calls)
                                        4.22s GPU  (       1 calls)
     potinit      :      0.05s CPU      0.14s WALL (       1 calls)
     hinit0       :      0.47s CPU      0.50s WALL (       1 calls)

     Called by electrons:
     c_bands      :      1.08s CPU      1.14s WALL (      19 calls)
     sum_band     :      0.38s CPU      0.42s WALL (      19 calls)
     v_of_rho     :      0.18s CPU      0.28s WALL (      19 calls)
     mix_rho      :      0.18s CPU      0.19s WALL (      19 calls)

     Called by c_bands:
     init_us_2    :      0.07s CPU      0.07s WALL (      39 calls)
     init_us_2:gp :      0.07s CPU      0.07s WALL (      39 calls)
     regterg      :      0.92s CPU      0.98s WALL (      19 calls)

     Called by *egterg:
     rdiaghg      :      0.36s CPU      1.12s WALL (      80 calls)
                                        1.11s GPU  (      80 calls)
     h_psi        :      0.93s CPU      3.89s WALL (      82 calls)
                                        3.88s GPU  (      82 calls)
     g_psi        :      0.00s CPU      0.00s WALL (      62 calls)
                                        0.00s GPU  (      62 calls)

     Called by h_psi:
     h_psi:calbec :      0.52s CPU      3.39s WALL (      82 calls)
                                        3.39s GPU  (      82 calls)
     vloc_psi     :      0.37s CPU      0.44s WALL (      82 calls)
                                        0.43s GPU  (      82 calls)
     add_vuspsi   :      0.03s CPU      0.05s WALL (      82 calls)
                                        0.05s GPU  (      82 calls)

     General routines
     calbec       :      0.52s CPU      3.40s WALL (      87 calls)
     fft          :      0.62s CPU      0.76s WALL (     159 calls)
                                        0.13s GPU  (     101 calls)
     ffts         :      0.05s CPU      0.05s WALL (      19 calls)
     fftw         :      0.44s CPU      0.59s WALL (    1993 calls)
                                        0.51s GPU  (    1993 calls)
 
     Parallel routines
 
     PWSCF        :      3.18s CPU      7.24s WALL

 
   This run was terminated on:  11: 7:14  10May2023            

=------------------------------------------------------------------------------=
   JOB DONE.
=------------------------------------------------------------------------------=
