An instance of this daemon is already running
An instance of this daemon is already running

     Program PWSCF v.7.1 starts on 10May2023 at 10:57:24 

     This program is part of the open-source Quantum ESPRESSO suite
     for quantum simulation of materials; please cite
         "P. Giannozzi et al., J. Phys.:Condens. Matter 21 395502 (2009);
         "P. Giannozzi et al., J. Phys.:Condens. Matter 29 465901 (2017);
         "P. Giannozzi et al., J. Chem. Phys. 152 154105 (2020);
          URL http://www.quantum-espresso.org", 
     in publications or presentations arising from this work. More details at
     http://www.quantum-espresso.org/quote

     Parallel version (MPI & OpenMP), running on       4 processor cores
     Number of MPI processes:                 4
     Threads/MPI process:                     1

     MPI processes distributed on     1 nodes
     753551 MiB available memory on the printing compute node when the environment starts
 
     Reading input from pw-si-21.in
Warning: card &CELL ignored
Warning: card / ignored

     Current dimensions of program PWSCF are:
     Max number of different atomic species (ntypx) = 10
     Max number of k-points (npk) =  40000
     Max angular momentum in pseudopotentials (lmaxx) =  4

     IMPORTANT: XC functional enforced from input :
     Exchange-correlation= PBE
                           (   1   4   3   4   0   0   0)
     Any further DFT definition will be discarded
     Please, verify this is what you really want


     gamma-point specific algorithms are used
 
     K-points division:     npool     =       2
     R & G space division:  proc/nbgrp/npool/nimage =       2
     Subspace diagonalization in iterative solution of the eigenvalue problem:
     a serial algorithm will be used

     Message from routine divide_et_impera:
     suboptimal parallelization: some nodes have no k-points
 
     Parallelization info
     --------------------
     sticks:   dense  smooth     PW     G-vecs:    dense   smooth      PW
     Min        1955    1955    520                92369    92369   12632
     Max        1962    1962    521                92370    92370   12637
     Sum        3917    3917   1041               184739   184739   25269
 
     Using Slab Decomposition
 


     bravais-lattice index     =            0
     lattice parameter (alat)  =      20.2728  a.u.
     unit-cell volume          =    8331.9059 (a.u.)^3
     number of atoms/cell      =           64
     number of atomic types    =            1
     number of electrons       =       256.00
     number of Kohn-Sham states=          154
     kinetic-energy cutoff     =      30.0000  Ry
     charge density cutoff     =     120.0000  Ry
     scf convergence threshold =      1.0E-06
     mixing beta               =       0.5000
     number of iterations used =            8  plain     mixing
     Exchange-correlation= PBE
                           (   1   4   3   4   0   0   0)

     GPU acceleration is ACTIVE.
     GPU-aware MPI enabled

     Message from routine print_cuda_info:
     High GPU oversubscription detected. Are you sure this is what you want?

     celldm(1)=  20.272849  celldm(2)=   0.000000  celldm(3)=   0.000000
     celldm(4)=   0.000000  celldm(5)=   0.000000  celldm(6)=   0.000000

     crystal axes: (cart. coord. in units of alat)
               a(1) = (   1.000000   0.000000   0.000000 )  
               a(2) = (   0.000000   1.000000   0.000000 )  
               a(3) = (   0.000000   0.000000   1.000000 )  

     reciprocal axes: (cart. coord. in units 2 pi/alat)
               b(1) = (  1.000000  0.000000  0.000000 )  
               b(2) = (  0.000000  1.000000  0.000000 )  
               b(3) = (  0.000000  0.000000  1.000000 )  


     PseudoPot. # 1 for Si read from file:
     /home/ppiaggi/pseudos/Si_ONCV_PBE_sr.upf
     MD5 check sum: 8553c464762ac42b85b1eed164b4d029
     Pseudo is Norm-conserving, Zval =  4.0
     Generated using ONCVPSP code by D. R. Hamann
     Using radial grid of 1510 points,  4 beta functions with: 
                l(1) =   0
                l(2) =   0
                l(3) =   1
                l(4) =   1

     atomic species   valence    mass     pseudopotential
        Si             4.00    28.08500     Si( 1.00)

     No symmetry found



   Cartesian axes

     site n.     atom                  positions (alat units)
         1           Si  tau(   1) = (   0.1711170   0.2137560   0.7124940  )
         2           Si  tau(   2) = (   0.0197307   0.1115660   0.2252420  )
         3           Si  tau(   3) = (   0.9922320   0.6818890   0.2032000  )
         4           Si  tau(   4) = (   0.8913990   0.6070980   0.6544700  )
         5           Si  tau(   5) = (   0.0114083   0.0659339   0.0183373  )
         6           Si  tau(   6) = (   0.3186200   0.0214030   0.2208210  )
         7           Si  tau(   7) = (   0.4501990   0.3556230   0.2345460  )
         8           Si  tau(   8) = (   0.5120150   0.5680970   0.6550440  )
         9           Si  tau(   9) = (   0.5498270   0.4468970   0.0458685  )
        10           Si  tau(  10) = (   0.9012150   0.0899042   0.7643620  )
        11           Si  tau(  11) = (   0.5074580   0.8427780   0.3718970  )
        12           Si  tau(  12) = (   0.6647710   0.3201940   0.6071450  )
        13           Si  tau(  13) = (   0.6518880   0.3779840   0.8355140  )
        14           Si  tau(  14) = (   0.0587475   0.7913740   0.5180300  )
        15           Si  tau(  15) = (   0.0384952   0.7144550   0.9847110  )
        16           Si  tau(  16) = (   0.6621650   0.9875360   0.7290110  )
        17           Si  tau(  17) = (   0.7986400   0.1631430   0.2650570  )
        18           Si  tau(  18) = (   0.1314580   0.0097777   0.6128050  )
        19           Si  tau(  19) = (   0.4636390   0.9318900   0.6215140  )
        20           Si  tau(  20) = (   0.3388510   0.7771690   0.1822750  )
        21           Si  tau(  21) = (   0.3626200   0.7603310   0.7610440  )
        22           Si  tau(  22) = (   0.8885820   0.3317860   0.7141640  )
        23           Si  tau(  23) = (   0.5851560   0.0409485   0.1921700  )
        24           Si  tau(  24) = (   0.8490800   0.3005780   0.9955320  )
        25           Si  tau(  25) = (   0.6109750   0.1486750   0.8864950  )
        26           Si  tau(  26) = (   0.3674950   0.6393990   0.3936410  )
        27           Si  tau(  27) = (   0.6899300   0.6153510   0.3282490  )
        28           Si  tau(  28) = (   0.3847050   0.5629190   0.9160140  )
        29           Si  tau(  29) = (   0.2603620   0.7055440   0.5675220  )
        30           Si  tau(  30) = (   0.8361840   0.8562940   0.0205355  )
        31           Si  tau(  31) = (   0.8774150   0.3869700   0.4719700  )
        32           Si  tau(  32) = (   0.2307650   0.0897976   0.9111360  )
        33           Si  tau(  33) = (   0.7236170   0.8502270   0.2192520  )
        34           Si  tau(  34) = (   0.8461090   0.5621370   0.0015164  )
        35           Si  tau(  35) = (   0.3796000   0.1736510   0.4446930  )
        36           Si  tau(  36) = (   0.8288580   0.8448490   0.5977950  )
        37           Si  tau(  37) = (   0.6850080   0.7836010   0.8707420  )
        38           Si  tau(  38) = (   0.9733690   0.8401180   0.7936730  )
        39           Si  tau(  39) = (   0.2625830   0.4799970   0.2885340  )
        40           Si  tau(  40) = (   0.9381980   0.1323520   0.4962760  )
        41           Si  tau(  41) = (   0.0215411   0.5210710   0.8062570  )
        42           Si  tau(  42) = (   0.4260680   0.0451112   0.9915500  )
        43           Si  tau(  43) = (   0.2063920   0.5098570   0.6491380  )
        44           Si  tau(  44) = (   0.5853420   0.2267630   0.3579110  )
        45           Si  tau(  45) = (   0.3014520   0.9870730   0.4373980  )
        46           Si  tau(  46) = (   0.7570640   0.3862640   0.2012690  )
        47           Si  tau(  47) = (   0.2167560   0.3427280   0.4973060  )
        48           Si  tau(  48) = (   0.3649310   0.4154430   0.7370620  )
        49           Si  tau(  49) = (   0.0307602   0.4384830   0.1564630  )
        50           Si  tau(  50) = (   0.7016920   0.5754950   0.7541420  )
        51           Si  tau(  51) = (   0.8833940   0.6159340   0.4001160  )
        52           Si  tau(  52) = (   0.0837418   0.8864550   0.3084460  )
        53           Si  tau(  53) = (   0.7675760   0.0763022   0.0185322  )
        54           Si  tau(  54) = (   0.4275080   0.2072150   0.6689570  )
        55           Si  tau(  55) = (   0.5485120   0.4945320   0.4483090  )
        56           Si  tau(  56) = (   0.0363357   0.3280130   0.3275540  )
        57           Si  tau(  57) = (   0.2450730   0.2469200   0.1092460  )
        58           Si  tau(  58) = (   0.1959970   0.8895700   0.8040480  )
        59           Si  tau(  59) = (   0.0790719   0.3213170   0.9385850  )
        60           Si  tau(  60) = (   0.6283560   0.7588030   0.5107220  )
        61           Si  tau(  61) = (   0.6527520   0.6425750   0.0974162  )
        62           Si  tau(  62) = (   0.8598100   0.9405540   0.3941490  )
        63           Si  tau(  63) = (   0.2295110   0.6052540   0.0729551  )
        64           Si  tau(  64) = (   0.4681040   0.8131890   0.9970650  )

     number of k points=     1  Fermi-Dirac smearing, width (Ry)=  0.0100
                       cart. coord. in units 2pi/alat
        k(    1) = (   0.0000000   0.0000000   0.0000000), wk =   2.0000000

     Dense  grid:    92370 G-vectors     FFT dimensions: (  72,  72,  72)

     Estimated max dynamical RAM per process >     148.11 MB

     Estimated total dynamical RAM >     569.89 MB

     Initial potential from superposition of free atoms

     starting charge     255.9608, renormalised to     256.0000
     Starting wfcs are  256 randomized atomic wfcs

     total cpu time spent up to now is        5.0 secs

     Self-consistent Calculation

     iteration #  1     ecut=    30.00 Ry     beta= 0.50
     Davidson diagonalization with overlap
     ethr =  1.00E-02,  avg # of iterations =  3.0

     Threshold (ethr) on eigenvalues was too large:
     Diagonalizing with lowered threshold

     Davidson diagonalization with overlap
     ethr =  4.47E-04,  avg # of iterations =  4.0

     total cpu time spent up to now is        5.3 secs

     total energy              =    -501.01983426 Ry
     estimated scf accuracy    <       1.37358041 Ry

     iteration #  2     ecut=    30.00 Ry     beta= 0.50
     Davidson diagonalization with overlap
     ethr =  5.37E-04,  avg # of iterations =  5.0

     total cpu time spent up to now is        5.4 secs

     total energy              =    -500.34622994 Ry
     estimated scf accuracy    <       8.42242169 Ry

     iteration #  3     ecut=    30.00 Ry     beta= 0.50
     Davidson diagonalization with overlap
     ethr =  5.37E-04,  avg # of iterations =  5.0

     total cpu time spent up to now is        5.6 secs

     total energy              =    -501.10823468 Ry
     estimated scf accuracy    <       2.55028844 Ry

     iteration #  4     ecut=    30.00 Ry     beta= 0.50
     Davidson diagonalization with overlap
     ethr =  5.37E-04,  avg # of iterations =  2.0

     total cpu time spent up to now is        5.6 secs

     total energy              =    -501.27999671 Ry
     estimated scf accuracy    <       0.61453396 Ry

     iteration #  5     ecut=    30.00 Ry     beta= 0.50
     Davidson diagonalization with overlap
     ethr =  2.40E-04,  avg # of iterations =  2.0

     total cpu time spent up to now is        5.7 secs

     total energy              =    -501.30201005 Ry
     estimated scf accuracy    <       0.52920048 Ry

     iteration #  6     ecut=    30.00 Ry     beta= 0.50
     Davidson diagonalization with overlap
     ethr =  2.07E-04,  avg # of iterations =  2.0

     total cpu time spent up to now is        5.8 secs

     total energy              =    -501.35107088 Ry
     estimated scf accuracy    <       0.09493751 Ry

     iteration #  7     ecut=    30.00 Ry     beta= 0.50
     Davidson diagonalization with overlap
     ethr =  3.71E-05,  avg # of iterations =  2.0

     total cpu time spent up to now is        5.9 secs

     total energy              =    -501.36010316 Ry
     estimated scf accuracy    <       0.02468902 Ry

     iteration #  8     ecut=    30.00 Ry     beta= 0.50
     Davidson diagonalization with overlap
     c_bands:  1 eigenvalues not converged
     ethr =  9.64E-06,  avg # of iterations = 20.0

     total cpu time spent up to now is        6.1 secs

     total energy              =    -501.36270508 Ry
     estimated scf accuracy    <       0.02198378 Ry

     iteration #  9     ecut=    30.00 Ry     beta= 0.50
     Davidson diagonalization with overlap
     ethr =  8.59E-06,  avg # of iterations =  3.0

     total cpu time spent up to now is        6.2 secs

     total energy              =    -501.36441372 Ry
     estimated scf accuracy    <       0.00216594 Ry

     iteration # 10     ecut=    30.00 Ry     beta= 0.50
     Davidson diagonalization with overlap
     ethr =  8.46E-07,  avg # of iterations = 17.0

     total cpu time spent up to now is        6.4 secs

     total energy              =    -501.36460906 Ry
     estimated scf accuracy    <       0.00294650 Ry

     iteration # 11     ecut=    30.00 Ry     beta= 0.50
     Davidson diagonalization with overlap
     ethr =  8.46E-07,  avg # of iterations =  2.0

     total cpu time spent up to now is        6.5 secs

     total energy              =    -501.36483578 Ry
     estimated scf accuracy    <       0.00045936 Ry

     iteration # 12     ecut=    30.00 Ry     beta= 0.50
     Davidson diagonalization with overlap
     ethr =  1.79E-07,  avg # of iterations =  3.0

     total cpu time spent up to now is        6.6 secs

     total energy              =    -501.36487848 Ry
     estimated scf accuracy    <       0.00030456 Ry

     iteration # 13     ecut=    30.00 Ry     beta= 0.50
     Davidson diagonalization with overlap
     ethr =  1.19E-07,  avg # of iterations =  2.0

     total cpu time spent up to now is        6.7 secs

     total energy              =    -501.36490151 Ry
     estimated scf accuracy    <       0.00026359 Ry

     iteration # 14     ecut=    30.00 Ry     beta= 0.50
     Davidson diagonalization with overlap
     ethr =  1.03E-07,  avg # of iterations =  1.0

     total cpu time spent up to now is        6.8 secs

     total energy              =    -501.36491848 Ry
     estimated scf accuracy    <       0.00003207 Ry

     iteration # 15     ecut=    30.00 Ry     beta= 0.50
     Davidson diagonalization with overlap
     ethr =  1.25E-08,  avg # of iterations =  3.0

     total cpu time spent up to now is        6.9 secs

     total energy              =    -501.36492234 Ry
     estimated scf accuracy    <       0.00002689 Ry

     iteration # 16     ecut=    30.00 Ry     beta= 0.50
     Davidson diagonalization with overlap
     ethr =  1.05E-08,  avg # of iterations =  2.0

     total cpu time spent up to now is        7.0 secs

     total energy              =    -501.36492426 Ry
     estimated scf accuracy    <       0.00000925 Ry

     iteration # 17     ecut=    30.00 Ry     beta= 0.50
     Davidson diagonalization with overlap
     ethr =  3.61E-09,  avg # of iterations =  2.0

     total cpu time spent up to now is        7.1 secs

     total energy              =    -501.36492497 Ry
     estimated scf accuracy    <       0.00000300 Ry

     iteration # 18     ecut=    30.00 Ry     beta= 0.50
     Davidson diagonalization with overlap
     ethr =  1.17E-09,  avg # of iterations =  2.0

     total cpu time spent up to now is        7.2 secs

     total energy              =    -501.36492515 Ry
     estimated scf accuracy    <       0.00000413 Ry

     iteration # 19     ecut=    30.00 Ry     beta= 0.50
     Davidson diagonalization with overlap
     ethr =  1.17E-09,  avg # of iterations =  1.0

     total cpu time spent up to now is        7.3 secs

     End of self-consistent calculation

          k = 0.0000 0.0000 0.0000 ( 11516 PWs)   bands (ev):

    -5.5005  -4.6707  -4.4698  -4.3768  -4.2859  -4.1648  -4.0890  -3.6796
    -3.5104  -3.3563  -3.2770  -3.1943  -3.1155  -3.0644  -3.0224  -2.9762
    -2.8563  -2.7824  -2.7147  -2.3614  -2.1449  -2.0818  -1.9331  -1.8792
    -1.6085  -1.5225  -1.3305  -1.1237  -1.1016  -0.9119  -0.7742  -0.7008
    -0.5054  -0.3596  -0.3165  -0.2622  -0.2263  -0.1571   0.0506   0.0911
     0.1949   0.2829   0.3679   0.4497   0.5396   0.6287   0.6948   0.7161
     0.7999   0.8917   0.9543   1.1014   1.1221   1.2240   1.3034   1.4381
     1.5604   1.6786   1.7684   1.8632   2.0571   2.0781   2.1202   2.2131
     2.3351   2.4181   2.4858   2.5788   2.6888   2.7287   2.7694   2.8555
     2.8902   3.0216   3.1318   3.1682   3.2808   3.3566   3.3831   3.4982
     3.5490   3.8693   4.0344   4.0776   4.2064   4.2301   4.3649   4.4901
     4.5666   4.5838   4.6765   4.6966   4.7895   4.8458   4.9172   4.9422
     5.0103   5.1216   5.1308   5.1924   5.2498   5.3256   5.3480   5.4438
     5.5128   5.5451   5.6036   5.6282   5.7073   5.7536   5.8404   5.9221
     5.9709   6.0139   6.0687   6.0850   6.1947   6.2641   6.3195   6.4072
     6.4631   6.5491   6.5838   6.6551   6.6729   6.7155   6.7656   6.8143
     6.8913   6.9580   7.0243   7.0825   7.1358   7.2463   7.2972   7.3166
     7.3349   7.4495   7.4797   7.5341   7.6401   7.6738   7.7450   7.7982
     7.8734   7.9509   7.9787   8.0120   8.0726   8.1131   8.1542   8.3049
     8.3930   8.4515

     the Fermi energy is     6.8749 ev

!    total energy              =    -501.36492522 Ry
     estimated scf accuracy    <       0.00000030 Ry
     smearing contrib. (-TS)   =      -0.15424798 Ry
     internal energy E=F+TS    =    -501.21067725 Ry

     The total energy is F=E-TS. E is the sum of the following terms:
     one-electron contribution =     178.46748136 Ry
     hartree contribution      =      26.62109377 Ry
     xc contribution           =    -150.24717795 Ry
     ewald contribution        =    -556.05207442 Ry

     convergence has been achieved in  19 iterations

     Forces acting on atoms (cartesian axes, Ry/au):

     atom    1 type  1   force =     0.01666299   -0.02019091    0.03501437
     atom    2 type  1   force =     0.02190069    0.02062758    0.03765195
     atom    3 type  1   force =     0.00738195   -0.00760197    0.00933670
     atom    4 type  1   force =    -0.03358256    0.03604519   -0.03525352
     atom    5 type  1   force =     0.01506305    0.01105869   -0.04459984
     atom    6 type  1   force =     0.00344885   -0.02315729   -0.04261756
     atom    7 type  1   force =    -0.02139608    0.00889910   -0.02777672
     atom    8 type  1   force =    -0.01531707    0.01228584   -0.01547005
     atom    9 type  1   force =     0.00184251    0.00924436   -0.00567522
     atom   10 type  1   force =    -0.00149675   -0.01709340   -0.01804505
     atom   11 type  1   force =    -0.07226218    0.04011563   -0.06861232
     atom   12 type  1   force =    -0.00849562    0.00738642   -0.03375004
     atom   13 type  1   force =     0.01596096   -0.03947001    0.05329086
     atom   14 type  1   force =    -0.00022429    0.03630447   -0.00375699
     atom   15 type  1   force =     0.00482477   -0.02921373   -0.01418271
     atom   16 type  1   force =     0.01870040   -0.01346941    0.01245118
     atom   17 type  1   force =    -0.01270165    0.00507607   -0.00854597
     atom   18 type  1   force =    -0.01459993   -0.00908936   -0.01943959
     atom   19 type  1   force =     0.01438176   -0.01325072   -0.00401794
     atom   20 type  1   force =    -0.00061322    0.01753151    0.00820204
     atom   21 type  1   force =     0.03502345   -0.02130610   -0.00597991
     atom   22 type  1   force =    -0.00929633   -0.00904554   -0.00701716
     atom   23 type  1   force =    -0.00294324   -0.01344278   -0.00528342
     atom   24 type  1   force =    -0.00055479    0.01624446   -0.00446592
     atom   25 type  1   force =    -0.03941095   -0.00097654   -0.04058675
     atom   26 type  1   force =     0.04105090    0.02008730   -0.01922219
     atom   27 type  1   force =    -0.03455274    0.00128347   -0.01849654
     atom   28 type  1   force =     0.00798111   -0.01617980   -0.01344992
     atom   29 type  1   force =    -0.02737129   -0.00650001    0.01852892
     atom   30 type  1   force =    -0.00146394    0.01190732   -0.00921545
     atom   31 type  1   force =    -0.03329734    0.00962734    0.02619834
     atom   32 type  1   force =    -0.05364582    0.00670257   -0.03417494
     atom   33 type  1   force =    -0.01519785    0.01346226    0.00800293
     atom   34 type  1   force =     0.00170463   -0.01350814    0.02142240
     atom   35 type  1   force =     0.03777329    0.10909595    0.03970942
     atom   36 type  1   force =    -0.00657027   -0.01248050    0.00806327
     atom   37 type  1   force =    -0.01425215    0.00023606    0.00689691
     atom   38 type  1   force =     0.00626922    0.01965690    0.00332054
     atom   39 type  1   force =     0.00174447   -0.02862076   -0.01366734
     atom   40 type  1   force =     0.01928532   -0.00943194    0.01228221
     atom   41 type  1   force =     0.03539063   -0.02476450    0.01862654
     atom   42 type  1   force =     0.06032566   -0.02579514    0.03592956
     atom   43 type  1   force =    -0.06737396    0.01260850   -0.02236001
     atom   44 type  1   force =    -0.01677287   -0.01062912    0.00047233
     atom   45 type  1   force =    -0.03929348   -0.08778034    0.04672416
     atom   46 type  1   force =     0.01639703    0.00934219   -0.02892522
     atom   47 type  1   force =    -0.01046741   -0.00425106   -0.03603847
     atom   48 type  1   force =     0.05724914   -0.01155546    0.04149269
     atom   49 type  1   force =    -0.00099586    0.06911981   -0.09115367
     atom   50 type  1   force =     0.01409435    0.04683857    0.04136986
     atom   51 type  1   force =     0.06019186   -0.00905445    0.02878079
     atom   52 type  1   force =    -0.00660942   -0.00066224    0.00673086
     atom   53 type  1   force =     0.00818615    0.00453081    0.03573970
     atom   54 type  1   force =     0.00897870    0.00481128    0.00202289
     atom   55 type  1   force =    -0.01339327   -0.00596279   -0.00737940
     atom   56 type  1   force =     0.03940999   -0.07083133    0.07519534
     atom   57 type  1   force =    -0.01536485   -0.02516423    0.00215100
     atom   58 type  1   force =    -0.03725400    0.03568973    0.00101388
     atom   59 type  1   force =    -0.00990332    0.00489309    0.01739583
     atom   60 type  1   force =     0.03408512   -0.04294422    0.06217538
     atom   61 type  1   force =     0.01861825    0.00445440    0.00403971
     atom   62 type  1   force =     0.01540965    0.01089505   -0.02115455
     atom   63 type  1   force =    -0.02986002   -0.00163897    0.01343753
     atom   64 type  1   force =     0.02719767    0.00900081   -0.01335569

     Total force =     0.395323     Total SCF correction =     0.001035


     Computing stress (Cartesian axis) and pressure

          total   stress  (Ry/bohr**3)                   (kbar)     P=      -39.24
  -0.00020241   0.00002297   0.00005779          -29.78        3.38        8.50
   0.00002297  -0.00033825  -0.00003412            3.38      -49.76       -5.02
   0.00005779  -0.00003412  -0.00025960            8.50       -5.02      -38.19

 
     init_run     :      1.08s CPU      4.95s WALL (       1 calls)
     electrons    :      2.15s CPU      2.29s WALL (       1 calls)
     forces       :      0.04s CPU      0.04s WALL (       1 calls)
     stress       :      0.16s CPU      0.16s WALL (       1 calls)

     Called by init_run:
     wfcinit      :      0.55s CPU      4.22s WALL (       1 calls)
                                        4.22s GPU  (       1 calls)
     potinit      :      0.04s CPU      0.15s WALL (       1 calls)
     hinit0       :      0.47s CPU      0.50s WALL (       1 calls)

     Called by electrons:
     c_bands      :      1.29s CPU      1.35s WALL (      20 calls)
     sum_band     :      0.42s CPU      0.46s WALL (      20 calls)
     v_of_rho     :      0.19s CPU      0.30s WALL (      20 calls)
     mix_rho      :      0.20s CPU      0.21s WALL (      20 calls)

     Called by c_bands:
     init_us_2    :      0.07s CPU      0.08s WALL (      41 calls)
     init_us_2:gp :      0.07s CPU      0.08s WALL (      41 calls)
     regterg      :      1.13s CPU      1.18s WALL (      20 calls)

     Called by *egterg:
     rdiaghg      :      0.50s CPU      1.25s WALL (     102 calls)
                                        1.23s GPU  (     102 calls)
     h_psi        :      0.98s CPU      3.94s WALL (     104 calls)
                                        3.94s GPU  (     104 calls)
     g_psi        :      0.00s CPU      0.00s WALL (      83 calls)
                                        0.00s GPU  (      83 calls)

     Called by h_psi:
     h_psi:calbec :      0.52s CPU      3.40s WALL (     104 calls)
                                        3.40s GPU  (     104 calls)
     vloc_psi     :      0.40s CPU      0.47s WALL (     104 calls)
                                        0.46s GPU  (     104 calls)
     add_vuspsi   :      0.04s CPU      0.06s WALL (     104 calls)
                                        0.06s GPU  (     104 calls)

     General routines
     calbec       :      0.52s CPU      3.41s WALL (     109 calls)
     fft          :      0.63s CPU      0.77s WALL (     167 calls)
                                        0.14s GPU  (     106 calls)
     ffts         :      0.05s CPU      0.05s WALL (      20 calls)
     fftw         :      0.49s CPU      0.63s WALL (    2134 calls)
                                        0.55s GPU  (    2134 calls)
 
     Parallel routines
 
     PWSCF        :      3.47s CPU      7.52s WALL

 
   This run was terminated on:  10:57:31  10May2023            

=------------------------------------------------------------------------------=
   JOB DONE.
=------------------------------------------------------------------------------=
