An instance of this daemon is already running
An instance of this daemon is already running
An instance of this daemon is already running

     Program PWSCF v.7.1 starts on 10May2023 at 11: 3:23 

     This program is part of the open-source Quantum ESPRESSO suite
     for quantum simulation of materials; please cite
         "P. Giannozzi et al., J. Phys.:Condens. Matter 21 395502 (2009);
         "P. Giannozzi et al., J. Phys.:Condens. Matter 29 465901 (2017);
         "P. Giannozzi et al., J. Chem. Phys. 152 154105 (2020);
          URL http://www.quantum-espresso.org", 
     in publications or presentations arising from this work. More details at
     http://www.quantum-espresso.org/quote

     Parallel version (MPI & OpenMP), running on       4 processor cores
     Number of MPI processes:                 4
     Threads/MPI process:                     1

     MPI processes distributed on     1 nodes
     753538 MiB available memory on the printing compute node when the environment starts
 
     Reading input from pw-si-58.in
Warning: card &CELL ignored
Warning: card / ignored

     Current dimensions of program PWSCF are:
     Max number of different atomic species (ntypx) = 10
     Max number of k-points (npk) =  40000
     Max angular momentum in pseudopotentials (lmaxx) =  4

     IMPORTANT: XC functional enforced from input :
     Exchange-correlation= PBE
                           (   1   4   3   4   0   0   0)
     Any further DFT definition will be discarded
     Please, verify this is what you really want


     gamma-point specific algorithms are used
 
     K-points division:     npool     =       2
     R & G space division:  proc/nbgrp/npool/nimage =       2
     Subspace diagonalization in iterative solution of the eigenvalue problem:
     a serial algorithm will be used

     Message from routine divide_et_impera:
     suboptimal parallelization: some nodes have no k-points
 
     Parallelization info
     --------------------
     sticks:   dense  smooth     PW     G-vecs:    dense   smooth      PW
     Min        1929    1929    504                90087    90087   12201
     Max        1932    1932    505                90092    90092   12204
     Sum        3861    3861   1009               180179   180179   24405
 
     Using Slab Decomposition
 


     bravais-lattice index     =            0
     lattice parameter (alat)  =      20.0963  a.u.
     unit-cell volume          =    8116.1216 (a.u.)^3
     number of atoms/cell      =           64
     number of atomic types    =            1
     number of electrons       =       256.00
     number of Kohn-Sham states=          154
     kinetic-energy cutoff     =      30.0000  Ry
     charge density cutoff     =     120.0000  Ry
     scf convergence threshold =      1.0E-06
     mixing beta               =       0.5000
     number of iterations used =            8  plain     mixing
     Exchange-correlation= PBE
                           (   1   4   3   4   0   0   0)

     GPU acceleration is ACTIVE.
     GPU-aware MPI enabled

     Message from routine print_cuda_info:
     High GPU oversubscription detected. Are you sure this is what you want?

     celldm(1)=  20.096304  celldm(2)=   0.000000  celldm(3)=   0.000000
     celldm(4)=   0.000000  celldm(5)=   0.000000  celldm(6)=   0.000000

     crystal axes: (cart. coord. in units of alat)
               a(1) = (   1.000000   0.000000   0.000000 )  
               a(2) = (   0.000000   1.000000   0.000000 )  
               a(3) = (   0.000000   0.000000   1.000000 )  

     reciprocal axes: (cart. coord. in units 2 pi/alat)
               b(1) = (  1.000000  0.000000  0.000000 )  
               b(2) = (  0.000000  1.000000  0.000000 )  
               b(3) = (  0.000000  0.000000  1.000000 )  


     PseudoPot. # 1 for Si read from file:
     /home/ppiaggi/pseudos/Si_ONCV_PBE_sr.upf
     MD5 check sum: 8553c464762ac42b85b1eed164b4d029
     Pseudo is Norm-conserving, Zval =  4.0
     Generated using ONCVPSP code by D. R. Hamann
     Using radial grid of 1510 points,  4 beta functions with: 
                l(1) =   0
                l(2) =   0
                l(3) =   1
                l(4) =   1

     atomic species   valence    mass     pseudopotential
        Si             4.00    28.08500     Si( 1.00)

     No symmetry found



   Cartesian axes

     site n.     atom                  positions (alat units)
         1           Si  tau(   1) = (   0.3622650   0.8275400   0.1254880  )
         2           Si  tau(   2) = (   0.1395110   0.5553080   0.3357390  )
         3           Si  tau(   3) = (   0.9532500   0.5380130   0.7864890  )
         4           Si  tau(   4) = (   0.4493230   0.2947410   0.8145210  )
         5           Si  tau(   5) = (   0.4389790   0.7476380   0.8280680  )
         6           Si  tau(   6) = (   0.4297830   0.8793320   0.3768130  )
         7           Si  tau(   7) = (   0.9943370   0.2040120   0.9793610  )
         8           Si  tau(   8) = (   0.5488460   0.9488220   0.8450100  )
         9           Si  tau(   9) = (   0.0533673   0.4947230   0.5379510  )
        10           Si  tau(  10) = (   0.1710490   0.0062194   0.2595100  )
        11           Si  tau(  11) = (   0.8497010   0.6154660   0.0362693  )
        12           Si  tau(  12) = (   0.6724500   0.1154790   0.3906780  )
        13           Si  tau(  13) = (   0.9036760   0.2963430   0.7746440  )
        14           Si  tau(  14) = (   0.3580680   0.3550580   0.6242300  )
        15           Si  tau(  15) = (   0.3561300   0.5946090   0.0626591  )
        16           Si  tau(  16) = (   0.2725860   0.1808660   0.3994020  )
        17           Si  tau(  17) = (   0.9210720   0.8441650   0.6877920  )
        18           Si  tau(  18) = (   0.3663680   0.5082220   0.2726910  )
        19           Si  tau(  19) = (   0.1063490   0.2878910   0.6205150  )
        20           Si  tau(  20) = (   0.6184210   0.3728220   0.5909660  )
        21           Si  tau(  21) = (   0.2571320   0.0205860   0.0431759  )
        22           Si  tau(  22) = (   0.2685170   0.2726510   0.0753007  )
        23           Si  tau(  23) = (   0.7339570   0.7637310   0.5105840  )
        24           Si  tau(  24) = (   0.4808670   0.3092150   0.3792870  )
        25           Si  tau(  25) = (   0.8243860   0.3285340   0.0883037  )
        26           Si  tau(  26) = (   0.3205050   0.6048180   0.6928410  )
        27           Si  tau(  27) = (   0.7553290   0.3377840   0.3720180  )
        28           Si  tau(  28) = (   0.1280080   0.6709200   0.0553407  )
        29           Si  tau(  29) = (   0.0546784   0.4568050   0.9924680  )
        30           Si  tau(  30) = (   0.6794980   0.4972910   0.2164270  )
        31           Si  tau(  31) = (   0.2176040   0.1954990   0.8373580  )
        32           Si  tau(  32) = (   0.0211389   0.1196730   0.4797460  )
        33           Si  tau(  33) = (   0.2743770   0.4427000   0.8992400  )
        34           Si  tau(  34) = (   0.5988300   0.8010090   0.1607630  )
        35           Si  tau(  35) = (   0.1004050   0.8616750   0.5517270  )
        36           Si  tau(  36) = (   0.2090100   0.8341700   0.8811560  )
        37           Si  tau(  37) = (   0.4674720   0.0773724   0.2638650  )
        38           Si  tau(  38) = (   0.9326820   0.8616480   0.3399480  )
        39           Si  tau(  39) = (   0.8248800   0.0347332   0.5838490  )
        40           Si  tau(  40) = (   0.9694450   0.0704907   0.1604500  )
        41           Si  tau(  41) = (   0.7026380   0.1419930   0.0256989  )
        42           Si  tau(  42) = (   0.5614890   0.6327640   0.0002538  )
        43           Si  tau(  43) = (   0.3220970   0.0252709   0.7615520  )
        44           Si  tau(  44) = (   0.7758280   0.1150290   0.7900010  )
        45           Si  tau(  45) = (   0.1216590   0.6756710   0.6932520  )
        46           Si  tau(  46) = (   0.3800580   0.6394100   0.4701860  )
        47           Si  tau(  47) = (   0.1527190   0.3412450   0.2417460  )
        48           Si  tau(  48) = (   0.5909040   0.5996840   0.6683410  )
        49           Si  tau(  49) = (   0.1524620   0.7977110   0.2833100  )
        50           Si  tau(  50) = (   0.5943720   0.9249990   0.5734120  )
        51           Si  tau(  51) = (   0.7601950   0.6645410   0.8109490  )
        52           Si  tau(  52) = (   0.9632160   0.8314010   0.0577713  )
        53           Si  tau(  53) = (   0.4933570   0.3340060   0.1132910  )
        54           Si  tau(  54) = (   0.3022690   0.9777700   0.5556180  )
        55           Si  tau(  55) = (   0.0196688   0.9760420   0.8738760  )
        56           Si  tau(  56) = (   0.4716660   0.1105450   0.0264587  )
        57           Si  tau(  57) = (   0.5663340   0.1484420   0.6896920  )
        58           Si  tau(  58) = (   0.6037940   0.4019230   0.9353760  )
        59           Si  tau(  59) = (   0.7535530   0.8796120   0.9220330  )
        60           Si  tau(  60) = (   0.9483800   0.2603330   0.3018460  )
        61           Si  tau(  61) = (   0.7649590   0.9457750   0.1999400  )
        62           Si  tau(  62) = (   0.5925750   0.6663920   0.3392250  )
        63           Si  tau(  63) = (   0.8488720   0.5197130   0.4813860  )
        64           Si  tau(  64) = (   0.9049110   0.6200680   0.2700350  )

     number of k points=     1  Fermi-Dirac smearing, width (Ry)=  0.0100
                       cart. coord. in units 2pi/alat
        k(    1) = (   0.0000000   0.0000000   0.0000000), wk =   2.0000000

     Dense  grid:    90090 G-vectors     FFT dimensions: (  72,  72,  72)

     Estimated max dynamical RAM per process >     144.70 MB

     Estimated total dynamical RAM >     556.81 MB

     Initial potential from superposition of free atoms

     starting charge     255.9608, renormalised to     256.0000
     Starting wfcs are  256 randomized atomic wfcs

     total cpu time spent up to now is        5.0 secs

     Self-consistent Calculation

     iteration #  1     ecut=    30.00 Ry     beta= 0.50
     Davidson diagonalization with overlap
     ethr =  1.00E-02,  avg # of iterations =  3.0

     Threshold (ethr) on eigenvalues was too large:
     Diagonalizing with lowered threshold

     Davidson diagonalization with overlap
     ethr =  4.00E-04,  avg # of iterations =  5.0

     total cpu time spent up to now is        5.3 secs

     total energy              =    -501.10387455 Ry
     estimated scf accuracy    <       1.23370908 Ry

     iteration #  2     ecut=    30.00 Ry     beta= 0.50
     Davidson diagonalization with overlap
     ethr =  4.82E-04,  avg # of iterations =  5.0

     total cpu time spent up to now is        5.4 secs

     total energy              =    -500.44506470 Ry
     estimated scf accuracy    <       9.62036014 Ry

     iteration #  3     ecut=    30.00 Ry     beta= 0.50
     Davidson diagonalization with overlap
     ethr =  4.82E-04,  avg # of iterations =  4.0

     total cpu time spent up to now is        5.5 secs

     total energy              =    -501.26533056 Ry
     estimated scf accuracy    <       1.55994571 Ry

     iteration #  4     ecut=    30.00 Ry     beta= 0.50
     Davidson diagonalization with overlap
     ethr =  4.82E-04,  avg # of iterations =  2.0

     total cpu time spent up to now is        5.6 secs

     total energy              =    -501.38109394 Ry
     estimated scf accuracy    <       0.41544960 Ry

     iteration #  5     ecut=    30.00 Ry     beta= 0.50
     Davidson diagonalization with overlap
     ethr =  1.62E-04,  avg # of iterations =  2.0

     total cpu time spent up to now is        5.7 secs

     total energy              =    -501.39200021 Ry
     estimated scf accuracy    <       0.43246243 Ry

     iteration #  6     ecut=    30.00 Ry     beta= 0.50
     Davidson diagonalization with overlap
     ethr =  1.62E-04,  avg # of iterations =  2.0

     total cpu time spent up to now is        5.8 secs

     total energy              =    -501.42825948 Ry
     estimated scf accuracy    <       0.11805521 Ry

     iteration #  7     ecut=    30.00 Ry     beta= 0.50
     Davidson diagonalization with overlap
     ethr =  4.61E-05,  avg # of iterations =  2.0

     total cpu time spent up to now is        5.9 secs

     total energy              =    -501.43900360 Ry
     estimated scf accuracy    <       0.01802926 Ry

     iteration #  8     ecut=    30.00 Ry     beta= 0.50
     Davidson diagonalization with overlap
     ethr =  7.04E-06,  avg # of iterations = 10.0

     total cpu time spent up to now is        6.1 secs

     total energy              =    -501.44070299 Ry
     estimated scf accuracy    <       0.03094814 Ry

     iteration #  9     ecut=    30.00 Ry     beta= 0.50
     Davidson diagonalization with overlap
     ethr =  7.04E-06,  avg # of iterations =  2.0

     total cpu time spent up to now is        6.2 secs

     total energy              =    -501.44304258 Ry
     estimated scf accuracy    <       0.00132017 Ry

     iteration # 10     ecut=    30.00 Ry     beta= 0.50
     Davidson diagonalization with overlap
     ethr =  5.16E-07,  avg # of iterations =  9.0

     total cpu time spent up to now is        6.3 secs

     total energy              =    -501.44332847 Ry
     estimated scf accuracy    <       0.00071508 Ry

     iteration # 11     ecut=    30.00 Ry     beta= 0.50
     Davidson diagonalization with overlap
     ethr =  2.79E-07,  avg # of iterations =  3.0

     total cpu time spent up to now is        6.4 secs

     total energy              =    -501.44335829 Ry
     estimated scf accuracy    <       0.00058852 Ry

     iteration # 12     ecut=    30.00 Ry     beta= 0.50
     Davidson diagonalization with overlap
     ethr =  2.30E-07,  avg # of iterations =  2.0

     total cpu time spent up to now is        6.5 secs

     total energy              =    -501.44339581 Ry
     estimated scf accuracy    <       0.00029980 Ry

     iteration # 13     ecut=    30.00 Ry     beta= 0.50
     Davidson diagonalization with overlap
     ethr =  1.17E-07,  avg # of iterations =  2.0

     total cpu time spent up to now is        6.6 secs

     total energy              =    -501.44339826 Ry
     estimated scf accuracy    <       0.00050072 Ry

     iteration # 14     ecut=    30.00 Ry     beta= 0.50
     Davidson diagonalization with overlap
     ethr =  1.17E-07,  avg # of iterations =  2.0

     total cpu time spent up to now is        6.7 secs

     total energy              =    -501.44343020 Ry
     estimated scf accuracy    <       0.00001317 Ry

     iteration # 15     ecut=    30.00 Ry     beta= 0.50
     Davidson diagonalization with overlap
     ethr =  5.14E-09,  avg # of iterations =  4.0

     total cpu time spent up to now is        6.8 secs

     total energy              =    -501.44343273 Ry
     estimated scf accuracy    <       0.00001002 Ry

     iteration # 16     ecut=    30.00 Ry     beta= 0.50
     Davidson diagonalization with overlap
     ethr =  3.92E-09,  avg # of iterations =  3.0

     total cpu time spent up to now is        6.9 secs

     total energy              =    -501.44343137 Ry
     estimated scf accuracy    <       0.00005774 Ry

     iteration # 17     ecut=    30.00 Ry     beta= 0.50
     Davidson diagonalization with overlap
     ethr =  3.92E-09,  avg # of iterations =  3.0

     total cpu time spent up to now is        7.0 secs

     total energy              =    -501.44343468 Ry
     estimated scf accuracy    <       0.00000288 Ry

     iteration # 18     ecut=    30.00 Ry     beta= 0.50
     Davidson diagonalization with overlap
     ethr =  1.12E-09,  avg # of iterations =  3.0

     total cpu time spent up to now is        7.1 secs

     total energy              =    -501.44343490 Ry
     estimated scf accuracy    <       0.00000348 Ry

     iteration # 19     ecut=    30.00 Ry     beta= 0.50
     Davidson diagonalization with overlap
     ethr =  1.12E-09,  avg # of iterations =  2.0

     total cpu time spent up to now is        7.2 secs

     End of self-consistent calculation

          k = 0.0000 0.0000 0.0000 ( 11288 PWs)   bands (ev):

    -5.3180  -4.3696  -4.1470  -4.1040  -4.0068  -3.9357  -3.8959  -3.2504
    -3.1394  -3.0733  -3.0169  -2.9101  -2.8585  -2.8213  -2.7562  -2.7425
    -2.6200  -2.5440  -2.4923  -1.9165  -1.8601  -1.8019  -1.6630  -1.6198
    -1.5279  -1.4354  -1.2410  -0.8856  -0.7300  -0.6616  -0.4771  -0.4439
    -0.1108  -0.0367   0.0617   0.1436   0.1848   0.2255   0.3363   0.4392
     0.4998   0.5572   0.6601   0.7068   0.7536   0.7869   0.9469   1.0485
     1.1041   1.1831   1.2953   1.3242   1.4190   1.5220   1.5858   1.7212
     1.8363   1.8511   1.9397   2.0541   2.0861   2.3135   2.3510   2.4662
     2.5750   2.6819   2.7275   2.7780   2.8393   2.9042   2.9892   3.1204
     3.1768   3.2105   3.2654   3.4237   3.4454   3.5075   3.6498   3.7211
     3.7932   4.2852   4.3338   4.4526   4.5336   4.6566   4.7243   4.7405
     4.8091   4.8799   4.9556   5.0743   5.1439   5.1751   5.2087   5.2866
     5.3561   5.4450   5.5450   5.5534   5.6209   5.6550   5.7154   5.7455
     5.8553   5.9044   5.9391   6.0317   6.0674   6.0960   6.1332   6.1906
     6.2882   6.3034   6.3708   6.4241   6.4910   6.6088   6.6189   6.6541
     6.7138   6.7958   6.8262   6.8452   6.9567   6.9940   7.1463   7.1548
     7.2017   7.2547   7.3130   7.3363   7.4125   7.4774   7.5517   7.6241
     7.6915   7.7059   7.7489   7.8219   7.8798   7.9820   8.0213   8.0494
     8.1499   8.2564   8.3180   8.4013   8.4319   8.4768   8.5118   8.5977
     8.6686   8.8239

     the Fermi energy is     7.1676 ev

!    total energy              =    -501.44343451 Ry
     estimated scf accuracy    <       0.00000085 Ry
     smearing contrib. (-TS)   =      -0.15278761 Ry
     internal energy E=F+TS    =    -501.29064690 Ry

     The total energy is F=E-TS. E is the sum of the following terms:
     one-electron contribution =     192.07272243 Ry
     hartree contribution      =      22.61771823 Ry
     xc contribution           =    -150.46909261 Ry
     ewald contribution        =    -565.51199495 Ry

     convergence has been achieved in  19 iterations

     Forces acting on atoms (cartesian axes, Ry/au):

     atom    1 type  1   force =     0.00122945   -0.00719150    0.00979896
     atom    2 type  1   force =     0.00272542    0.00176195   -0.00695193
     atom    3 type  1   force =     0.00959550   -0.02148709    0.02641936
     atom    4 type  1   force =    -0.03018309   -0.01568222    0.01802543
     atom    5 type  1   force =     0.00873578   -0.00391505    0.02471316
     atom    6 type  1   force =    -0.00699837   -0.02142416    0.03489798
     atom    7 type  1   force =     0.00588615    0.01326258   -0.05126637
     atom    8 type  1   force =    -0.02198524    0.01610601   -0.03424842
     atom    9 type  1   force =     0.04490590   -0.00163388    0.02539354
     atom   10 type  1   force =     0.00117046    0.06633360   -0.01927792
     atom   11 type  1   force =     0.01055179    0.00806078    0.00662027
     atom   12 type  1   force =    -0.00082689    0.00058682   -0.00753855
     atom   13 type  1   force =     0.04938812    0.02232135    0.00754776
     atom   14 type  1   force =    -0.01581400    0.03235185   -0.03474086
     atom   15 type  1   force =    -0.02316741    0.00172814    0.00936147
     atom   16 type  1   force =     0.02072629   -0.02474636    0.00097377
     atom   17 type  1   force =    -0.02686791    0.01233503    0.00384522
     atom   18 type  1   force =     0.00365968   -0.02407607    0.01832015
     atom   19 type  1   force =    -0.00354464   -0.00700399    0.02281173
     atom   20 type  1   force =    -0.02094969   -0.00260711   -0.02255146
     atom   21 type  1   force =     0.00143521   -0.00711855   -0.00133612
     atom   22 type  1   force =     0.02287795   -0.00532239   -0.04621160
     atom   23 type  1   force =     0.01794105   -0.05474143   -0.00931720
     atom   24 type  1   force =    -0.00530432    0.00864601    0.01467131
     atom   25 type  1   force =    -0.01482037   -0.00776615    0.02237701
     atom   26 type  1   force =     0.04262239   -0.05854129   -0.00386570
     atom   27 type  1   force =    -0.02313532    0.01856051   -0.00062377
     atom   28 type  1   force =     0.03153861    0.02393107    0.00738219
     atom   29 type  1   force =    -0.00297039   -0.00318929   -0.02001662
     atom   30 type  1   force =     0.02068728   -0.04053698   -0.01391381
     atom   31 type  1   force =    -0.02669371    0.04613954    0.01512965
     atom   32 type  1   force =    -0.00982686    0.01062556   -0.00155754
     atom   33 type  1   force =     0.00105954    0.00332849   -0.00225220
     atom   34 type  1   force =    -0.03545443   -0.00810316   -0.01648499
     atom   35 type  1   force =     0.00753438   -0.00826872   -0.03148178
     atom   36 type  1   force =    -0.00322460    0.00340284    0.01183112
     atom   37 type  1   force =    -0.00558648    0.02981840    0.01351223
     atom   38 type  1   force =    -0.00847880   -0.04594846    0.01404888
     atom   39 type  1   force =     0.00314454   -0.00936319   -0.00753552
     atom   40 type  1   force =     0.00311190    0.01902875    0.01243706
     atom   41 type  1   force =     0.00996498    0.00043677   -0.00076636
     atom   42 type  1   force =     0.01147596    0.00693131   -0.02265007
     atom   43 type  1   force =     0.04212964   -0.02537052    0.03053764
     atom   44 type  1   force =    -0.02534786   -0.00894973    0.02227678
     atom   45 type  1   force =    -0.04781700    0.01885810   -0.00311578
     atom   46 type  1   force =     0.02468090    0.03365116   -0.01222351
     atom   47 type  1   force =    -0.02780055    0.00834029    0.03763303
     atom   48 type  1   force =     0.01532912   -0.00020599   -0.02877297
     atom   49 type  1   force =     0.00470195   -0.05903558    0.00332260
     atom   50 type  1   force =    -0.02154921    0.03343881    0.00912957
     atom   51 type  1   force =     0.01724345    0.02217035    0.01875231
     atom   52 type  1   force =    -0.03970605   -0.00000972   -0.00801461
     atom   53 type  1   force =    -0.01532502   -0.00668880    0.03396662
     atom   54 type  1   force =    -0.00775044    0.00710186   -0.06787513
     atom   55 type  1   force =     0.00481000   -0.00398050    0.00411649
     atom   56 type  1   force =     0.00553292   -0.00377817    0.00192747
     atom   57 type  1   force =     0.01646612   -0.03270397    0.00089875
     atom   58 type  1   force =     0.01860507    0.02214138    0.00482078
     atom   59 type  1   force =     0.01920915   -0.01838282   -0.00141168
     atom   60 type  1   force =     0.01553558   -0.03641093   -0.01754652
     atom   61 type  1   force =     0.02139682    0.03813965   -0.01428262
     atom   62 type  1   force =    -0.01060355    0.01935331    0.03477772
     atom   63 type  1   force =    -0.05459080    0.01301356   -0.02783266
     atom   64 type  1   force =    -0.00128605    0.01227795    0.01338629

     Total force =     0.310952     Total SCF correction =     0.001819


     Computing stress (Cartesian axis) and pressure

          total   stress  (Ry/bohr**3)                   (kbar)     P=      -41.77
  -0.00016474  -0.00005736  -0.00003549          -24.23       -8.44       -5.22
  -0.00005736  -0.00033636   0.00001743           -8.44      -49.48        2.56
  -0.00003549   0.00001743  -0.00035080           -5.22        2.56      -51.60

 
     init_run     :      1.08s CPU      4.94s WALL (       1 calls)
     electrons    :      2.05s CPU      2.20s WALL (       1 calls)
     forces       :      0.04s CPU      0.04s WALL (       1 calls)
     stress       :      0.15s CPU      0.15s WALL (       1 calls)

     Called by init_run:
     wfcinit      :      0.53s CPU      4.22s WALL (       1 calls)
                                        4.22s GPU  (       1 calls)
     potinit      :      0.05s CPU      0.15s WALL (       1 calls)
     hinit0       :      0.47s CPU      0.50s WALL (       1 calls)

     Called by electrons:
     c_bands      :      1.23s CPU      1.30s WALL (      20 calls)
     sum_band     :      0.40s CPU      0.44s WALL (      20 calls)
     v_of_rho     :      0.20s CPU      0.30s WALL (      20 calls)
     mix_rho      :      0.19s CPU      0.21s WALL (      20 calls)

     Called by c_bands:
     init_us_2    :      0.07s CPU      0.08s WALL (      41 calls)
     init_us_2:gp :      0.07s CPU      0.08s WALL (      41 calls)
     regterg      :      1.05s CPU      1.12s WALL (      20 calls)

     Called by *egterg:
     rdiaghg      :      0.43s CPU      1.19s WALL (      89 calls)
                                        1.17s GPU  (      89 calls)
     h_psi        :      0.96s CPU      3.93s WALL (      91 calls)
                                        3.93s GPU  (      91 calls)
     g_psi        :      0.00s CPU      0.00s WALL (      70 calls)
                                        0.00s GPU  (      70 calls)

     Called by h_psi:
     h_psi:calbec :      0.50s CPU      3.39s WALL (      91 calls)
                                        3.39s GPU  (      91 calls)
     vloc_psi     :      0.41s CPU      0.48s WALL (      91 calls)
                                        0.48s GPU  (      91 calls)
     add_vuspsi   :      0.03s CPU      0.05s WALL (      91 calls)
                                        0.05s GPU  (      91 calls)

     General routines
     calbec       :      0.51s CPU      3.39s WALL (      96 calls)
     fft          :      0.64s CPU      0.77s WALL (     167 calls)
                                        0.14s GPU  (     106 calls)
     ffts         :      0.05s CPU      0.06s WALL (      20 calls)
     fftw         :      0.49s CPU      0.64s WALL (    2114 calls)
                                        0.56s GPU  (    2114 calls)
 
     Parallel routines
 
     PWSCF        :      3.36s CPU      7.42s WALL

 
   This run was terminated on:  11: 3:31  10May2023            

=------------------------------------------------------------------------------=
   JOB DONE.
=------------------------------------------------------------------------------=
