An instance of this daemon is already running
An instance of this daemon is already running

     Program PWSCF v.7.1 starts on 10May2023 at 10:55:47 

     This program is part of the open-source Quantum ESPRESSO suite
     for quantum simulation of materials; please cite
         "P. Giannozzi et al., J. Phys.:Condens. Matter 21 395502 (2009);
         "P. Giannozzi et al., J. Phys.:Condens. Matter 29 465901 (2017);
         "P. Giannozzi et al., J. Chem. Phys. 152 154105 (2020);
          URL http://www.quantum-espresso.org", 
     in publications or presentations arising from this work. More details at
     http://www.quantum-espresso.org/quote

     Parallel version (MPI & OpenMP), running on       4 processor cores
     Number of MPI processes:                 4
     Threads/MPI process:                     1

     MPI processes distributed on     1 nodes
     753549 MiB available memory on the printing compute node when the environment starts
 
     Reading input from pw-si-11.in
Warning: card &CELL ignored
Warning: card / ignored

     Current dimensions of program PWSCF are:
     Max number of different atomic species (ntypx) = 10
     Max number of k-points (npk) =  40000
     Max angular momentum in pseudopotentials (lmaxx) =  4

     IMPORTANT: XC functional enforced from input :
     Exchange-correlation= PBE
                           (   1   4   3   4   0   0   0)
     Any further DFT definition will be discarded
     Please, verify this is what you really want


     gamma-point specific algorithms are used
 
     K-points division:     npool     =       2
     R & G space division:  proc/nbgrp/npool/nimage =       2
     Subspace diagonalization in iterative solution of the eigenvalue problem:
     a serial algorithm will be used

     Message from routine divide_et_impera:
     suboptimal parallelization: some nodes have no k-points
 
     Parallelization info
     --------------------
     sticks:   dense  smooth     PW     G-vecs:    dense   smooth      PW
     Min        1934    1934    515                90353    90353   12286
     Max        1935    1935    518                90354    90354   12287
     Sum        3869    3869   1033               180707   180707   24573
 
     Using Slab Decomposition
 


     bravais-lattice index     =            0
     lattice parameter (alat)  =      20.1143  a.u.
     unit-cell volume          =    8137.8979 (a.u.)^3
     number of atoms/cell      =           64
     number of atomic types    =            1
     number of electrons       =       256.00
     number of Kohn-Sham states=          154
     kinetic-energy cutoff     =      30.0000  Ry
     charge density cutoff     =     120.0000  Ry
     scf convergence threshold =      1.0E-06
     mixing beta               =       0.5000
     number of iterations used =            8  plain     mixing
     Exchange-correlation= PBE
                           (   1   4   3   4   0   0   0)

     GPU acceleration is ACTIVE.
     GPU-aware MPI enabled

     Message from routine print_cuda_info:
     High GPU oversubscription detected. Are you sure this is what you want?

     celldm(1)=  20.114261  celldm(2)=   0.000000  celldm(3)=   0.000000
     celldm(4)=   0.000000  celldm(5)=   0.000000  celldm(6)=   0.000000

     crystal axes: (cart. coord. in units of alat)
               a(1) = (   1.000000   0.000000   0.000000 )  
               a(2) = (   0.000000   1.000000   0.000000 )  
               a(3) = (   0.000000   0.000000   1.000000 )  

     reciprocal axes: (cart. coord. in units 2 pi/alat)
               b(1) = (  1.000000  0.000000  0.000000 )  
               b(2) = (  0.000000  1.000000  0.000000 )  
               b(3) = (  0.000000  0.000000  1.000000 )  


     PseudoPot. # 1 for Si read from file:
     /home/ppiaggi/pseudos/Si_ONCV_PBE_sr.upf
     MD5 check sum: 8553c464762ac42b85b1eed164b4d029
     Pseudo is Norm-conserving, Zval =  4.0
     Generated using ONCVPSP code by D. R. Hamann
     Using radial grid of 1510 points,  4 beta functions with: 
                l(1) =   0
                l(2) =   0
                l(3) =   1
                l(4) =   1

     atomic species   valence    mass     pseudopotential
        Si             4.00    28.08500     Si( 1.00)

     No symmetry found



   Cartesian axes

     site n.     atom                  positions (alat units)
         1           Si  tau(   1) = (   0.4928720   0.4075240   0.5927880  )
         2           Si  tau(   2) = (   0.8602930   0.1147640   0.3082910  )
         3           Si  tau(   3) = (   0.5730320   0.4549280   0.3785140  )
         4           Si  tau(   4) = (   0.6993590   0.4516510   0.7277980  )
         5           Si  tau(   5) = (   0.4547070   0.8093350   0.8364580  )
         6           Si  tau(   6) = (   0.8278170   0.6655580   0.6335500  )
         7           Si  tau(   7) = (   0.6101650   0.3105920   0.0590341  )
         8           Si  tau(   8) = (   0.5378320   0.4766150   0.9224370  )
         9           Si  tau(   9) = (   0.2821680   0.5581910   0.5963390  )
        10           Si  tau(  10) = (   0.1197590   0.2420430   0.3140940  )
        11           Si  tau(  11) = (   0.5224920   0.0039487   0.9912640  )
        12           Si  tau(  12) = (   0.0116366   0.5517550   0.5060070  )
        13           Si  tau(  13) = (   0.1331050   0.2020100   0.8411420  )
        14           Si  tau(  14) = (   0.3309990   0.3707270   0.1226070  )
        15           Si  tau(  15) = (   0.1414740   0.7560100   0.6149770  )
        16           Si  tau(  16) = (   0.0205100   0.9113910   0.2694810  )
        17           Si  tau(  17) = (   0.7150250   0.6406970   0.2257760  )
        18           Si  tau(  18) = (   0.3724550   0.9963000   0.4959950  )
        19           Si  tau(  19) = (   0.1188730   0.3379670   0.6117090  )
        20           Si  tau(  20) = (   0.7923460   0.7856340   0.4267440  )
        21           Si  tau(  21) = (   0.8065360   0.9372960   0.0488037  )
        22           Si  tau(  22) = (   0.8901790   0.3550070   0.7232010  )
        23           Si  tau(  23) = (   0.0140547   0.7629860   0.7909110  )
        24           Si  tau(  24) = (   0.4102530   0.7298290   0.2874400  )
        25           Si  tau(  25) = (   0.9920820   0.5345590   0.8646370  )
        26           Si  tau(  26) = (   0.2101890   0.4863950   0.7932680  )
        27           Si  tau(  27) = (   0.5588540   0.7541500   0.0732186  )
        28           Si  tau(  28) = (   0.1923150   0.6071990   0.2089420  )
        29           Si  tau(  29) = (   0.3338590   0.0984220   0.9861790  )
        30           Si  tau(  30) = (   0.4755390   0.2701100   0.2633750  )
        31           Si  tau(  31) = (   0.8914060   0.9489310   0.7607140  )
        32           Si  tau(  32) = (   0.7872710   0.2208360   0.5561920  )
        33           Si  tau(  33) = (   0.4077750   0.7559810   0.6359600  )
        34           Si  tau(  34) = (   0.6411970   0.1472210   0.7199210  )
        35           Si  tau(  35) = (   0.8851490   0.2116370   0.1101860  )
        36           Si  tau(  36) = (   0.1068570   0.3113770   0.0770208  )
        37           Si  tau(  37) = (   0.8448080   0.7151480   0.0116639  )
        38           Si  tau(  38) = (   0.2235750   0.8133770   0.3925460  )
        39           Si  tau(  39) = (   0.6526070   0.9061400   0.7293400  )
        40           Si  tau(  40) = (   0.1714810   0.0404615   0.6384980  )
        41           Si  tau(  41) = (   0.9811960   0.1712450   0.5003010  )
        42           Si  tau(  42) = (   0.2638060   0.6748470   0.9171720  )
        43           Si  tau(  43) = (   0.5801010   0.9371270   0.5137330  )
        44           Si  tau(  44) = (   0.7969190   0.4058500   0.4070510  )
        45           Si  tau(  45) = (   0.2393730   0.0215797   0.2235740  )
        46           Si  tau(  46) = (   0.5346010   0.6725750   0.4490250  )
        47           Si  tau(  47) = (   0.7031630   0.1382870   0.9432260  )
        48           Si  tau(  48) = (   0.6941490   0.9489940   0.2562740  )
        49           Si  tau(  49) = (   0.4630630   0.9547490   0.2261980  )
        50           Si  tau(  50) = (   0.2248540   0.9197670   0.8339000  )
        51           Si  tau(  51) = (   0.7702570   0.4161820   0.1511930  )
        52           Si  tau(  52) = (   0.9613760   0.6396310   0.2821460  )
        53           Si  tau(  53) = (   0.2475770   0.4731990   0.3925880  )
        54           Si  tau(  54) = (   0.9657710   0.4953260   0.0873966  )
        55           Si  tau(  55) = (   0.0897577   0.9748410   0.0043497  )
        56           Si  tau(  56) = (   0.3827520   0.5811470   0.0662717  )
        57           Si  tau(  57) = (   0.9463350   0.1173660   0.8856330  )
        58           Si  tau(  58) = (   0.6991480   0.6881430   0.8365300  )
        59           Si  tau(  59) = (   0.9456640   0.9202430   0.5144260  )
        60           Si  tau(  60) = (   0.3111470   0.2288890   0.4371190  )
        61           Si  tau(  61) = (   0.3872470   0.3127440   0.8510930  )
        62           Si  tau(  62) = (   0.0893853   0.7584500   0.0470440  )
        63           Si  tau(  63) = (   0.4067320   0.1987750   0.6531740  )
        64           Si  tau(  64) = (   0.6349460   0.1542560   0.3914510  )

     number of k points=     1  Fermi-Dirac smearing, width (Ry)=  0.0100
                       cart. coord. in units 2pi/alat
        k(    1) = (   0.0000000   0.0000000   0.0000000), wk =   2.0000000

     Dense  grid:    90354 G-vectors     FFT dimensions: (  72,  72,  72)

     Estimated max dynamical RAM per process >     145.05 MB

     Estimated total dynamical RAM >     558.14 MB

     Initial potential from superposition of free atoms

     starting charge     255.9608, renormalised to     256.0000
     Starting wfcs are  256 randomized atomic wfcs

     total cpu time spent up to now is        5.0 secs

     Self-consistent Calculation

     iteration #  1     ecut=    30.00 Ry     beta= 0.50
     Davidson diagonalization with overlap
     ethr =  1.00E-02,  avg # of iterations =  3.0

     Threshold (ethr) on eigenvalues was too large:
     Diagonalizing with lowered threshold

     Davidson diagonalization with overlap
     ethr =  3.42E-04,  avg # of iterations =  5.0

     total cpu time spent up to now is        5.3 secs

     total energy              =    -501.22932372 Ry
     estimated scf accuracy    <       1.06103050 Ry

     iteration #  2     ecut=    30.00 Ry     beta= 0.50
     Davidson diagonalization with overlap
     ethr =  4.14E-04,  avg # of iterations =  4.0

     total cpu time spent up to now is        5.4 secs

     total energy              =    -501.01656460 Ry
     estimated scf accuracy    <       2.19281245 Ry

     iteration #  3     ecut=    30.00 Ry     beta= 0.50
     Davidson diagonalization with overlap
     ethr =  4.14E-04,  avg # of iterations =  3.0

     total cpu time spent up to now is        5.5 secs

     total energy              =    -501.19776574 Ry
     estimated scf accuracy    <       1.98829630 Ry

     iteration #  4     ecut=    30.00 Ry     beta= 0.50
     Davidson diagonalization with overlap
     ethr =  4.14E-04,  avg # of iterations =  3.0

     total cpu time spent up to now is        5.6 secs

     total energy              =    -501.33234373 Ry
     estimated scf accuracy    <       0.80244830 Ry

     iteration #  5     ecut=    30.00 Ry     beta= 0.50
     Davidson diagonalization with overlap
     ethr =  3.13E-04,  avg # of iterations =  2.0

     total cpu time spent up to now is        5.7 secs

     total energy              =    -501.38454634 Ry
     estimated scf accuracy    <       0.18386363 Ry

     iteration #  6     ecut=    30.00 Ry     beta= 0.50
     Davidson diagonalization with overlap
     ethr =  7.18E-05,  avg # of iterations =  3.0

     total cpu time spent up to now is        5.8 secs

     total energy              =    -501.40656505 Ry
     estimated scf accuracy    <       0.17032988 Ry

     iteration #  7     ecut=    30.00 Ry     beta= 0.50
     Davidson diagonalization with overlap
     ethr =  6.65E-05,  avg # of iterations =  2.0

     total cpu time spent up to now is        5.9 secs

     total energy              =    -501.41890182 Ry
     estimated scf accuracy    <       0.01014473 Ry

     iteration #  8     ecut=    30.00 Ry     beta= 0.50
     Davidson diagonalization with overlap
     c_bands:  1 eigenvalues not converged
     ethr =  3.96E-06,  avg # of iterations = 20.0

     total cpu time spent up to now is        6.1 secs

     total energy              =    -501.41991131 Ry
     estimated scf accuracy    <       0.01816457 Ry

     iteration #  9     ecut=    30.00 Ry     beta= 0.50
     Davidson diagonalization with overlap
     ethr =  3.96E-06,  avg # of iterations =  3.0

     total cpu time spent up to now is        6.2 secs

     total energy              =    -501.42135615 Ry
     estimated scf accuracy    <       0.00442105 Ry

     iteration # 10     ecut=    30.00 Ry     beta= 0.50
     Davidson diagonalization with overlap
     ethr =  1.73E-06,  avg # of iterations =  2.0

     total cpu time spent up to now is        6.3 secs

     total energy              =    -501.42168378 Ry
     estimated scf accuracy    <       0.00056439 Ry

     iteration # 11     ecut=    30.00 Ry     beta= 0.50
     Davidson diagonalization with overlap
     ethr =  2.20E-07,  avg # of iterations =  4.0

     total cpu time spent up to now is        6.4 secs

     total energy              =    -501.42171034 Ry
     estimated scf accuracy    <       0.00084177 Ry

     iteration # 12     ecut=    30.00 Ry     beta= 0.50
     Davidson diagonalization with overlap
     ethr =  2.20E-07,  avg # of iterations =  2.0

     total cpu time spent up to now is        6.5 secs

     total energy              =    -501.42179052 Ry
     estimated scf accuracy    <       0.00018414 Ry

     iteration # 13     ecut=    30.00 Ry     beta= 0.50
     Davidson diagonalization with overlap
     ethr =  7.19E-08,  avg # of iterations =  2.0

     total cpu time spent up to now is        6.6 secs

     total energy              =    -501.42180264 Ry
     estimated scf accuracy    <       0.00005044 Ry

     iteration # 14     ecut=    30.00 Ry     beta= 0.50
     Davidson diagonalization with overlap
     ethr =  1.97E-08,  avg # of iterations =  2.0

     total cpu time spent up to now is        6.7 secs

     total energy              =    -501.42180657 Ry
     estimated scf accuracy    <       0.00003084 Ry

     iteration # 15     ecut=    30.00 Ry     beta= 0.50
     Davidson diagonalization with overlap
     ethr =  1.20E-08,  avg # of iterations =  2.0

     total cpu time spent up to now is        6.8 secs

     total energy              =    -501.42180828 Ry
     estimated scf accuracy    <       0.00000971 Ry

     iteration # 16     ecut=    30.00 Ry     beta= 0.50
     Davidson diagonalization with overlap
     ethr =  3.79E-09,  avg # of iterations =  3.0

     total cpu time spent up to now is        6.9 secs

     total energy              =    -501.42180943 Ry
     estimated scf accuracy    <       0.00001401 Ry

     iteration # 17     ecut=    30.00 Ry     beta= 0.50
     Davidson diagonalization with overlap
     ethr =  3.79E-09,  avg # of iterations =  2.0

     total cpu time spent up to now is        7.0 secs

     total energy              =    -501.42181023 Ry
     estimated scf accuracy    <       0.00000119 Ry

     iteration # 18     ecut=    30.00 Ry     beta= 0.50
     Davidson diagonalization with overlap
     ethr =  4.67E-10,  avg # of iterations =  4.0

     total cpu time spent up to now is        7.1 secs

     total energy              =    -501.42181033 Ry
     estimated scf accuracy    <       0.00000107 Ry

     iteration # 19     ecut=    30.00 Ry     beta= 0.50
     Davidson diagonalization with overlap
     ethr =  4.16E-10,  avg # of iterations =  2.0

     total cpu time spent up to now is        7.2 secs

     End of self-consistent calculation

          k = 0.0000 0.0000 0.0000 ( 11324 PWs)   bands (ev):

    -5.2995  -4.4078  -4.2879  -4.1269  -4.0543  -3.9555  -3.7862  -3.4203
    -3.1899  -3.0968  -3.0588  -3.0179  -2.9670  -2.8491  -2.7734  -2.7358
    -2.6868  -2.5118  -2.4581  -2.0389  -1.9465  -1.9243  -1.6950  -1.6396
    -1.4984  -1.3055  -1.0395  -0.8422  -0.8116  -0.7281  -0.5692  -0.5207
    -0.2787  -0.2120  -0.0921   0.0296   0.0759   0.1736   0.3340   0.3826
     0.4016   0.4753   0.5912   0.6416   0.7825   0.8433   0.8940   0.9891
     1.1141   1.1330   1.1653   1.2362   1.4115   1.5890   1.6339   1.7296
     1.8984   1.9279   2.0597   2.1521   2.2154   2.2754   2.3880   2.4497
     2.5095   2.5970   2.6360   2.7017   2.8080   2.8424   2.8833   2.9784
     3.0512   3.1357   3.2200   3.3393   3.4406   3.6001   3.6409   3.7183
     3.7563   4.2696   4.2981   4.3902   4.5079   4.5645   4.6615   4.6781
     4.7747   4.9120   4.9278   5.0638   5.1134   5.1401   5.1928   5.2223
     5.3068   5.4176   5.4303   5.4707   5.5621   5.5792   5.6332   5.6771
     5.7390   5.8656   5.9544   5.9900   6.0461   6.0942   6.1835   6.1932
     6.2102   6.3108   6.3349   6.3687   6.4366   6.4666   6.5486   6.6289
     6.7168   6.8162   6.8682   6.8878   6.9301   6.9911   7.0673   7.1176
     7.1344   7.2786   7.3267   7.3794   7.4175   7.4615   7.5217   7.6023
     7.6205   7.6965   7.7563   7.8449   7.9109   7.9614   8.0118   8.0753
     8.1307   8.1447   8.2490   8.3693   8.4140   8.4447   8.5000   8.5874
     8.6560   8.7201

     the Fermi energy is     7.1526 ev

!    total energy              =    -501.42181018 Ry
     estimated scf accuracy    <       0.00000035 Ry
     smearing contrib. (-TS)   =      -0.15079331 Ry
     internal energy E=F+TS    =    -501.27101687 Ry

     The total energy is F=E-TS. E is the sum of the following terms:
     one-electron contribution =     195.13698780 Ry
     hartree contribution      =      20.78438957 Ry
     xc contribution           =    -150.51772429 Ry
     ewald contribution        =    -566.67466995 Ry

     convergence has been achieved in  19 iterations

     Forces acting on atoms (cartesian axes, Ry/au):

     atom    1 type  1   force =     0.01048474    0.01576410   -0.00986197
     atom    2 type  1   force =    -0.00179515   -0.02608270    0.00117747
     atom    3 type  1   force =     0.00378630   -0.00098339    0.03325549
     atom    4 type  1   force =    -0.06982672    0.04009044    0.00580413
     atom    5 type  1   force =     0.00147800    0.02592592    0.06471820
     atom    6 type  1   force =     0.02038221   -0.00576630    0.00742317
     atom    7 type  1   force =    -0.01355903   -0.01833908   -0.00394692
     atom    8 type  1   force =     0.01211546   -0.02385944   -0.01187672
     atom    9 type  1   force =     0.02826105    0.00523284    0.00147229
     atom   10 type  1   force =     0.00757652   -0.01229610   -0.01391230
     atom   11 type  1   force =     0.03138526   -0.06322980    0.02024612
     atom   12 type  1   force =    -0.01159040   -0.00911160   -0.01066505
     atom   13 type  1   force =     0.06131736    0.02764516   -0.01044556
     atom   14 type  1   force =    -0.03166146    0.00175249   -0.01514150
     atom   15 type  1   force =     0.01787164   -0.01339865   -0.06301769
     atom   16 type  1   force =     0.01683403   -0.01480799    0.02772639
     atom   17 type  1   force =     0.00565357   -0.00299208   -0.01212562
     atom   18 type  1   force =    -0.07356100   -0.00200371    0.00231616
     atom   19 type  1   force =    -0.02899326    0.01099444   -0.00383563
     atom   20 type  1   force =    -0.04797308   -0.00187888   -0.02244377
     atom   21 type  1   force =    -0.02376027    0.01663993   -0.00163204
     atom   22 type  1   force =     0.05185147    0.00376091    0.01514051
     atom   23 type  1   force =    -0.02912011   -0.02504215    0.02670999
     atom   24 type  1   force =    -0.03856062    0.02337610   -0.04724414
     atom   25 type  1   force =    -0.00291122   -0.00193996   -0.03254583
     atom   26 type  1   force =     0.00705384   -0.03089061    0.02147217
     atom   27 type  1   force =     0.01189295   -0.00343553    0.00549709
     atom   28 type  1   force =    -0.00002194    0.01717231   -0.00086204
     atom   29 type  1   force =    -0.08404321    0.04226232    0.00970512
     atom   30 type  1   force =     0.01705698    0.02442858    0.00471985
     atom   31 type  1   force =    -0.02866208   -0.02329909   -0.04153191
     atom   32 type  1   force =    -0.06965279    0.04492866    0.01276784
     atom   33 type  1   force =    -0.02954760   -0.00698386   -0.06700569
     atom   34 type  1   force =    -0.02163092   -0.02324378   -0.00194392
     atom   35 type  1   force =    -0.00046752    0.01455981   -0.02563382
     atom   36 type  1   force =     0.00406457    0.00022141    0.00744801
     atom   37 type  1   force =     0.00810614    0.00568117    0.01022262
     atom   38 type  1   force =    -0.00205994    0.03225242    0.00382614
     atom   39 type  1   force =     0.01622798    0.01721857   -0.00832726
     atom   40 type  1   force =     0.00837092    0.01276448   -0.00419103
     atom   41 type  1   force =     0.08318472   -0.03546603   -0.02505902
     atom   42 type  1   force =    -0.01012154    0.02672068   -0.02299855
     atom   43 type  1   force =     0.04717216   -0.00579151    0.00304562
     atom   44 type  1   force =    -0.00352301    0.00271958   -0.01564284
     atom   45 type  1   force =    -0.03385836    0.03507287   -0.02881285
     atom   46 type  1   force =     0.03900851   -0.00785456    0.02370395
     atom   47 type  1   force =     0.01023996   -0.02527861    0.00867916
     atom   48 type  1   force =     0.02043940   -0.01135193    0.01318743
     atom   49 type  1   force =     0.01125462   -0.01608584   -0.02238933
     atom   50 type  1   force =     0.02442427   -0.00821037   -0.01062080
     atom   51 type  1   force =     0.02958936    0.02062471    0.05456403
     atom   52 type  1   force =    -0.01235882    0.00308443    0.01374701
     atom   53 type  1   force =    -0.02946424   -0.03920151    0.00657652
     atom   54 type  1   force =     0.03084338    0.00314210   -0.00213727
     atom   55 type  1   force =     0.02441724    0.00576803    0.01760072
     atom   56 type  1   force =     0.03448546    0.00199114    0.03114907
     atom   57 type  1   force =    -0.04666994    0.00454302    0.02624011
     atom   58 type  1   force =    -0.01401072   -0.01561736   -0.00221968
     atom   59 type  1   force =     0.03350569    0.02552092    0.01760542
     atom   60 type  1   force =     0.00965886    0.00195886    0.00311055
     atom   61 type  1   force =    -0.02566194    0.02002788    0.01390361
     atom   62 type  1   force =    -0.01020733   -0.02011344    0.00406210
     atom   63 type  1   force =     0.02844130    0.00526180    0.00888321
     atom   64 type  1   force =     0.02683829   -0.04455222    0.01036344

     Total force =     0.360051     Total SCF correction =     0.001170


     Computing stress (Cartesian axis) and pressure

          total   stress  (Ry/bohr**3)                   (kbar)     P=      -38.21
  -0.00019888  -0.00000125   0.00000153          -29.26       -0.18        0.23
  -0.00000125  -0.00034929   0.00000336           -0.18      -51.38        0.49
   0.00000153   0.00000336  -0.00023116            0.23        0.49      -34.00

 
     init_run     :      1.07s CPU      4.93s WALL (       1 calls)
     electrons    :      2.01s CPU      2.18s WALL (       1 calls)
     forces       :      0.04s CPU      0.04s WALL (       1 calls)
     stress       :      0.15s CPU      0.16s WALL (       1 calls)

     Called by init_run:
     wfcinit      :      0.54s CPU      4.21s WALL (       1 calls)
                                        4.21s GPU  (       1 calls)
     potinit      :      0.05s CPU      0.14s WALL (       1 calls)
     hinit0       :      0.47s CPU      0.50s WALL (       1 calls)

     Called by electrons:
     c_bands      :      1.20s CPU      1.28s WALL (      20 calls)
     sum_band     :      0.39s CPU      0.44s WALL (      20 calls)
     v_of_rho     :      0.19s CPU      0.30s WALL (      20 calls)
     mix_rho      :      0.19s CPU      0.20s WALL (      20 calls)

     Called by c_bands:
     init_us_2    :      0.07s CPU      0.08s WALL (      41 calls)
     init_us_2:gp :      0.07s CPU      0.08s WALL (      41 calls)
     regterg      :      1.02s CPU      1.10s WALL (      20 calls)

     Called by *egterg:
     rdiaghg      :      0.41s CPU      1.18s WALL (      92 calls)
                                        1.16s GPU  (      92 calls)
     h_psi        :      0.97s CPU      3.93s WALL (      94 calls)
                                        3.92s GPU  (      94 calls)
     g_psi        :      0.00s CPU      0.00s WALL (      73 calls)
                                        0.00s GPU  (      73 calls)

     Called by h_psi:
     h_psi:calbec :      0.51s CPU      3.39s WALL (      94 calls)
                                        3.38s GPU  (      94 calls)
     vloc_psi     :      0.40s CPU      0.47s WALL (      94 calls)
                                        0.47s GPU  (      94 calls)
     add_vuspsi   :      0.04s CPU      0.05s WALL (      94 calls)
                                        0.05s GPU  (      94 calls)

     General routines
     calbec       :      0.52s CPU      3.39s WALL (      99 calls)
     fft          :      0.63s CPU      0.76s WALL (     167 calls)
                                        0.13s GPU  (     106 calls)
     ffts         :      0.04s CPU      0.05s WALL (      20 calls)
     fftw         :      0.48s CPU      0.63s WALL (    2110 calls)
                                        0.55s GPU  (    2110 calls)
 
     Parallel routines
 
     PWSCF        :      3.32s CPU      7.39s WALL

 
   This run was terminated on:  10:55:54  10May2023            

=------------------------------------------------------------------------------=
   JOB DONE.
=------------------------------------------------------------------------------=
