An instance of this daemon is already running

     Program PWSCF v.7.1 starts on 10May2023 at 10:56:35 

     This program is part of the open-source Quantum ESPRESSO suite
     for quantum simulation of materials; please cite
         "P. Giannozzi et al., J. Phys.:Condens. Matter 21 395502 (2009);
         "P. Giannozzi et al., J. Phys.:Condens. Matter 29 465901 (2017);
         "P. Giannozzi et al., J. Chem. Phys. 152 154105 (2020);
          URL http://www.quantum-espresso.org", 
     in publications or presentations arising from this work. More details at
     http://www.quantum-espresso.org/quote

     Parallel version (MPI & OpenMP), running on       4 processor cores
     Number of MPI processes:                 4
     Threads/MPI process:                     1

     MPI processes distributed on     1 nodes
     753546 MiB available memory on the printing compute node when the environment starts
 
     Reading input from pw-si-16.in
Warning: card &CELL ignored
Warning: card / ignored

     Current dimensions of program PWSCF are:
     Max number of different atomic species (ntypx) = 10
     Max number of k-points (npk) =  40000
     Max angular momentum in pseudopotentials (lmaxx) =  4

     IMPORTANT: XC functional enforced from input :
     Exchange-correlation= PBE
                           (   1   4   3   4   0   0   0)
     Any further DFT definition will be discarded
     Please, verify this is what you really want


     gamma-point specific algorithms are used
 
     K-points division:     npool     =       2
     R & G space division:  proc/nbgrp/npool/nimage =       2
     Subspace diagonalization in iterative solution of the eigenvalue problem:
     a serial algorithm will be used

     Message from routine divide_et_impera:
     suboptimal parallelization: some nodes have no k-points
 
     Parallelization info
     --------------------
     sticks:   dense  smooth     PW     G-vecs:    dense   smooth      PW
     Min        1971    1971    520                93009    93009   12668
     Max        1974    1974    521                93014    93014   12673
     Sum        3945    3945   1041               186023   186023   25341
 
     Using Slab Decomposition
 


     bravais-lattice index     =            0
     lattice parameter (alat)  =      20.3104  a.u.
     unit-cell volume          =    8378.3206 (a.u.)^3
     number of atoms/cell      =           64
     number of atomic types    =            1
     number of electrons       =       256.00
     number of Kohn-Sham states=          154
     kinetic-energy cutoff     =      30.0000  Ry
     charge density cutoff     =     120.0000  Ry
     scf convergence threshold =      1.0E-06
     mixing beta               =       0.5000
     number of iterations used =            8  plain     mixing
     Exchange-correlation= PBE
                           (   1   4   3   4   0   0   0)

     GPU acceleration is ACTIVE.
     GPU-aware MPI enabled

     Message from routine print_cuda_info:
     High GPU oversubscription detected. Are you sure this is what you want?

     celldm(1)=  20.310424  celldm(2)=   0.000000  celldm(3)=   0.000000
     celldm(4)=   0.000000  celldm(5)=   0.000000  celldm(6)=   0.000000

     crystal axes: (cart. coord. in units of alat)
               a(1) = (   1.000000   0.000000   0.000000 )  
               a(2) = (   0.000000   1.000000   0.000000 )  
               a(3) = (   0.000000   0.000000   1.000000 )  

     reciprocal axes: (cart. coord. in units 2 pi/alat)
               b(1) = (  1.000000  0.000000  0.000000 )  
               b(2) = (  0.000000  1.000000  0.000000 )  
               b(3) = (  0.000000  0.000000  1.000000 )  


     PseudoPot. # 1 for Si read from file:
     /home/ppiaggi/pseudos/Si_ONCV_PBE_sr.upf
     MD5 check sum: 8553c464762ac42b85b1eed164b4d029
     Pseudo is Norm-conserving, Zval =  4.0
     Generated using ONCVPSP code by D. R. Hamann
     Using radial grid of 1510 points,  4 beta functions with: 
                l(1) =   0
                l(2) =   0
                l(3) =   1
                l(4) =   1

     atomic species   valence    mass     pseudopotential
        Si             4.00    28.08500     Si( 1.00)

     No symmetry found



   Cartesian axes

     site n.     atom                  positions (alat units)
         1           Si  tau(   1) = (   0.1268030   0.6867440   0.7406790  )
         2           Si  tau(   2) = (   0.8162250   0.6226190   0.9054970  )
         3           Si  tau(   3) = (   0.3414310   0.4421350   0.8125750  )
         4           Si  tau(   4) = (   0.9520790   0.0068694   0.8767690  )
         5           Si  tau(   5) = (   0.6148010   0.0324859   0.6142460  )
         6           Si  tau(   6) = (   0.0820620   0.2330410   0.5915060  )
         7           Si  tau(   7) = (   0.6607940   0.7903710   0.3331530  )
         8           Si  tau(   8) = (   0.5178350   0.3263870   0.9956560  )
         9           Si  tau(   9) = (   0.2220140   0.4004250   0.2595820  )
        10           Si  tau(  10) = (   0.0443691   0.6896640   0.2192620  )
        11           Si  tau(  11) = (   0.1985780   0.3160230   0.9195150  )
        12           Si  tau(  12) = (   0.2541750   0.8166430   0.0140798  )
        13           Si  tau(  13) = (   0.3320920   0.0203149   0.8909020  )
        14           Si  tau(  14) = (   0.5071240   0.6786730   0.1592060  )
        15           Si  tau(  15) = (   0.0607775   0.9858980   0.0855284  )
        16           Si  tau(  16) = (   0.2232400   0.9337870   0.2786850  )
        17           Si  tau(  17) = (   0.0075795   0.4661730   0.7680440  )
        18           Si  tau(  18) = (   0.6372960   0.2551300   0.2991320  )
        19           Si  tau(  19) = (   0.0230413   0.1557690   0.3688700  )
        20           Si  tau(  20) = (   0.4276800   0.3447670   0.4310410  )
        21           Si  tau(  21) = (   0.7941930   0.7904410   0.1744360  )
        22           Si  tau(  22) = (   0.7917760   0.4236270   0.4422950  )
        23           Si  tau(  23) = (   0.5588140   0.9738680   0.3934270  )
        24           Si  tau(  24) = (   0.2222870   0.1727360   0.0850313  )
        25           Si  tau(  25) = (   0.8035080   0.1181040   0.4388710  )
        26           Si  tau(  26) = (   0.5373690   0.6884430   0.6518460  )
        27           Si  tau(  27) = (   0.3436120   0.5208440   0.1024120  )
        28           Si  tau(  28) = (   0.6908890   0.2213830   0.7133230  )
        29           Si  tau(  29) = (   0.6197890   0.4797330   0.1446300  )
        30           Si  tau(  30) = (   0.8682040   0.3427970   0.6348580  )
        31           Si  tau(  31) = (   0.0472341   0.7356800   0.9496970  )
        32           Si  tau(  32) = (   0.2004000   0.5130640   0.4687710  )
        33           Si  tau(  33) = (   0.6470540   0.0459841   0.9482500  )
        34           Si  tau(  34) = (   0.5884950   0.8772660   0.7717720  )
        35           Si  tau(  35) = (   0.8751570   0.8346700   0.7653280  )
        36           Si  tau(  36) = (   0.9826390   0.5063380   0.3386310  )
        37           Si  tau(  37) = (   0.1244440   0.5215590   0.0007738  )
        38           Si  tau(  38) = (   0.7511750   0.8341380   0.9704170  )
        39           Si  tau(  39) = (   0.3513630   0.8746220   0.4723660  )
        40           Si  tau(  40) = (   0.9203330   0.9543610   0.2437600  )
        41           Si  tau(  41) = (   0.9741940   0.6440360   0.5306900  )
        42           Si  tau(  42) = (   0.3994740   0.6408760   0.4650710  )
        43           Si  tau(  43) = (   0.2755990   0.7045540   0.2479960  )
        44           Si  tau(  44) = (   0.5787970   0.5193950   0.3739390  )
        45           Si  tau(  45) = (   0.4597930   0.7687300   0.9444940  )
        46           Si  tau(  46) = (   0.0973370   0.9055180   0.6386080  )
        47           Si  tau(  47) = (   0.4708640   0.1268810   0.0547609  )
        48           Si  tau(  48) = (   0.8338060   0.5618810   0.1191450  )
        49           Si  tau(  49) = (   0.9354620   0.3648370   0.9932740  )
        50           Si  tau(  50) = (   0.2328620   0.3848810   0.6335040  )
        51           Si  tau(  51) = (   0.5519880   0.3768310   0.7746580  )
        52           Si  tau(  52) = (   0.3912920   0.2092400   0.6363070  )
        53           Si  tau(  53) = (   0.7986640   0.1663110   0.1590170  )
        54           Si  tau(  54) = (   0.0162180   0.2830200   0.1741610  )
        55           Si  tau(  55) = (   0.2408860   0.1476030   0.3222520  )
        56           Si  tau(  56) = (   0.6981300   0.5306820   0.7306680  )
        57           Si  tau(  57) = (   0.1377160   0.1013430   0.7865160  )
        58           Si  tau(  58) = (   0.3590330   0.9964410   0.6639430  )
        59           Si  tau(  59) = (   0.0240830   0.8469110   0.4184140  )
        60           Si  tau(  60) = (   0.4654190   0.1218970   0.2709310  )
        61           Si  tau(  61) = (   0.7581010   0.6917560   0.5340200  )
        62           Si  tau(  62) = (   0.8290720   0.9030260   0.5591170  )
        63           Si  tau(  63) = (   0.3262590   0.6534400   0.8044230  )
        64           Si  tau(  64) = (   0.8084450   0.1752500   0.9071660  )

     number of k points=     1  Fermi-Dirac smearing, width (Ry)=  0.0100
                       cart. coord. in units 2pi/alat
        k(    1) = (   0.0000000   0.0000000   0.0000000), wk =   2.0000000

     Dense  grid:    93012 G-vectors     FFT dimensions: (  72,  72,  72)

     Estimated max dynamical RAM per process >     148.87 MB

     Estimated total dynamical RAM >     572.77 MB

     Initial potential from superposition of free atoms

     starting charge     255.9608, renormalised to     256.0000
     Starting wfcs are  256 randomized atomic wfcs

     total cpu time spent up to now is        5.0 secs

     Self-consistent Calculation

     iteration #  1     ecut=    30.00 Ry     beta= 0.50
     Davidson diagonalization with overlap
     ethr =  1.00E-02,  avg # of iterations =  3.0

     Threshold (ethr) on eigenvalues was too large:
     Diagonalizing with lowered threshold

     Davidson diagonalization with overlap
     ethr =  4.28E-04,  avg # of iterations =  4.0

     total cpu time spent up to now is        5.3 secs

     total energy              =    -501.32626046 Ry
     estimated scf accuracy    <       1.30028891 Ry

     iteration #  2     ecut=    30.00 Ry     beta= 0.50
     Davidson diagonalization with overlap
     ethr =  5.08E-04,  avg # of iterations =  5.0

     total cpu time spent up to now is        5.4 secs

     total energy              =    -500.70551368 Ry
     estimated scf accuracy    <       7.56287144 Ry

     iteration #  3     ecut=    30.00 Ry     beta= 0.50
     Davidson diagonalization with overlap
     ethr =  5.08E-04,  avg # of iterations =  5.0

     total cpu time spent up to now is        5.5 secs

     total energy              =    -501.43771429 Ry
     estimated scf accuracy    <       1.62884991 Ry

     iteration #  4     ecut=    30.00 Ry     beta= 0.50
     Davidson diagonalization with overlap
     ethr =  5.08E-04,  avg # of iterations =  2.0

     total cpu time spent up to now is        5.6 secs

     total energy              =    -501.53617504 Ry
     estimated scf accuracy    <       0.50164295 Ry

     iteration #  5     ecut=    30.00 Ry     beta= 0.50
     Davidson diagonalization with overlap
     ethr =  1.96E-04,  avg # of iterations =  2.0

     total cpu time spent up to now is        5.7 secs

     total energy              =    -501.57515122 Ry
     estimated scf accuracy    <       0.14861311 Ry

     iteration #  6     ecut=    30.00 Ry     beta= 0.50
     Davidson diagonalization with overlap
     ethr =  5.81E-05,  avg # of iterations =  2.0

     total cpu time spent up to now is        5.8 secs

     total energy              =    -501.58986596 Ry
     estimated scf accuracy    <       0.19309297 Ry

     iteration #  7     ecut=    30.00 Ry     beta= 0.50
     Davidson diagonalization with overlap
     ethr =  5.81E-05,  avg # of iterations =  2.0

     total cpu time spent up to now is        5.9 secs

     total energy              =    -501.60321471 Ry
     estimated scf accuracy    <       0.00954118 Ry

     iteration #  8     ecut=    30.00 Ry     beta= 0.50
     Davidson diagonalization with overlap
     c_bands:  1 eigenvalues not converged
     ethr =  3.73E-06,  avg # of iterations = 20.0

     total cpu time spent up to now is        6.1 secs

     total energy              =    -501.60457643 Ry
     estimated scf accuracy    <       0.01595849 Ry

     iteration #  9     ecut=    30.00 Ry     beta= 0.50
     Davidson diagonalization with overlap
     ethr =  3.73E-06,  avg # of iterations =  2.0

     total cpu time spent up to now is        6.2 secs

     total energy              =    -501.60590673 Ry
     estimated scf accuracy    <       0.00311039 Ry

     iteration # 10     ecut=    30.00 Ry     beta= 0.50
     Davidson diagonalization with overlap
     ethr =  1.21E-06,  avg # of iterations =  2.0

     total cpu time spent up to now is        6.3 secs

     total energy              =    -501.60612780 Ry
     estimated scf accuracy    <       0.00085745 Ry

     iteration # 11     ecut=    30.00 Ry     beta= 0.50
     Davidson diagonalization with overlap
     ethr =  3.35E-07,  avg # of iterations =  3.0

     total cpu time spent up to now is        6.4 secs

     total energy              =    -501.60618896 Ry
     estimated scf accuracy    <       0.00047269 Ry

     iteration # 12     ecut=    30.00 Ry     beta= 0.50
     Davidson diagonalization with overlap
     ethr =  1.85E-07,  avg # of iterations =  2.0

     total cpu time spent up to now is        6.5 secs

     total energy              =    -501.60624260 Ry
     estimated scf accuracy    <       0.00019352 Ry

     iteration # 13     ecut=    30.00 Ry     beta= 0.50
     Davidson diagonalization with overlap
     ethr =  7.56E-08,  avg # of iterations =  1.0

     total cpu time spent up to now is        6.6 secs

     total energy              =    -501.60625850 Ry
     estimated scf accuracy    <       0.00001552 Ry

     iteration # 14     ecut=    30.00 Ry     beta= 0.50
     Davidson diagonalization with overlap
     ethr =  6.06E-09,  avg # of iterations =  5.0

     total cpu time spent up to now is        6.7 secs

     total energy              =    -501.60625945 Ry
     estimated scf accuracy    <       0.00003138 Ry

     iteration # 15     ecut=    30.00 Ry     beta= 0.50
     Davidson diagonalization with overlap
     ethr =  6.06E-09,  avg # of iterations =  3.0

     total cpu time spent up to now is        6.8 secs

     total energy              =    -501.60626156 Ry
     estimated scf accuracy    <       0.00000797 Ry

     iteration # 16     ecut=    30.00 Ry     beta= 0.50
     Davidson diagonalization with overlap
     ethr =  3.11E-09,  avg # of iterations =  2.0

     total cpu time spent up to now is        6.9 secs

     total energy              =    -501.60626239 Ry
     estimated scf accuracy    <       0.00000644 Ry

     iteration # 17     ecut=    30.00 Ry     beta= 0.50
     Davidson diagonalization with overlap
     ethr =  2.51E-09,  avg # of iterations =  2.0

     total cpu time spent up to now is        7.0 secs

     total energy              =    -501.60626266 Ry
     estimated scf accuracy    <       0.00000298 Ry

     iteration # 18     ecut=    30.00 Ry     beta= 0.50
     Davidson diagonalization with overlap
     ethr =  1.17E-09,  avg # of iterations =  2.0

     total cpu time spent up to now is        7.1 secs

     End of self-consistent calculation

          k = 0.0000 0.0000 0.0000 ( 11564 PWs)   bands (ev):

    -5.5248  -4.6490  -4.5399  -4.4558  -4.3337  -4.2207  -4.1244  -3.6088
    -3.5611  -3.5452  -3.4131  -3.3212  -3.2928  -3.2700  -3.2000  -3.1142
    -2.8792  -2.7909  -2.6244  -2.3912  -2.2525  -2.2010  -2.1505  -1.9313
    -1.8269  -1.7618  -1.6693  -1.2532  -1.1380  -1.0760  -0.8959  -0.8175
    -0.6596  -0.5171  -0.3912  -0.3112  -0.1850  -0.0846  -0.0321   0.0407
     0.0777   0.1762   0.2918   0.3191   0.3613   0.4109   0.4441   0.4991
     0.6355   0.8129   0.8780   1.0064   1.0774   1.1627   1.3360   1.3784
     1.5624   1.6115   1.7320   1.8246   1.8548   1.9541   2.0893   2.1797
     2.2684   2.3467   2.3759   2.4700   2.5828   2.7012   2.7813   2.8295
     2.8378   2.9420   2.9689   3.0458   3.1094   3.2417   3.4153   3.5052
     3.5777   3.8536   3.9136   3.9879   4.0074   4.1390   4.2341   4.2928
     4.3583   4.4455   4.4709   4.5691   4.6683   4.7253   4.7533   4.8777
     4.8902   5.0229   5.0365   5.1384   5.1526   5.1889   5.2508   5.2941
     5.3594   5.3732   5.5216   5.5491   5.6404   5.7131   5.7521   5.8173
     5.8812   5.9103   5.9951   6.0409   6.0668   6.1047   6.1758   6.2385
     6.3156   6.3669   6.4477   6.5614   6.5984   6.6505   6.6875   6.7547
     6.8700   6.9142   7.0091   7.0471   7.1418   7.1980   7.2164   7.2886
     7.3510   7.4253   7.4993   7.5379   7.5649   7.6833   7.7785   7.8184
     7.8842   8.0262   8.0668   8.1523   8.1762   8.2105   8.2404   8.3261
     8.3626   8.4687

     the Fermi energy is     6.8170 ev

!    total energy              =    -501.60626221 Ry
     estimated scf accuracy    <       0.00000096 Ry
     smearing contrib. (-TS)   =      -0.13522564 Ry
     internal energy E=F+TS    =    -501.47103657 Ry

     The total energy is F=E-TS. E is the sum of the following terms:
     one-electron contribution =     175.70013303 Ry
     hartree contribution      =      27.26767641 Ry
     xc contribution           =    -150.55089369 Ry
     ewald contribution        =    -553.88795232 Ry

     convergence has been achieved in  18 iterations

     Forces acting on atoms (cartesian axes, Ry/au):

     atom    1 type  1   force =    -0.06098948    0.02190442   -0.01279954
     atom    2 type  1   force =     0.01645259    0.01561812   -0.03009306
     atom    3 type  1   force =     0.02740862   -0.02846389    0.00962336
     atom    4 type  1   force =     0.02638354    0.02024001    0.03022527
     atom    5 type  1   force =    -0.00569140    0.00117085   -0.02376771
     atom    6 type  1   force =    -0.04116078   -0.00887282   -0.01128807
     atom    7 type  1   force =    -0.03752590   -0.03888549    0.03956446
     atom    8 type  1   force =    -0.00654395    0.07578429    0.00496512
     atom    9 type  1   force =     0.01433696   -0.01532390    0.01826188
     atom   10 type  1   force =     0.00055043    0.01057512    0.00219605
     atom   11 type  1   force =    -0.03513756   -0.00968174   -0.00411075
     atom   12 type  1   force =    -0.02874554    0.02637835    0.02348888
     atom   13 type  1   force =    -0.01778920   -0.01856576    0.00463310
     atom   14 type  1   force =    -0.01004633   -0.00111144   -0.00501630
     atom   15 type  1   force =     0.05028882    0.01514893   -0.04005099
     atom   16 type  1   force =    -0.01322959   -0.04395868    0.01879437
     atom   17 type  1   force =     0.01057710    0.01386297    0.03123783
     atom   18 type  1   force =     0.05028544    0.04136995   -0.00050890
     atom   19 type  1   force =    -0.03004550    0.01278543    0.03106225
     atom   20 type  1   force =    -0.02385694   -0.02820534   -0.00076581
     atom   21 type  1   force =     0.04768614   -0.02073443   -0.01480148
     atom   22 type  1   force =    -0.01153687   -0.00414689   -0.02118191
     atom   23 type  1   force =    -0.01855052   -0.02273611    0.06146879
     atom   24 type  1   force =    -0.03771503   -0.01731834    0.02038382
     atom   25 type  1   force =     0.01547650   -0.00722326   -0.02064229
     atom   26 type  1   force =     0.00282053   -0.01073584    0.01441778
     atom   27 type  1   force =    -0.02546378   -0.02325738   -0.00877641
     atom   28 type  1   force =     0.03449536   -0.01844917    0.00503682
     atom   29 type  1   force =     0.00662381   -0.01874395    0.01749616
     atom   30 type  1   force =    -0.00417620    0.00049354   -0.01051787
     atom   31 type  1   force =     0.00612773   -0.02291651   -0.00200587
     atom   32 type  1   force =     0.00959934    0.02965501   -0.03629169
     atom   33 type  1   force =    -0.02034692   -0.06837541    0.01097637
     atom   34 type  1   force =    -0.01404360    0.00272073    0.02282614
     atom   35 type  1   force =     0.00910521   -0.02116788    0.00838872
     atom   36 type  1   force =    -0.00146381   -0.01002650   -0.00343441
     atom   37 type  1   force =     0.00592174   -0.00211846   -0.00709430
     atom   38 type  1   force =    -0.03505174    0.02350795   -0.04042107
     atom   39 type  1   force =     0.02373845   -0.01092559   -0.02636968
     atom   40 type  1   force =    -0.01743255    0.04755569    0.02845081
     atom   41 type  1   force =     0.03898404   -0.00288238   -0.00647301
     atom   42 type  1   force =    -0.00400039    0.03226352   -0.00266229
     atom   43 type  1   force =     0.00895433    0.01859844   -0.02094052
     atom   44 type  1   force =    -0.00042754   -0.00885532   -0.00552666
     atom   45 type  1   force =     0.02250360    0.01203527   -0.00957453
     atom   46 type  1   force =    -0.00801720   -0.01960744   -0.00136015
     atom   47 type  1   force =    -0.02250338   -0.03157396   -0.02056174
     atom   48 type  1   force =    -0.01153761   -0.02655647    0.00474074
     atom   49 type  1   force =     0.00482374    0.03385682   -0.03568387
     atom   50 type  1   force =    -0.00730022   -0.02265164   -0.00637362
     atom   51 type  1   force =    -0.02489680   -0.01845805    0.02407842
     atom   52 type  1   force =     0.01571469    0.03828213   -0.02071646
     atom   53 type  1   force =     0.02123476   -0.00025535    0.00483165
     atom   54 type  1   force =     0.01415675   -0.01414699    0.03961523
     atom   55 type  1   force =     0.04252380    0.01838926   -0.03409766
     atom   56 type  1   force =     0.00553790    0.03756592   -0.00280678
     atom   57 type  1   force =     0.00750932    0.00660519   -0.00731624
     atom   58 type  1   force =     0.01775281   -0.00806470    0.02332636
     atom   59 type  1   force =     0.01436775   -0.00489457    0.00389807
     atom   60 type  1   force =    -0.02970632    0.00743278   -0.00066809
     atom   61 type  1   force =    -0.04999929   -0.00547333   -0.01166842
     atom   62 type  1   force =    -0.00555416    0.03303136   -0.00406109
     atom   63 type  1   force =     0.05844161    0.01181690    0.01406014
     atom   64 type  1   force =     0.03010269    0.02671605   -0.00761933

     Total force =     0.329994     Total SCF correction =     0.001965


     Computing stress (Cartesian axis) and pressure

          total   stress  (Ry/bohr**3)                   (kbar)     P=      -34.90
  -0.00025372   0.00000269  -0.00005343          -37.32        0.40       -7.86
   0.00000269  -0.00016712  -0.00007195            0.40      -24.58      -10.58
  -0.00005343  -0.00007195  -0.00029094           -7.86      -10.58      -42.80

 
     init_run     :      1.10s CPU      4.95s WALL (       1 calls)
     electrons    :      1.93s CPU      2.07s WALL (       1 calls)
     forces       :      0.04s CPU      0.04s WALL (       1 calls)
     stress       :      0.15s CPU      0.16s WALL (       1 calls)

     Called by init_run:
     wfcinit      :      0.56s CPU      4.23s WALL (       1 calls)
                                        4.23s GPU  (       1 calls)
     potinit      :      0.05s CPU      0.14s WALL (       1 calls)
     hinit0       :      0.47s CPU      0.50s WALL (       1 calls)

     Called by electrons:
     c_bands      :      1.13s CPU      1.20s WALL (      19 calls)
     sum_band     :      0.38s CPU      0.42s WALL (      19 calls)
     v_of_rho     :      0.19s CPU      0.29s WALL (      19 calls)
     mix_rho      :      0.19s CPU      0.20s WALL (      19 calls)

     Called by c_bands:
     init_us_2    :      0.07s CPU      0.07s WALL (      39 calls)
     init_us_2:gp :      0.07s CPU      0.07s WALL (      39 calls)
     regterg      :      0.98s CPU      1.04s WALL (      19 calls)

     Called by *egterg:
     rdiaghg      :      0.41s CPU      1.16s WALL (      87 calls)
                                        1.14s GPU  (      87 calls)
     h_psi        :      0.95s CPU      3.92s WALL (      89 calls)
                                        3.92s GPU  (      89 calls)
     g_psi        :      0.00s CPU      0.00s WALL (      69 calls)
                                        0.00s GPU  (      69 calls)

     Called by h_psi:
     h_psi:calbec :      0.52s CPU      3.40s WALL (      89 calls)
                                        3.40s GPU  (      89 calls)
     vloc_psi     :      0.38s CPU      0.45s WALL (      89 calls)
                                        0.45s GPU  (      89 calls)
     add_vuspsi   :      0.04s CPU      0.05s WALL (      89 calls)
                                        0.05s GPU  (      89 calls)

     General routines
     calbec       :      0.52s CPU      3.41s WALL (      94 calls)
     fft          :      0.63s CPU      0.76s WALL (     159 calls)
                                        0.13s GPU  (     101 calls)
     ffts         :      0.05s CPU      0.05s WALL (      19 calls)
     fftw         :      0.47s CPU      0.61s WALL (    2011 calls)
                                        0.53s GPU  (    2011 calls)
 
     Parallel routines
 
     PWSCF        :      3.27s CPU      7.31s WALL

 
   This run was terminated on:  10:56:43  10May2023            

=------------------------------------------------------------------------------=
   JOB DONE.
=------------------------------------------------------------------------------=
