An instance of this daemon is already running

     Program PWSCF v.7.1 starts on 10May2023 at 10:56:55 

     This program is part of the open-source Quantum ESPRESSO suite
     for quantum simulation of materials; please cite
         "P. Giannozzi et al., J. Phys.:Condens. Matter 21 395502 (2009);
         "P. Giannozzi et al., J. Phys.:Condens. Matter 29 465901 (2017);
         "P. Giannozzi et al., J. Chem. Phys. 152 154105 (2020);
          URL http://www.quantum-espresso.org", 
     in publications or presentations arising from this work. More details at
     http://www.quantum-espresso.org/quote

     Parallel version (MPI & OpenMP), running on       4 processor cores
     Number of MPI processes:                 4
     Threads/MPI process:                     1

     MPI processes distributed on     1 nodes
     753553 MiB available memory on the printing compute node when the environment starts
 
     Reading input from pw-si-18.in
Warning: card &CELL ignored
Warning: card / ignored

     Current dimensions of program PWSCF are:
     Max number of different atomic species (ntypx) = 10
     Max number of k-points (npk) =  40000
     Max angular momentum in pseudopotentials (lmaxx) =  4

     IMPORTANT: XC functional enforced from input :
     Exchange-correlation= PBE
                           (   1   4   3   4   0   0   0)
     Any further DFT definition will be discarded
     Please, verify this is what you really want


     gamma-point specific algorithms are used
 
     K-points division:     npool     =       2
     R & G space division:  proc/nbgrp/npool/nimage =       2
     Subspace diagonalization in iterative solution of the eigenvalue problem:
     a serial algorithm will be used

     Message from routine divide_et_impera:
     suboptimal parallelization: some nodes have no k-points
 
     Parallelization info
     --------------------
     sticks:   dense  smooth     PW     G-vecs:    dense   smooth      PW
     Min        1992    1992    524                93875    93875   12765
     Max        1993    1993    525                93876    93876   12768
     Sum        3985    3985   1049               187751   187751   25533
 
     Using Slab Decomposition
 


     bravais-lattice index     =            0
     lattice parameter (alat)  =      20.3701  a.u.
     unit-cell volume          =    8452.4497 (a.u.)^3
     number of atoms/cell      =           64
     number of atomic types    =            1
     number of electrons       =       256.00
     number of Kohn-Sham states=          154
     kinetic-energy cutoff     =      30.0000  Ry
     charge density cutoff     =     120.0000  Ry
     scf convergence threshold =      1.0E-06
     mixing beta               =       0.5000
     number of iterations used =            8  plain     mixing
     Exchange-correlation= PBE
                           (   1   4   3   4   0   0   0)

     GPU acceleration is ACTIVE.
     GPU-aware MPI enabled

     Message from routine print_cuda_info:
     High GPU oversubscription detected. Are you sure this is what you want?

     celldm(1)=  20.370149  celldm(2)=   0.000000  celldm(3)=   0.000000
     celldm(4)=   0.000000  celldm(5)=   0.000000  celldm(6)=   0.000000

     crystal axes: (cart. coord. in units of alat)
               a(1) = (   1.000000   0.000000   0.000000 )  
               a(2) = (   0.000000   1.000000   0.000000 )  
               a(3) = (   0.000000   0.000000   1.000000 )  

     reciprocal axes: (cart. coord. in units 2 pi/alat)
               b(1) = (  1.000000  0.000000  0.000000 )  
               b(2) = (  0.000000  1.000000  0.000000 )  
               b(3) = (  0.000000  0.000000  1.000000 )  


     PseudoPot. # 1 for Si read from file:
     /home/ppiaggi/pseudos/Si_ONCV_PBE_sr.upf
     MD5 check sum: 8553c464762ac42b85b1eed164b4d029
     Pseudo is Norm-conserving, Zval =  4.0
     Generated using ONCVPSP code by D. R. Hamann
     Using radial grid of 1510 points,  4 beta functions with: 
                l(1) =   0
                l(2) =   0
                l(3) =   1
                l(4) =   1

     atomic species   valence    mass     pseudopotential
        Si             4.00    28.08500     Si( 1.00)

     No symmetry found



   Cartesian axes

     site n.     atom                  positions (alat units)
         1           Si  tau(   1) = (   0.3778680   0.7414640   0.9400560  )
         2           Si  tau(   2) = (   0.3299070   0.7970080   0.3191240  )
         3           Si  tau(   3) = (   0.8091440   0.6089000   0.7204040  )
         4           Si  tau(   4) = (   0.2587140   0.6975770   0.7299460  )
         5           Si  tau(   5) = (   0.7895150   0.0475444   0.1031570  )
         6           Si  tau(   6) = (   0.0125119   0.4875130   0.0923924  )
         7           Si  tau(   7) = (   0.5136570   0.1862760   0.7265710  )
         8           Si  tau(   8) = (   0.1741340   0.4574990   0.9311040  )
         9           Si  tau(   9) = (   0.7192370   0.1576950   0.8848810  )
        10           Si  tau(  10) = (   0.7436850   0.3657930   0.5885510  )
        11           Si  tau(  11) = (   0.2918970   0.8173210   0.5557020  )
        12           Si  tau(  12) = (   0.8635890   0.5091650   0.4985840  )
        13           Si  tau(  13) = (   0.4800330   0.4063200   0.7266230  )
        14           Si  tau(  14) = (   0.9063520   0.8738890   0.6064820  )
        15           Si  tau(  15) = (   0.5002890   0.3171000   0.1185130  )
        16           Si  tau(  16) = (   0.0617472   0.8059070   0.4087250  )
        17           Si  tau(  17) = (   0.2839720   0.2862090   0.9444700  )
        18           Si  tau(  18) = (   0.2505020   0.0491193   0.1996200  )
        19           Si  tau(  19) = (   0.8705560   0.2987500   0.0964789  )
        20           Si  tau(  20) = (   0.1315220   0.4614750   0.3197820  )
        21           Si  tau(  21) = (   0.2605030   0.1144640   0.8080010  )
        22           Si  tau(  22) = (   0.5544180   0.8916340   0.8006920  )
        23           Si  tau(  23) = (   0.4521390   0.0193338   0.3158580  )
        24           Si  tau(  24) = (   0.4830540   0.6657590   0.5395560  )
        25           Si  tau(  25) = (   0.7458900   0.9963940   0.3371270  )
        26           Si  tau(  26) = (   0.3479210   0.9802810   0.9784500  )
        27           Si  tau(  27) = (   0.5482270   0.8725760   0.1376040  )
        28           Si  tau(  28) = (   0.3794040   0.0060856   0.6344770  )
        29           Si  tau(  29) = (   0.0758523   0.5494080   0.5547210  )
        30           Si  tau(  30) = (   0.1379640   0.2645710   0.6715560  )
        31           Si  tau(  31) = (   0.3084300   0.5481630   0.0849961  )
        32           Si  tau(  32) = (   0.6890780   0.3651390   0.2600690  )
        33           Si  tau(  33) = (   0.8612780   0.7745260   0.3065190  )
        34           Si  tau(  34) = (   0.0341171   0.0838670   0.9015120  )
        35           Si  tau(  35) = (   0.6565550   0.6418500   0.0587259  )
        36           Si  tau(  36) = (   0.5050510   0.3812030   0.5039670  )
        37           Si  tau(  37) = (   0.7256580   0.5905540   0.3166450  )
        38           Si  tau(  38) = (   0.9928310   0.0311567   0.4029140  )
        39           Si  tau(  39) = (   0.2122480   0.7696340   0.1291050  )
        40           Si  tau(  40) = (   0.2547260   0.4633170   0.7125960  )
        41           Si  tau(  41) = (   0.7672910   0.1569770   0.5040890  )
        42           Si  tau(  42) = (   0.9903230   0.8027160   0.1379380  )
        43           Si  tau(  43) = (   0.5687110   0.6515680   0.7608990  )
        44           Si  tau(  44) = (   0.0247657   0.0371186   0.1221390  )
        45           Si  tau(  45) = (   0.6979370   0.0159691   0.6594310  )
        46           Si  tau(  46) = (   0.2951150   0.3574310   0.4689420  )
        47           Si  tau(  47) = (   0.7841790   0.3590660   0.7974590  )
        48           Si  tau(  48) = (   0.0302969   0.7364350   0.7146860  )
        49           Si  tau(  49) = (   0.9905890   0.2988840   0.8849380  )
        50           Si  tau(  50) = (   0.4225190   0.4830750   0.2755670  )
        51           Si  tau(  51) = (   0.5187040   0.4656340   0.9748020  )
        52           Si  tau(  52) = (   0.9301880   0.7424040   0.9377940  )
        53           Si  tau(  53) = (   0.7221670   0.8815170   0.9478070  )
        54           Si  tau(  54) = (   0.8750920   0.9494510   0.8203120  )
        55           Si  tau(  55) = (   0.7241610   0.7418950   0.5244460  )
        56           Si  tau(  56) = (   0.0172385   0.2472220   0.2609720  )
        57           Si  tau(  57) = (   0.2714270   0.2604440   0.1869580  )
        58           Si  tau(  58) = (   0.5252900   0.6888900   0.3100980  )
        59           Si  tau(  59) = (   0.9770040   0.2766130   0.5101540  )
        60           Si  tau(  60) = (   0.5015920   0.1396190   0.9570470  )
        61           Si  tau(  61) = (   0.5723540   0.9223260   0.4845670  )
        62           Si  tau(  62) = (   0.8201920   0.5359000   0.9699850  )
        63           Si  tau(  63) = (   0.5519710   0.2136480   0.3703440  )
        64           Si  tau(  64) = (   0.2589430   0.1116730   0.4702640  )

     number of k points=     1  Fermi-Dirac smearing, width (Ry)=  0.0100
                       cart. coord. in units 2pi/alat
        k(    1) = (   0.0000000   0.0000000   0.0000000), wk =   2.0000000

     Dense  grid:    93876 G-vectors     FFT dimensions: (  72,  72,  72)

     Estimated max dynamical RAM per process >     150.05 MB

     Estimated total dynamical RAM >     577.27 MB

     Initial potential from superposition of free atoms

     starting charge     255.9608, renormalised to     256.0000
     Starting wfcs are  256 randomized atomic wfcs

     total cpu time spent up to now is        5.0 secs

     Self-consistent Calculation

     iteration #  1     ecut=    30.00 Ry     beta= 0.50
     Davidson diagonalization with overlap
     ethr =  1.00E-02,  avg # of iterations =  3.0

     Threshold (ethr) on eigenvalues was too large:
     Diagonalizing with lowered threshold

     Davidson diagonalization with overlap
     ethr =  4.14E-04,  avg # of iterations =  4.0

     total cpu time spent up to now is        5.3 secs

     total energy              =    -501.03828867 Ry
     estimated scf accuracy    <       1.30021617 Ry

     iteration #  2     ecut=    30.00 Ry     beta= 0.50
     Davidson diagonalization with overlap
     ethr =  5.08E-04,  avg # of iterations =  4.0

     total cpu time spent up to now is        5.4 secs

     total energy              =    -500.60545024 Ry
     estimated scf accuracy    <       5.37483293 Ry

     iteration #  3     ecut=    30.00 Ry     beta= 0.50
     Davidson diagonalization with overlap
     ethr =  5.08E-04,  avg # of iterations =  4.0

     total cpu time spent up to now is        5.5 secs

     total energy              =    -501.06279004 Ry
     estimated scf accuracy    <       2.88419757 Ry

     iteration #  4     ecut=    30.00 Ry     beta= 0.50
     Davidson diagonalization with overlap
     ethr =  5.08E-04,  avg # of iterations =  2.0

     total cpu time spent up to now is        5.6 secs

     total energy              =    -501.26363187 Ry
     estimated scf accuracy    <       0.70527506 Ry

     iteration #  5     ecut=    30.00 Ry     beta= 0.50
     Davidson diagonalization with overlap
     ethr =  2.75E-04,  avg # of iterations =  2.0

     total cpu time spent up to now is        5.7 secs

     total energy              =    -501.29264250 Ry
     estimated scf accuracy    <       0.50389613 Ry

     iteration #  6     ecut=    30.00 Ry     beta= 0.50
     Davidson diagonalization with overlap
     ethr =  1.97E-04,  avg # of iterations =  2.0

     total cpu time spent up to now is        5.8 secs

     total energy              =    -501.33870955 Ry
     estimated scf accuracy    <       0.13188940 Ry

     iteration #  7     ecut=    30.00 Ry     beta= 0.50
     Davidson diagonalization with overlap
     ethr =  5.15E-05,  avg # of iterations =  2.0

     total cpu time spent up to now is        5.9 secs

     total energy              =    -501.34935418 Ry
     estimated scf accuracy    <       0.03152836 Ry

     iteration #  8     ecut=    30.00 Ry     beta= 0.50
     Davidson diagonalization with overlap
     ethr =  1.23E-05,  avg # of iterations = 18.0

     total cpu time spent up to now is        6.1 secs

     total energy              =    -501.35310807 Ry
     estimated scf accuracy    <       0.02531693 Ry

     iteration #  9     ecut=    30.00 Ry     beta= 0.50
     Davidson diagonalization with overlap
     ethr =  9.89E-06,  avg # of iterations =  2.0

     total cpu time spent up to now is        6.2 secs

     total energy              =    -501.35486683 Ry
     estimated scf accuracy    <       0.00262053 Ry

     iteration # 10     ecut=    30.00 Ry     beta= 0.50
     Davidson diagonalization with overlap
     ethr =  1.02E-06,  avg # of iterations = 14.0

     total cpu time spent up to now is        6.4 secs

     total energy              =    -501.35513775 Ry
     estimated scf accuracy    <       0.00417690 Ry

     iteration # 11     ecut=    30.00 Ry     beta= 0.50
     Davidson diagonalization with overlap
     ethr =  1.02E-06,  avg # of iterations =  2.0

     total cpu time spent up to now is        6.5 secs

     total energy              =    -501.35544100 Ry
     estimated scf accuracy    <       0.00047145 Ry

     iteration # 12     ecut=    30.00 Ry     beta= 0.50
     Davidson diagonalization with overlap
     ethr =  1.84E-07,  avg # of iterations =  3.0

     total cpu time spent up to now is        6.6 secs

     total energy              =    -501.35546229 Ry
     estimated scf accuracy    <       0.00058485 Ry

     iteration # 13     ecut=    30.00 Ry     beta= 0.50
     Davidson diagonalization with overlap
     ethr =  1.84E-07,  avg # of iterations =  2.0

     total cpu time spent up to now is        6.7 secs

     total energy              =    -501.35550774 Ry
     estimated scf accuracy    <       0.00034163 Ry

     iteration # 14     ecut=    30.00 Ry     beta= 0.50
     Davidson diagonalization with overlap
     ethr =  1.33E-07,  avg # of iterations =  1.0

     total cpu time spent up to now is        6.7 secs

     total energy              =    -501.35552828 Ry
     estimated scf accuracy    <       0.00006501 Ry

     iteration # 15     ecut=    30.00 Ry     beta= 0.50
     Davidson diagonalization with overlap
     ethr =  2.54E-08,  avg # of iterations =  2.0

     total cpu time spent up to now is        6.8 secs

     total energy              =    -501.35553472 Ry
     estimated scf accuracy    <       0.00002565 Ry

     iteration # 16     ecut=    30.00 Ry     beta= 0.50
     Davidson diagonalization with overlap
     ethr =  1.00E-08,  avg # of iterations =  2.0

     total cpu time spent up to now is        6.9 secs

     total energy              =    -501.35553597 Ry
     estimated scf accuracy    <       0.00002876 Ry

     iteration # 17     ecut=    30.00 Ry     beta= 0.50
     Davidson diagonalization with overlap
     ethr =  1.00E-08,  avg # of iterations =  2.0

     total cpu time spent up to now is        7.0 secs

     total energy              =    -501.35553786 Ry
     estimated scf accuracy    <       0.00000355 Ry

     iteration # 18     ecut=    30.00 Ry     beta= 0.50
     Davidson diagonalization with overlap
     ethr =  1.38E-09,  avg # of iterations =  3.0

     total cpu time spent up to now is        7.1 secs

     total energy              =    -501.35553837 Ry
     estimated scf accuracy    <       0.00000327 Ry

     iteration # 19     ecut=    30.00 Ry     beta= 0.50
     Davidson diagonalization with overlap
     ethr =  1.28E-09,  avg # of iterations =  2.0

     total cpu time spent up to now is        7.2 secs

     End of self-consistent calculation

          k = 0.0000 0.0000 0.0000 ( 11792 PWs)   bands (ev):

    -5.5918  -4.8230  -4.6621  -4.4732  -4.3976  -4.2048  -4.1275  -3.7749
    -3.6764  -3.6390  -3.4458  -3.3545  -3.2693  -3.1704  -3.0696  -2.9640
    -2.9078  -2.7423  -2.7195  -2.5724  -2.3644  -2.1744  -2.1007  -2.0747
    -1.8825  -1.6349  -1.5281  -1.2489  -1.1455  -1.0928  -0.8675  -0.7678
    -0.6295  -0.4833  -0.4177  -0.3795  -0.1894  -0.1201  -0.1120  -0.0436
    -0.0300   0.1340   0.1987   0.2109   0.2885   0.4056   0.5027   0.6001
     0.6727   0.7719   0.8514   0.9254   1.0374   1.0687   1.1961   1.3734
     1.4170   1.5241   1.5928   1.6405   1.8033   1.8822   2.0534   2.1388
     2.1738   2.2174   2.3664   2.4265   2.4888   2.5644   2.6329   2.6946
     2.7972   2.9285   2.9817   3.1270   3.2520   3.3199   3.3445   3.4380
     3.5199   3.7767   3.8286   3.9245   4.0407   4.1778   4.2316   4.2955
     4.3163   4.4812   4.5274   4.5552   4.6182   4.6694   4.7485   4.8028
     4.8575   4.9200   4.9682   4.9988   5.0958   5.1211   5.2661   5.2979
     5.3437   5.4080   5.4294   5.5044   5.6168   5.6635   5.7097   5.7761
     5.8077   5.8661   5.9381   5.9821   6.0531   6.1054   6.1447   6.2087
     6.3036   6.3457   6.4290   6.5059   6.5214   6.5676   6.6504   6.7082
     6.7150   6.7751   6.8135   6.8461   6.9870   7.0486   7.0961   7.1485
     7.1783   7.2490   7.3248   7.3876   7.4615   7.5181   7.6216   7.6304
     7.7156   7.7424   7.8268   7.8585   7.8953   7.9650   8.0965   8.1253
     8.2253   8.2723

     the Fermi energy is     6.7103 ev

!    total energy              =    -501.35553781 Ry
     estimated scf accuracy    <       0.00000100 Ry
     smearing contrib. (-TS)   =      -0.16166984 Ry
     internal energy E=F+TS    =    -501.19386797 Ry

     The total energy is F=E-TS. E is the sum of the following terms:
     one-electron contribution =     171.27701508 Ry
     hartree contribution      =      28.73687631 Ry
     xc contribution           =    -149.94019480 Ry
     ewald contribution        =    -551.26756456 Ry

     convergence has been achieved in  19 iterations

     Forces acting on atoms (cartesian axes, Ry/au):

     atom    1 type  1   force =     0.00012209    0.02811598   -0.00781596
     atom    2 type  1   force =    -0.00443066    0.03298551    0.01003213
     atom    3 type  1   force =     0.00234839    0.00105094   -0.00333586
     atom    4 type  1   force =    -0.01249660   -0.03268735    0.03295097
     atom    5 type  1   force =     0.00066689    0.00630628    0.00645599
     atom    6 type  1   force =    -0.01805098   -0.00569237   -0.00700624
     atom    7 type  1   force =     0.00789416   -0.03386817    0.00270206
     atom    8 type  1   force =    -0.05248378    0.03298635   -0.01686071
     atom    9 type  1   force =    -0.00866707    0.00064602   -0.00483109
     atom   10 type  1   force =    -0.03909445   -0.03503979   -0.00936708
     atom   11 type  1   force =     0.02681031    0.00031447   -0.04384181
     atom   12 type  1   force =     0.00262627    0.03137653   -0.01624740
     atom   13 type  1   force =    -0.02303061    0.02489529    0.02770491
     atom   14 type  1   force =    -0.01466711    0.02102187   -0.02734348
     atom   15 type  1   force =    -0.00051369   -0.05345867    0.03472359
     atom   16 type  1   force =     0.01246325    0.02127925    0.01311614
     atom   17 type  1   force =     0.04504219   -0.05464130    0.05032510
     atom   18 type  1   force =    -0.00230785   -0.03143632   -0.00744538
     atom   19 type  1   force =    -0.01954925    0.00401289    0.01554488
     atom   20 type  1   force =     0.02147063   -0.02648841    0.01586208
     atom   21 type  1   force =    -0.04044359   -0.01826621   -0.00889217
     atom   22 type  1   force =    -0.00771650   -0.01304494    0.00278538
     atom   23 type  1   force =    -0.01482974   -0.03364327   -0.01212697
     atom   24 type  1   force =     0.00477627    0.01865460   -0.00057310
     atom   25 type  1   force =     0.02838337   -0.03350778   -0.02892915
     atom   26 type  1   force =     0.02361276   -0.04942334    0.02325475
     atom   27 type  1   force =    -0.00591571    0.00011671    0.00636083
     atom   28 type  1   force =     0.00502985    0.01536630    0.00210187
     atom   29 type  1   force =    -0.00021142    0.02008719   -0.00578203
     atom   30 type  1   force =     0.00286320   -0.00122779   -0.00467756
     atom   31 type  1   force =     0.01792955    0.04889073   -0.00556399
     atom   32 type  1   force =    -0.00952069   -0.01455996   -0.03038236
     atom   33 type  1   force =    -0.04015481    0.02329422    0.02431222
     atom   34 type  1   force =     0.03507960    0.00666772    0.00009121
     atom   35 type  1   force =    -0.03366732    0.01020378    0.01389146
     atom   36 type  1   force =     0.02532734    0.02203825    0.00293449
     atom   37 type  1   force =     0.02649335    0.00073980    0.00864160
     atom   38 type  1   force =    -0.00125546   -0.01272239    0.00005181
     atom   39 type  1   force =     0.00630148   -0.02067175   -0.00044077
     atom   40 type  1   force =     0.00123547    0.02829007   -0.00192131
     atom   41 type  1   force =     0.00004201    0.00974081   -0.01362946
     atom   42 type  1   force =     0.04318678    0.02743517   -0.01221195
     atom   43 type  1   force =     0.01216987    0.01951935   -0.01165599
     atom   44 type  1   force =    -0.00442826   -0.02040398    0.01658913
     atom   45 type  1   force =    -0.03181756    0.00692326    0.01873904
     atom   46 type  1   force =    -0.03845730   -0.02370572   -0.02609698
     atom   47 type  1   force =     0.02323034    0.00035363    0.04733480
     atom   48 type  1   force =    -0.00987253   -0.04566052    0.03489218
     atom   49 type  1   force =     0.00145688    0.00237829   -0.00534339
     atom   50 type  1   force =    -0.00595205    0.01744788    0.00905232
     atom   51 type  1   force =    -0.01162875    0.06735020   -0.03623110
     atom   52 type  1   force =    -0.02519310   -0.02662485   -0.03696333
     atom   53 type  1   force =    -0.03175366   -0.03856928    0.06699302
     atom   54 type  1   force =     0.03642363    0.01852591   -0.04001133
     atom   55 type  1   force =    -0.01229713    0.01004148   -0.00883901
     atom   56 type  1   force =     0.02844144   -0.00180614    0.01645552
     atom   57 type  1   force =     0.00386483    0.02840180   -0.02226841
     atom   58 type  1   force =    -0.01404968   -0.01853813   -0.01134196
     atom   59 type  1   force =    -0.01696041   -0.00402672   -0.02070161
     atom   60 type  1   force =     0.01588238    0.01735075    0.00130981
     atom   61 type  1   force =     0.01849203   -0.01317482    0.00731310
     atom   62 type  1   force =     0.03476614    0.00409051   -0.02561508
     atom   63 type  1   force =     0.04575231    0.00107887    0.00868641
     atom   64 type  1   force =    -0.00876732    0.03291137   -0.00691480

     Total force =     0.323385     Total SCF correction =     0.001959


     Computing stress (Cartesian axis) and pressure

          total   stress  (Ry/bohr**3)                   (kbar)     P=      -44.86
  -0.00033929  -0.00003616  -0.00004763          -49.91       -5.32       -7.01
  -0.00003616  -0.00026466  -0.00005707           -5.32      -38.93       -8.40
  -0.00004763  -0.00005707  -0.00031099           -7.01       -8.40      -45.75

 
     init_run     :      1.08s CPU      4.93s WALL (       1 calls)
     electrons    :      2.06s CPU      2.21s WALL (       1 calls)
     forces       :      0.04s CPU      0.04s WALL (       1 calls)
     stress       :      0.15s CPU      0.16s WALL (       1 calls)

     Called by init_run:
     wfcinit      :      0.53s CPU      4.21s WALL (       1 calls)
                                        4.21s GPU  (       1 calls)
     potinit      :      0.06s CPU      0.15s WALL (       1 calls)
     hinit0       :      0.47s CPU      0.50s WALL (       1 calls)

     Called by electrons:
     c_bands      :      1.22s CPU      1.28s WALL (      20 calls)
     sum_band     :      0.40s CPU      0.45s WALL (      20 calls)
     v_of_rho     :      0.20s CPU      0.30s WALL (      20 calls)
     mix_rho      :      0.20s CPU      0.22s WALL (      20 calls)

     Called by c_bands:
     init_us_2    :      0.07s CPU      0.08s WALL (      41 calls)
     init_us_2:gp :      0.07s CPU      0.08s WALL (      41 calls)
     regterg      :      1.06s CPU      1.11s WALL (      20 calls)

     Called by *egterg:
     rdiaghg      :      0.44s CPU      1.20s WALL (      95 calls)
                                        1.18s GPU  (      95 calls)
     h_psi        :      0.96s CPU      3.91s WALL (      97 calls)
                                        3.91s GPU  (      97 calls)
     g_psi        :      0.00s CPU      0.00s WALL (      76 calls)
                                        0.00s GPU  (      76 calls)

     Called by h_psi:
     h_psi:calbec :      0.51s CPU      3.38s WALL (      97 calls)
                                        3.38s GPU  (      97 calls)
     vloc_psi     :      0.39s CPU      0.46s WALL (      97 calls)
                                        0.46s GPU  (      97 calls)
     add_vuspsi   :      0.04s CPU      0.06s WALL (      97 calls)
                                        0.06s GPU  (      97 calls)

     General routines
     calbec       :      0.51s CPU      3.39s WALL (     102 calls)
     fft          :      0.63s CPU      0.77s WALL (     167 calls)
                                        0.14s GPU  (     106 calls)
     ffts         :      0.05s CPU      0.06s WALL (      20 calls)
     fftw         :      0.49s CPU      0.63s WALL (    2118 calls)
                                        0.55s GPU  (    2118 calls)
 
     Parallel routines
 
     PWSCF        :      3.38s CPU      7.43s WALL

 
   This run was terminated on:  10:57: 2  10May2023            

=------------------------------------------------------------------------------=
   JOB DONE.
=------------------------------------------------------------------------------=
