An instance of this daemon is already running

     Program PWSCF v.7.1 starts on 10May2023 at 10:57:34 

     This program is part of the open-source Quantum ESPRESSO suite
     for quantum simulation of materials; please cite
         "P. Giannozzi et al., J. Phys.:Condens. Matter 21 395502 (2009);
         "P. Giannozzi et al., J. Phys.:Condens. Matter 29 465901 (2017);
         "P. Giannozzi et al., J. Chem. Phys. 152 154105 (2020);
          URL http://www.quantum-espresso.org", 
     in publications or presentations arising from this work. More details at
     http://www.quantum-espresso.org/quote

     Parallel version (MPI & OpenMP), running on       4 processor cores
     Number of MPI processes:                 4
     Threads/MPI process:                     1

     MPI processes distributed on     1 nodes
     753551 MiB available memory on the printing compute node when the environment starts
 
     Reading input from pw-si-22.in
Warning: card &CELL ignored
Warning: card / ignored

     Current dimensions of program PWSCF are:
     Max number of different atomic species (ntypx) = 10
     Max number of k-points (npk) =  40000
     Max angular momentum in pseudopotentials (lmaxx) =  4

     IMPORTANT: XC functional enforced from input :
     Exchange-correlation= PBE
                           (   1   4   3   4   0   0   0)
     Any further DFT definition will be discarded
     Please, verify this is what you really want


     gamma-point specific algorithms are used
 
     K-points division:     npool     =       2
     R & G space division:  proc/nbgrp/npool/nimage =       2
     Subspace diagonalization in iterative solution of the eigenvalue problem:
     a serial algorithm will be used

     Message from routine divide_et_impera:
     suboptimal parallelization: some nodes have no k-points
 
     Parallelization info
     --------------------
     sticks:   dense  smooth     PW     G-vecs:    dense   smooth      PW
     Min        1941    1941    516                91047    91047   12416
     Max        1944    1944    517                91052    91052   12421
     Sum        3885    3885   1033               182099   182099   24837
 
     Using Slab Decomposition
 


     bravais-lattice index     =            0
     lattice parameter (alat)  =      20.1657  a.u.
     unit-cell volume          =    8200.4346 (a.u.)^3
     number of atoms/cell      =           64
     number of atomic types    =            1
     number of electrons       =       256.00
     number of Kohn-Sham states=          154
     kinetic-energy cutoff     =      30.0000  Ry
     charge density cutoff     =     120.0000  Ry
     scf convergence threshold =      1.0E-06
     mixing beta               =       0.5000
     number of iterations used =            8  plain     mixing
     Exchange-correlation= PBE
                           (   1   4   3   4   0   0   0)

     GPU acceleration is ACTIVE.
     GPU-aware MPI enabled

     Message from routine print_cuda_info:
     High GPU oversubscription detected. Are you sure this is what you want?

     celldm(1)=  20.165653  celldm(2)=   0.000000  celldm(3)=   0.000000
     celldm(4)=   0.000000  celldm(5)=   0.000000  celldm(6)=   0.000000

     crystal axes: (cart. coord. in units of alat)
               a(1) = (   1.000000   0.000000   0.000000 )  
               a(2) = (   0.000000   1.000000   0.000000 )  
               a(3) = (   0.000000   0.000000   1.000000 )  

     reciprocal axes: (cart. coord. in units 2 pi/alat)
               b(1) = (  1.000000  0.000000  0.000000 )  
               b(2) = (  0.000000  1.000000  0.000000 )  
               b(3) = (  0.000000  0.000000  1.000000 )  


     PseudoPot. # 1 for Si read from file:
     /home/ppiaggi/pseudos/Si_ONCV_PBE_sr.upf
     MD5 check sum: 8553c464762ac42b85b1eed164b4d029
     Pseudo is Norm-conserving, Zval =  4.0
     Generated using ONCVPSP code by D. R. Hamann
     Using radial grid of 1510 points,  4 beta functions with: 
                l(1) =   0
                l(2) =   0
                l(3) =   1
                l(4) =   1

     atomic species   valence    mass     pseudopotential
        Si             4.00    28.08500     Si( 1.00)

     No symmetry found



   Cartesian axes

     site n.     atom                  positions (alat units)
         1           Si  tau(   1) = (   0.8339780   0.1851620   0.6331850  )
         2           Si  tau(   2) = (   0.4994500   0.8577200   0.9318720  )
         3           Si  tau(   3) = (   0.0022330   0.7593640   0.8228100  )
         4           Si  tau(   4) = (   0.1384230   0.0418858   0.1179220  )
         5           Si  tau(   5) = (   0.0824236   0.2468050   0.9573710  )
         6           Si  tau(   6) = (   0.1970450   0.8981850   0.3503590  )
         7           Si  tau(   7) = (   0.5252610   0.2359050   0.4872410  )
         8           Si  tau(   8) = (   0.2173570   0.9435670   0.8328840  )
         9           Si  tau(   9) = (   0.7887550   0.5983690   0.1358870  )
        10           Si  tau(  10) = (   0.6914730   0.9903180   0.6629180  )
        11           Si  tau(  11) = (   0.3266740   0.9902410   0.5413380  )
        12           Si  tau(  12) = (   0.6685620   0.2701240   0.2784200  )
        13           Si  tau(  13) = (   0.3231310   0.5910440   0.6389980  )
        14           Si  tau(  14) = (   0.0731258   0.7710060   0.4731320  )
        15           Si  tau(  15) = (   0.1147940   0.8217210   0.0645639  )
        16           Si  tau(  16) = (   0.3424620   0.0377770   0.0366401  )
        17           Si  tau(  17) = (   0.3470330   0.3782730   0.4308970  )
        18           Si  tau(  18) = (   0.8154970   0.8814680   0.0680630  )
        19           Si  tau(  19) = (   0.6117980   0.8287820   0.2618860  )
        20           Si  tau(  20) = (   0.4373260   0.5053740   0.8321060  )
        21           Si  tau(  21) = (   0.6500330   0.6853340   0.9510090  )
        22           Si  tau(  22) = (   0.4911120   0.2137740   0.7724980  )
        23           Si  tau(  23) = (   0.6168560   0.9982390   0.0660154  )
        24           Si  tau(  24) = (   0.0322094   0.0997860   0.7923850  )
        25           Si  tau(  25) = (   0.4277730   0.0076254   0.7447680  )
        26           Si  tau(  26) = (   0.4598700   0.7097410   0.4984800  )
        27           Si  tau(  27) = (   0.9372430   0.8269760   0.2497000  )
        28           Si  tau(  28) = (   0.0354704   0.6132670   0.1060900  )
        29           Si  tau(  29) = (   0.1982190   0.3734400   0.6021050  )
        30           Si  tau(  30) = (   0.4066660   0.5131300   0.0863875  )
        31           Si  tau(  31) = (   0.6736600   0.1447110   0.8991490  )
        32           Si  tau(  32) = (   0.2620140   0.3344800   0.8247740  )
        33           Si  tau(  33) = (   0.7832200   0.0299322   0.3304470  )
        34           Si  tau(  34) = (   0.8933960   0.8462070   0.6008590  )
        35           Si  tau(  35) = (   0.3213880   0.7390850   0.0319617  )
        36           Si  tau(  36) = (   0.8867140   0.2941280   0.3096290  )
        37           Si  tau(  37) = (   0.8810320   0.9762950   0.8610330  )
        38           Si  tau(  38) = (   0.3815980   0.7753660   0.2593750  )
        39           Si  tau(  39) = (   0.0760238   0.5231780   0.4455540  )
        40           Si  tau(  40) = (   0.6925960   0.3583010   0.5756210  )
        41           Si  tau(  41) = (   0.6543410   0.4395730   0.7980650  )
        42           Si  tau(  42) = (   0.2286530   0.3667490   0.0959249  )
        43           Si  tau(  43) = (   0.8737670   0.4562360   0.5118110  )
        44           Si  tau(  44) = (   0.1647440   0.5703260   0.8964810  )
        45           Si  tau(  45) = (   0.0966890   0.1451460   0.3718310  )
        46           Si  tau(  46) = (   0.5587580   0.5238890   0.3819230  )
        47           Si  tau(  47) = (   0.9257960   0.0455197   0.4699870  )
        48           Si  tau(  48) = (   0.5086890   0.1254970   0.2340820  )
        49           Si  tau(  49) = (   0.0625305   0.4329100   0.2349040  )
        50           Si  tau(  50) = (   0.8217370   0.6435450   0.7880520  )
        51           Si  tau(  51) = (   0.1730240   0.1477190   0.5921010  )
        52           Si  tau(  52) = (   0.7694300   0.6982240   0.3320660  )
        53           Si  tau(  53) = (   0.9053250   0.0990713   0.0939229  )
        54           Si  tau(  54) = (   0.2237330   0.8039270   0.6416670  )
        55           Si  tau(  55) = (   0.4562440   0.2488980   0.0177086  )
        56           Si  tau(  56) = (   0.7575460   0.6470110   0.5471500  )
        57           Si  tau(  57) = (   0.3061120   0.2408260   0.2721900  )
        58           Si  tau(  58) = (   0.6089920   0.7917940   0.7125490  )
        59           Si  tau(  59) = (   0.9434790   0.4555990   0.8742860  )
        60           Si  tau(  60) = (   0.5543110   0.0043209   0.4569930  )
        61           Si  tau(  61) = (   0.9875790   0.3484840   0.6824500  )
        62           Si  tau(  62) = (   0.7936850   0.3259410   0.9907760  )
        63           Si  tau(  63) = (   0.6146980   0.4359120   0.1527940  )
        64           Si  tau(  64) = (   0.2984720   0.5657120   0.3018470  )

     number of k points=     1  Fermi-Dirac smearing, width (Ry)=  0.0100
                       cart. coord. in units 2pi/alat
        k(    1) = (   0.0000000   0.0000000   0.0000000), wk =   2.0000000

     Dense  grid:    91050 G-vectors     FFT dimensions: (  72,  72,  72)

     Estimated max dynamical RAM per process >     146.04 MB

     Estimated total dynamical RAM >     561.91 MB

     Initial potential from superposition of free atoms

     starting charge     255.9608, renormalised to     256.0000
     Starting wfcs are  256 randomized atomic wfcs

     total cpu time spent up to now is        5.0 secs

     Self-consistent Calculation

     iteration #  1     ecut=    30.00 Ry     beta= 0.50
     Davidson diagonalization with overlap
     ethr =  1.00E-02,  avg # of iterations =  3.0

     Threshold (ethr) on eigenvalues was too large:
     Diagonalizing with lowered threshold

     Davidson diagonalization with overlap
     ethr =  3.75E-04,  avg # of iterations =  4.0

     total cpu time spent up to now is        5.3 secs

     total energy              =    -501.24416535 Ry
     estimated scf accuracy    <       1.15959506 Ry

     iteration #  2     ecut=    30.00 Ry     beta= 0.50
     Davidson diagonalization with overlap
     ethr =  4.53E-04,  avg # of iterations =  4.0

     total cpu time spent up to now is        5.4 secs

     total energy              =    -500.80965977 Ry
     estimated scf accuracy    <       4.74983688 Ry

     iteration #  3     ecut=    30.00 Ry     beta= 0.50
     Davidson diagonalization with overlap
     ethr =  4.53E-04,  avg # of iterations =  4.0

     total cpu time spent up to now is        5.5 secs

     total energy              =    -501.28406676 Ry
     estimated scf accuracy    <       2.07928939 Ry

     iteration #  4     ecut=    30.00 Ry     beta= 0.50
     Davidson diagonalization with overlap
     ethr =  4.53E-04,  avg # of iterations =  2.0

     total cpu time spent up to now is        5.6 secs

     total energy              =    -501.41817290 Ry
     estimated scf accuracy    <       0.40978925 Ry

     iteration #  5     ecut=    30.00 Ry     beta= 0.50
     Davidson diagonalization with overlap
     ethr =  1.60E-04,  avg # of iterations =  2.0

     total cpu time spent up to now is        5.7 secs

     total energy              =    -501.44544067 Ry
     estimated scf accuracy    <       0.23441407 Ry

     iteration #  6     ecut=    30.00 Ry     beta= 0.50
     Davidson diagonalization with overlap
     ethr =  9.16E-05,  avg # of iterations =  2.0

     total cpu time spent up to now is        5.8 secs

     total energy              =    -501.46673512 Ry
     estimated scf accuracy    <       0.16080034 Ry

     iteration #  7     ecut=    30.00 Ry     beta= 0.50
     Davidson diagonalization with overlap
     ethr =  6.28E-05,  avg # of iterations =  1.0

     total cpu time spent up to now is        5.9 secs

     total energy              =    -501.47992322 Ry
     estimated scf accuracy    <       0.00564343 Ry

     iteration #  8     ecut=    30.00 Ry     beta= 0.50
     Davidson diagonalization with overlap
     ethr =  2.20E-06,  avg # of iterations = 19.0

     total cpu time spent up to now is        6.1 secs

     total energy              =    -501.48050591 Ry
     estimated scf accuracy    <       0.01317742 Ry

     iteration #  9     ecut=    30.00 Ry     beta= 0.50
     Davidson diagonalization with overlap
     ethr =  2.20E-06,  avg # of iterations =  3.0

     total cpu time spent up to now is        6.2 secs

     total energy              =    -501.48161916 Ry
     estimated scf accuracy    <       0.00430481 Ry

     iteration # 10     ecut=    30.00 Ry     beta= 0.50
     Davidson diagonalization with overlap
     ethr =  1.68E-06,  avg # of iterations =  2.0

     total cpu time spent up to now is        6.3 secs

     total energy              =    -501.48186475 Ry
     estimated scf accuracy    <       0.00088889 Ry

     iteration # 11     ecut=    30.00 Ry     beta= 0.50
     Davidson diagonalization with overlap
     ethr =  3.47E-07,  avg # of iterations =  2.0

     total cpu time spent up to now is        6.4 secs

     total energy              =    -501.48193284 Ry
     estimated scf accuracy    <       0.00040145 Ry

     iteration # 12     ecut=    30.00 Ry     beta= 0.50
     Davidson diagonalization with overlap
     ethr =  1.57E-07,  avg # of iterations =  3.0

     total cpu time spent up to now is        6.5 secs

     total energy              =    -501.48197646 Ry
     estimated scf accuracy    <       0.00034926 Ry

     iteration # 13     ecut=    30.00 Ry     beta= 0.50
     Davidson diagonalization with overlap
     ethr =  1.36E-07,  avg # of iterations =  1.0

     total cpu time spent up to now is        6.6 secs

     total energy              =    -501.48200124 Ry
     estimated scf accuracy    <       0.00003757 Ry

     iteration # 14     ecut=    30.00 Ry     beta= 0.50
     Davidson diagonalization with overlap
     ethr =  1.47E-08,  avg # of iterations =  3.0

     total cpu time spent up to now is        6.7 secs

     total energy              =    -501.48200572 Ry
     estimated scf accuracy    <       0.00002306 Ry

     iteration # 15     ecut=    30.00 Ry     beta= 0.50
     Davidson diagonalization with overlap
     ethr =  9.01E-09,  avg # of iterations =  2.0

     total cpu time spent up to now is        6.8 secs

     total energy              =    -501.48200655 Ry
     estimated scf accuracy    <       0.00000663 Ry

     iteration # 16     ecut=    30.00 Ry     beta= 0.50
     Davidson diagonalization with overlap
     ethr =  2.59E-09,  avg # of iterations =  3.0

     total cpu time spent up to now is        6.9 secs

     total energy              =    -501.48200737 Ry
     estimated scf accuracy    <       0.00001136 Ry

     iteration # 17     ecut=    30.00 Ry     beta= 0.50
     Davidson diagonalization with overlap
     ethr =  2.59E-09,  avg # of iterations =  2.0

     total cpu time spent up to now is        7.0 secs

     total energy              =    -501.48200795 Ry
     estimated scf accuracy    <       0.00000141 Ry

     iteration # 18     ecut=    30.00 Ry     beta= 0.50
     Davidson diagonalization with overlap
     ethr =  5.51E-10,  avg # of iterations =  3.0

     total cpu time spent up to now is        7.1 secs

     total energy              =    -501.48200808 Ry
     estimated scf accuracy    <       0.00000103 Ry

     iteration # 19     ecut=    30.00 Ry     beta= 0.50
     Davidson diagonalization with overlap
     ethr =  4.04E-10,  avg # of iterations =  1.0

     total cpu time spent up to now is        7.2 secs

     End of self-consistent calculation

          k = 0.0000 0.0000 0.0000 ( 11444 PWs)   bands (ev):

    -5.3373  -4.3870  -4.3133  -4.2234  -4.1501  -4.0196  -3.9427  -3.3697
    -3.2703  -3.1916  -3.1570  -3.0452  -2.9820  -2.9393  -2.9096  -2.8159
    -2.7054  -2.6025  -2.5331  -2.2721  -2.0785  -1.9803  -1.7793  -1.7336
    -1.6740  -1.4735  -1.2559  -0.9808  -0.8647  -0.6087  -0.5604  -0.3929
    -0.3090  -0.2172  -0.1040  -0.0398   0.0408   0.0793   0.1395   0.2464
     0.3593   0.4145   0.4864   0.5607   0.6336   0.7221   0.7997   0.8582
     0.9271   0.9555   1.1172   1.1709   1.3005   1.3404   1.5825   1.6665
     1.6935   1.7938   1.8801   1.9795   2.2270   2.3155   2.3707   2.4758
     2.5268   2.6138   2.6631   2.7187   2.7863   2.8407   2.9238   3.0018
     3.0703   3.1324   3.2158   3.2846   3.3321   3.3775   3.4681   3.5119
     3.8756   4.0880   4.2175   4.2452   4.3645   4.3897   4.5333   4.5764
     4.6630   4.7623   4.8378   4.8936   4.9125   4.9808   5.0403   5.1238
     5.2056   5.2533   5.2710   5.3921   5.4441   5.5199   5.5654   5.6203
     5.6752   5.7774   5.8211   5.8702   5.9219   6.0051   6.0231   6.1061
     6.1523   6.1929   6.2088   6.3070   6.3570   6.4338   6.4861   6.5070
     6.5968   6.6374   6.7130   6.7609   6.7859   6.8731   6.8748   6.9295
     7.0728   7.1129   7.1621   7.1830   7.2636   7.2949   7.3426   7.4754
     7.4967   7.6053   7.6349   7.6986   7.7721   7.8637   7.9549   8.0041
     8.0498   8.1746   8.2340   8.2613   8.3579   8.4177   8.4628   8.5142
     8.6089   8.6693

     the Fermi energy is     7.0039 ev

!    total energy              =    -501.48200810 Ry
     estimated scf accuracy    <       0.00000009 Ry
     smearing contrib. (-TS)   =      -0.15490203 Ry
     internal energy E=F+TS    =    -501.32710607 Ry

     The total energy is F=E-TS. E is the sum of the following terms:
     one-electron contribution =     191.17079992 Ry
     hartree contribution      =      21.92351839 Ry
     xc contribution           =    -150.51020659 Ry
     ewald contribution        =    -563.91121778 Ry

     convergence has been achieved in  19 iterations

     Forces acting on atoms (cartesian axes, Ry/au):

     atom    1 type  1   force =    -0.00072947   -0.01211020   -0.00501520
     atom    2 type  1   force =    -0.01572143   -0.00418210   -0.00664404
     atom    3 type  1   force =     0.03347218    0.03507521    0.00585651
     atom    4 type  1   force =    -0.03136261   -0.00328438    0.05246311
     atom    5 type  1   force =     0.01113718    0.01635053   -0.01064351
     atom    6 type  1   force =     0.03547105    0.04613582   -0.02426158
     atom    7 type  1   force =     0.00853060    0.03461468   -0.00897987
     atom    8 type  1   force =     0.00269750    0.00173310    0.01429839
     atom    9 type  1   force =     0.01165460   -0.00426319   -0.03050419
     atom   10 type  1   force =     0.01133858    0.01587962   -0.00654167
     atom   11 type  1   force =     0.01915171   -0.02102103   -0.01924500
     atom   12 type  1   force =    -0.00583795   -0.02008592    0.03948789
     atom   13 type  1   force =     0.00785358    0.00669511    0.02950219
     atom   14 type  1   force =    -0.03107675   -0.03768940    0.02073034
     atom   15 type  1   force =    -0.00185526    0.00095340   -0.02274079
     atom   16 type  1   force =     0.00471051    0.02581019   -0.03156158
     atom   17 type  1   force =     0.03477304    0.01367487    0.01882750
     atom   18 type  1   force =    -0.00959815    0.00152162   -0.01675078
     atom   19 type  1   force =    -0.01323384    0.05836740    0.00928628
     atom   20 type  1   force =    -0.00483358   -0.00926641   -0.00647291
     atom   21 type  1   force =     0.01856618   -0.00702272   -0.02392712
     atom   22 type  1   force =     0.00351713    0.02532273    0.01676102
     atom   23 type  1   force =    -0.00454964   -0.02183456    0.01107939
     atom   24 type  1   force =     0.09195723    0.04524397   -0.05071161
     atom   25 type  1   force =    -0.00919200   -0.02708178    0.00733643
     atom   26 type  1   force =     0.00860027   -0.00932770    0.00157984
     atom   27 type  1   force =     0.00154685    0.01092812    0.00052725
     atom   28 type  1   force =    -0.03527363   -0.00986432   -0.02034190
     atom   29 type  1   force =     0.00663697    0.01627752   -0.00076508
     atom   30 type  1   force =     0.00669690    0.00585454   -0.00750976
     atom   31 type  1   force =     0.01640793    0.01304202   -0.00535902
     atom   32 type  1   force =     0.02626026    0.00972789   -0.00448783
     atom   33 type  1   force =    -0.08102891   -0.01301921   -0.10214549
     atom   34 type  1   force =     0.00512387   -0.00194177   -0.00384830
     atom   35 type  1   force =     0.01435239   -0.00268016    0.01070882
     atom   36 type  1   force =     0.03567353    0.00136936    0.02374666
     atom   37 type  1   force =    -0.06884848   -0.04799584    0.02861400
     atom   38 type  1   force =    -0.02653338   -0.00458478    0.00706188
     atom   39 type  1   force =     0.03581737    0.01772383   -0.01462623
     atom   40 type  1   force =    -0.02923189   -0.01229309    0.03574313
     atom   41 type  1   force =     0.00729761   -0.00926239   -0.00737549
     atom   42 type  1   force =     0.00273454   -0.01427786    0.02127405
     atom   43 type  1   force =     0.00658465   -0.01029891   -0.01543160
     atom   44 type  1   force =    -0.03932474    0.00382832    0.01985997
     atom   45 type  1   force =     0.03094308   -0.00814486   -0.02084083
     atom   46 type  1   force =    -0.00612135    0.00050013    0.01012079
     atom   47 type  1   force =     0.05790147   -0.00212883    0.10338187
     atom   48 type  1   force =    -0.02102964   -0.02158482   -0.01228374
     atom   49 type  1   force =     0.00330797    0.01910484    0.01006551
     atom   50 type  1   force =    -0.04917495   -0.02790877   -0.00200249
     atom   51 type  1   force =    -0.01607407    0.00600905    0.00828759
     atom   52 type  1   force =     0.00095960   -0.00089369    0.00437090
     atom   53 type  1   force =     0.01836922    0.02361343    0.00274759
     atom   54 type  1   force =     0.00537984   -0.01854535    0.01852105
     atom   55 type  1   force =    -0.01851675   -0.01352453   -0.00843568
     atom   56 type  1   force =     0.00452644    0.01627904    0.02256294
     atom   57 type  1   force =    -0.02966489   -0.03659540   -0.02953026
     atom   58 type  1   force =    -0.01395911   -0.02556117   -0.00084220
     atom   59 type  1   force =     0.01701614   -0.00564741    0.00763097
     atom   60 type  1   force =    -0.01230862   -0.00925528   -0.00821513
     atom   61 type  1   force =    -0.01998727   -0.00268106   -0.00152937
     atom   62 type  1   force =    -0.02670928   -0.01287220   -0.01998011
     atom   63 type  1   force =     0.00342127    0.03724186   -0.01679431
     atom   64 type  1   force =     0.01138838   -0.02014710    0.00391083

     Total force =     0.342262     Total SCF correction =     0.000578


     Computing stress (Cartesian axis) and pressure

          total   stress  (Ry/bohr**3)                   (kbar)     P=      -35.92
  -0.00023439   0.00008545   0.00004121          -34.48       12.57        6.06
   0.00008545  -0.00021568   0.00001286           12.57      -31.73        1.89
   0.00004121   0.00001286  -0.00028244            6.06        1.89      -41.55

 
     init_run     :      1.10s CPU      4.95s WALL (       1 calls)
     electrons    :      1.96s CPU      2.13s WALL (       1 calls)
     forces       :      0.03s CPU      0.04s WALL (       1 calls)
     stress       :      0.15s CPU      0.16s WALL (       1 calls)

     Called by init_run:
     wfcinit      :      0.57s CPU      4.23s WALL (       1 calls)
                                        4.23s GPU  (       1 calls)
     potinit      :      0.05s CPU      0.15s WALL (       1 calls)
     hinit0       :      0.47s CPU      0.50s WALL (       1 calls)

     Called by electrons:
     c_bands      :      1.15s CPU      1.23s WALL (      20 calls)
     sum_band     :      0.39s CPU      0.44s WALL (      20 calls)
     v_of_rho     :      0.19s CPU      0.30s WALL (      20 calls)
     mix_rho      :      0.19s CPU      0.20s WALL (      20 calls)

     Called by c_bands:
     init_us_2    :      0.07s CPU      0.08s WALL (      41 calls)
     init_us_2:gp :      0.07s CPU      0.08s WALL (      41 calls)
     regterg      :      0.98s CPU      1.05s WALL (      20 calls)

     Called by *egterg:
     rdiaghg      :      0.41s CPU      1.16s WALL (      85 calls)
                                        1.14s GPU  (      85 calls)
     h_psi        :      0.96s CPU      3.92s WALL (      87 calls)
                                        3.92s GPU  (      87 calls)
     g_psi        :      0.00s CPU      0.00s WALL (      66 calls)
                                        0.00s GPU  (      66 calls)

     Called by h_psi:
     h_psi:calbec :      0.52s CPU      3.40s WALL (      87 calls)
                                        3.40s GPU  (      87 calls)
     vloc_psi     :      0.39s CPU      0.46s WALL (      87 calls)
                                        0.46s GPU  (      87 calls)
     add_vuspsi   :      0.03s CPU      0.05s WALL (      87 calls)
                                        0.05s GPU  (      87 calls)

     General routines
     calbec       :      0.52s CPU      3.41s WALL (      92 calls)
     fft          :      0.63s CPU      0.77s WALL (     167 calls)
                                        0.14s GPU  (     106 calls)
     ffts         :      0.05s CPU      0.06s WALL (      20 calls)
     fftw         :      0.47s CPU      0.62s WALL (    2098 calls)
                                        0.54s GPU  (    2098 calls)
 
     Parallel routines
 
     PWSCF        :      3.30s CPU      7.36s WALL

 
   This run was terminated on:  10:57:41  10May2023            

=------------------------------------------------------------------------------=
   JOB DONE.
=------------------------------------------------------------------------------=
