An instance of this daemon is already running
An instance of this daemon is already running
An instance of this daemon is already running

     Program PWSCF v.7.1 starts on 10May2023 at 11: 3:14 

     This program is part of the open-source Quantum ESPRESSO suite
     for quantum simulation of materials; please cite
         "P. Giannozzi et al., J. Phys.:Condens. Matter 21 395502 (2009);
         "P. Giannozzi et al., J. Phys.:Condens. Matter 29 465901 (2017);
         "P. Giannozzi et al., J. Chem. Phys. 152 154105 (2020);
          URL http://www.quantum-espresso.org", 
     in publications or presentations arising from this work. More details at
     http://www.quantum-espresso.org/quote

     Parallel version (MPI & OpenMP), running on       4 processor cores
     Number of MPI processes:                 4
     Threads/MPI process:                     1

     MPI processes distributed on     1 nodes
     149918 MiB available memory on the printing compute node when the environment starts
 
     Reading input from pw-si-52.in
Warning: card &CELL ignored
Warning: card / ignored

     Current dimensions of program PWSCF are:
     Max number of different atomic species (ntypx) = 10
     Max number of k-points (npk) =  40000
     Max angular momentum in pseudopotentials (lmaxx) =  4

     IMPORTANT: XC functional enforced from input :
     Exchange-correlation= PBE
                           (   1   4   3   4   0   0   0)
     Any further DFT definition will be discarded
     Please, verify this is what you really want


     gamma-point specific algorithms are used
 
     K-points division:     npool     =       2
     R & G space division:  proc/nbgrp/npool/nimage =       2
     Subspace diagonalization in iterative solution of the eigenvalue problem:
     a serial algorithm will be used

     Message from routine divide_et_impera:
     suboptimal parallelization: some nodes have no k-points
 
     Parallelization info
     --------------------
     sticks:   dense  smooth     PW     G-vecs:    dense   smooth      PW
     Min        2034    2034    539                98533    98533   13403
     Max        2037    2037    542                98534    98534   13406
     Sum        4071    4071   1081               197067   197067   26809
 
     Using Slab Decomposition
 


     bravais-lattice index     =            0
     lattice parameter (alat)  =      20.5567  a.u.
     unit-cell volume          =    8880.1222 (a.u.)^3
     number of atoms/cell      =           64
     number of atomic types    =            1
     number of electrons       =       256.00
     number of Kohn-Sham states=          154
     kinetic-energy cutoff     =      30.0000  Ry
     charge density cutoff     =     120.0000  Ry
     scf convergence threshold =      1.0E-06
     mixing beta               =       0.5000
     number of iterations used =            8  plain     mixing
     Exchange-correlation= PBE
                           (   1   4   3   4   0   0   0)

     GPU acceleration is ACTIVE.
     GPU-aware MPI enabled

     Message from routine print_cuda_info:
     High GPU oversubscription detected. Are you sure this is what you want?

     celldm(1)=  20.556722  celldm(2)=   0.000000  celldm(3)=   0.000000
     celldm(4)=   0.000000  celldm(5)=   0.000000  celldm(6)=   0.000000

     crystal axes: (cart. coord. in units of alat)
               a(1) = (   1.000000   0.000000   0.000000 )  
               a(2) = (   0.000000   1.009205   0.000000 )  
               a(3) = (   0.000000   0.000000   1.012927 )  

     reciprocal axes: (cart. coord. in units 2 pi/alat)
               b(1) = (  1.000000  0.000000  0.000000 )  
               b(2) = (  0.000000  0.990879  0.000000 )  
               b(3) = (  0.000000  0.000000  0.987238 )  


     PseudoPot. # 1 for Si read from file:
     /home/ppiaggi/pseudos/Si_ONCV_PBE_sr.upf
     MD5 check sum: 8553c464762ac42b85b1eed164b4d029
     Pseudo is Norm-conserving, Zval =  4.0
     Generated using ONCVPSP code by D. R. Hamann
     Using radial grid of 1510 points,  4 beta functions with: 
                l(1) =   0
                l(2) =   0
                l(3) =   1
                l(4) =   1

     atomic species   valence    mass     pseudopotential
        Si             4.00    28.08500     Si( 1.00)

     No symmetry found



   Cartesian axes

     site n.     atom                  positions (alat units)
         1           Si  tau(   1) = (   0.0001533   0.0000720  -0.0008769  )
         2           Si  tau(   2) = (   0.0007417   0.2533994   0.2535824  )
         3           Si  tau(   3) = (   0.2477627  -0.0001539   0.2531710  )
         4           Si  tau(   4) = (   0.2475491   0.2530098   0.0000432  )
         5           Si  tau(   5) = (   0.1237996   0.1265346   0.1272791  )
         6           Si  tau(   6) = (   0.4961472   0.0006122   0.0002394  )
         7           Si  tau(   7) = (   0.4954917   0.2539096   0.2538510  )
         8           Si  tau(   8) = (   0.6199434   0.1266373   0.1266329  )
         9           Si  tau(   9) = (   0.7427942   0.0000816   0.2521345  )
        10           Si  tau(  10) = (   0.7423683   0.2536836  -0.0004663  )
        11           Si  tau(  11) = (   0.0008451   0.5051888   0.0005252  )
        12           Si  tau(  12) = (   0.2485433   0.5054512   0.2524845  )
        13           Si  tau(  13) = (   0.1229392   0.6324514   0.1269219  )
        14           Si  tau(  14) = (   0.3718160   0.3801902   0.1267249  )
        15           Si  tau(  15) = (   0.4952669   0.5056364  -0.0008433  )
        16           Si  tau(  16) = (   0.6185626   0.6323107   0.1258484  )
        17           Si  tau(  17) = (   0.8668699   0.3798886   0.1272519  )
        18           Si  tau(  18) = (   0.7424354   0.5058406   0.2531880  )
        19           Si  tau(  19) = (   0.0001018   0.7598932   0.2528599  )
        20           Si  tau(  20) = (   0.2470558   0.7587008   0.0008237  )
        21           Si  tau(  21) = (   0.3709471   0.8854408   0.1271738  )
        22           Si  tau(  22) = (   0.4956530   0.7593099   0.2523427  )
        23           Si  tau(  23) = (   0.7429017   0.7595869  -0.0001872  )
        24           Si  tau(  24) = (   0.8661764   0.8858671   0.1257179  )
        25           Si  tau(  25) = (   0.0007470  -0.0000811   0.5056471  )
        26           Si  tau(  26) = (   0.2473074   0.2537216   0.5067171  )
        27           Si  tau(  27) = (   0.1242120   0.1265768   0.6317166  )
        28           Si  tau(  28) = (   0.3718613   0.1273790   0.3801501  )
        29           Si  tau(  29) = (   0.4948650  -0.0004317   0.5057539  )
        30           Si  tau(  30) = (   0.6186291   0.1269875   0.6332243  )
        31           Si  tau(  31) = (   0.8666090   0.1256508   0.3803715  )
        32           Si  tau(  32) = (   0.7433934   0.2532998   0.5060689  )
        33           Si  tau(  33) = (   0.1240421   0.3800212   0.3792817  )
        34           Si  tau(  34) = (  -0.0008897   0.5058539   0.5055008  )
        35           Si  tau(  35) = (   0.1239452   0.6323010   0.6317218  )
        36           Si  tau(  36) = (   0.6194876   0.3786666   0.3796579  )
        37           Si  tau(  37) = (   0.3715355   0.6322004   0.3787132  )
        38           Si  tau(  38) = (   0.3709452   0.3801916   0.6323988  )
        39           Si  tau(  39) = (   0.4952625   0.5061892   0.5058978  )
        40           Si  tau(  40) = (   0.6196075   0.6333885   0.6329507  )
        41           Si  tau(  41) = (   0.8662793   0.6320786   0.3797815  )
        42           Si  tau(  42) = (   0.8664115   0.3797177   0.6322680  )
        43           Si  tau(  43) = (   0.1245163   0.8863579   0.3803116  )
        44           Si  tau(  44) = (   0.2479022   0.7584514   0.5060457  )
        45           Si  tau(  45) = (   0.6196433   0.8857048   0.3790289  )
        46           Si  tau(  46) = (   0.3715355   0.8864530   0.6333493  )
        47           Si  tau(  47) = (   0.7435442   0.7583690   0.5065398  )
        48           Si  tau(  48) = (   0.8663869   0.8850894   0.6315419  )
        49           Si  tau(  49) = (  -0.0009003   0.2521508   0.7584717  )
        50           Si  tau(  50) = (   0.2482021  -0.0000673   0.7580767  )
        51           Si  tau(  51) = (   0.3717307   0.1266550   0.8846958  )
        52           Si  tau(  52) = (   0.4959915   0.2531791   0.7586320  )
        53           Si  tau(  53) = (   0.7427103  -0.0003677   0.7592835  )
        54           Si  tau(  54) = (   0.8673898   0.1261450   0.8858554  )
        55           Si  tau(  55) = (   0.1230082   0.3790908   0.8862697  )
        56           Si  tau(  56) = (   0.2477694   0.5064699   0.7585489  )
        57           Si  tau(  57) = (   0.6193166   0.3801882   0.8847521  )
        58           Si  tau(  58) = (   0.3707328   0.6329895   0.8854916  )
        59           Si  tau(  59) = (   0.7421175   0.5067594   0.7595183  )
        60           Si  tau(  60) = (   0.8661354   0.6325776   0.8856420  )
        61           Si  tau(  61) = (  -0.0002849   0.7597153   0.7594059  )
        62           Si  tau(  62) = (   0.1243096   0.8853736   0.8852524  )
        63           Si  tau(  63) = (   0.4956170   0.7588049   0.7589057  )
        64           Si  tau(  64) = (   0.6185583   0.8853814   0.8861673  )

     number of k points=     1  Fermi-Dirac smearing, width (Ry)=  0.0100
                       cart. coord. in units 2pi/alat
        k(    1) = (   0.0000000   0.0000000   0.0000000), wk =   2.0000000

     Dense  grid:    98534 G-vectors     FFT dimensions: (  72,  75,  75)

     Estimated max dynamical RAM per process >     158.10 MB

     Estimated total dynamical RAM >     608.34 MB

     Initial potential from superposition of free atoms

     starting charge     255.9608, renormalised to     256.0000
     Starting wfcs are  256 randomized atomic wfcs

     total cpu time spent up to now is        4.3 secs

     Self-consistent Calculation

     iteration #  1     ecut=    30.00 Ry     beta= 0.50
     Davidson diagonalization with overlap
     ethr =  1.00E-02,  avg # of iterations =  3.0

     Threshold (ethr) on eigenvalues was too large:
     Diagonalizing with lowered threshold

     Davidson diagonalization with overlap
     ethr =  6.55E-04,  avg # of iterations =  2.0

     total cpu time spent up to now is        4.5 secs

     total energy              =    -503.96647801 Ry
     estimated scf accuracy    <       1.85605948 Ry

     iteration #  2     ecut=    30.00 Ry     beta= 0.50
     Davidson diagonalization with overlap
     ethr =  7.25E-04,  avg # of iterations =  2.0

     total cpu time spent up to now is        4.6 secs

     total energy              =    -503.94781814 Ry
     estimated scf accuracy    <       0.34766998 Ry

     iteration #  3     ecut=    30.00 Ry     beta= 0.50
     Davidson diagonalization with overlap
     ethr =  1.36E-04,  avg # of iterations =  4.0

     total cpu time spent up to now is        4.7 secs

     total energy              =    -503.97015330 Ry
     estimated scf accuracy    <       0.00778008 Ry

     iteration #  4     ecut=    30.00 Ry     beta= 0.50
     Davidson diagonalization with overlap
     c_bands:  2 eigenvalues not converged
     ethr =  3.04E-06,  avg # of iterations = 20.0

     total cpu time spent up to now is        5.0 secs

     total energy              =    -503.97203303 Ry
     estimated scf accuracy    <       0.00936091 Ry

     iteration #  5     ecut=    30.00 Ry     beta= 0.50
     Davidson diagonalization with overlap
     ethr =  3.04E-06,  avg # of iterations =  5.0

     total cpu time spent up to now is        5.1 secs

     total energy              =    -503.97377163 Ry
     estimated scf accuracy    <       0.00060480 Ry

     iteration #  6     ecut=    30.00 Ry     beta= 0.50
     Davidson diagonalization with overlap
     ethr =  2.36E-07,  avg # of iterations =  3.0

     total cpu time spent up to now is        5.2 secs

     total energy              =    -503.97381429 Ry
     estimated scf accuracy    <       0.00014285 Ry

     iteration #  7     ecut=    30.00 Ry     beta= 0.50
     Davidson diagonalization with overlap
     ethr =  5.58E-08,  avg # of iterations =  5.0

     total cpu time spent up to now is        5.3 secs

     total energy              =    -503.97382898 Ry
     estimated scf accuracy    <       0.00001213 Ry

     iteration #  8     ecut=    30.00 Ry     beta= 0.50
     Davidson diagonalization with overlap
     ethr =  4.74E-09,  avg # of iterations =  4.0

     total cpu time spent up to now is        5.4 secs

     End of self-consistent calculation

          k = 0.0000 0.0000 0.0000 ( 12334 PWs)   bands (ev):

    -5.8102  -4.7970  -4.7786  -4.7696  -4.7547  -4.7310  -4.6619  -3.8907
    -3.8793  -3.8664  -3.8569  -3.8408  -3.8368  -3.8220  -3.7839  -3.7611
    -3.7481  -3.7282  -3.7111  -3.5939  -3.5440  -3.5395  -3.4001  -1.8254
    -1.8218  -1.7816  -1.7609  -1.7434  -1.6736  -1.6620  -1.6547  -1.6405
    -1.6275  -1.6204  -1.6004  -1.5682  -1.5541  -1.5475  -1.5404  -1.5291
    -1.5191  -0.9478  -0.8583  -0.8446  -0.8194   0.5084   0.5147   0.5169
     0.5238   0.5301   0.5383   0.5413   0.5437   0.5551   0.5638   0.6198
     0.6242   2.1841   2.1895   2.1982   2.2012   2.2048   2.2089   2.2112
     2.2181   2.2293   2.2315   2.2412   2.2428   2.2966   2.3030   2.3085
     2.3179   2.3209   2.3292   2.3327   2.3411   2.3429   2.3726   2.3766
     2.4185   2.4761   2.4877   2.4924   2.4988   2.5084   2.5422   3.1207
     3.1514   3.2001   3.2129   3.2624   3.2652   4.0257   4.0330   4.1125
     4.1286   4.1444   4.1681   4.1721   4.1869   4.1904   4.1932   4.1990
     4.2359   4.5682   4.5865   4.5965   4.6224   4.6390   4.6873   4.6964
     4.7045   4.7142   4.7190   4.7321   4.7489   4.7578   4.7626   4.7836
     4.8367   4.8541   4.9019   4.9086   5.0461   5.9014   6.0319   6.0560
     6.6270   6.6587   6.6857   6.6986   6.8147   6.8226   7.0372   7.1084
     7.1264   7.1458   7.1659   7.1720   7.3866   7.3931   7.4006   7.4188
     8.2813   8.2930   8.2948   8.3625   8.4139   8.4145   8.4229   8.4285
     8.4410   8.4442

     the Fermi energy is     6.3002 ev

!    total energy              =    -503.97383235 Ry
     estimated scf accuracy    <       0.00000086 Ry
     smearing contrib. (-TS)   =      -0.04508641 Ry
     internal energy E=F+TS    =    -503.92874593 Ry

     The total energy is F=E-TS. E is the sum of the following terms:
     one-electron contribution =     145.26649650 Ry
     hartree contribution      =      36.81850333 Ry
     xc contribution           =    -153.49303014 Ry
     ewald contribution        =    -532.52071563 Ry

     convergence has been achieved in   8 iterations

     Forces acting on atoms (cartesian axes, Ry/au):

     atom    1 type  1   force =    -0.02451649    0.00781933    0.00301395
     atom    2 type  1   force =    -0.03134472   -0.00293520    0.00038415
     atom    3 type  1   force =     0.00166616    0.01309257    0.00279610
     atom    4 type  1   force =     0.00203989   -0.00112830   -0.00132062
     atom    5 type  1   force =    -0.00343867   -0.00010547   -0.00437038
     atom    6 type  1   force =    -0.00558343    0.00653692   -0.00129691
     atom    7 type  1   force =     0.00154604   -0.00489645   -0.00515057
     atom    8 type  1   force =    -0.00530068    0.00605994   -0.00007633
     atom    9 type  1   force =     0.00630468    0.00880340    0.00434222
     atom   10 type  1   force =     0.00900756   -0.00083106   -0.00094285
     atom   11 type  1   force =    -0.03352700    0.00359486   -0.00323463
     atom   12 type  1   force =    -0.00548599    0.00433459    0.00122795
     atom   13 type  1   force =     0.00080888   -0.00116998    0.00071243
     atom   14 type  1   force =    -0.00025741   -0.00491931   -0.00437880
     atom   15 type  1   force =    -0.00049636    0.00248577   -0.00208162
     atom   16 type  1   force =     0.00274778    0.00046088   -0.00013082
     atom   17 type  1   force =     0.02581964   -0.00237468   -0.00280848
     atom   18 type  1   force =     0.00276596    0.00106426   -0.00096717
     atom   19 type  1   force =    -0.02875451   -0.00134436    0.00346458
     atom   20 type  1   force =     0.00081144    0.00040607   -0.00418733
     atom   21 type  1   force =     0.00256493   -0.00616729   -0.00556419
     atom   22 type  1   force =     0.00015567   -0.00275177    0.00264984
     atom   23 type  1   force =     0.00143037   -0.00519393   -0.00151707
     atom   24 type  1   force =     0.03133160   -0.00788359   -0.00028655
     atom   25 type  1   force =    -0.03100490    0.00786212    0.00412536
     atom   26 type  1   force =     0.00167518   -0.00014111   -0.00407196
     atom   27 type  1   force =    -0.00564774    0.00065519    0.00384569
     atom   28 type  1   force =    -0.00470681   -0.00102682   -0.00191105
     atom   29 type  1   force =     0.00539013    0.01201724    0.00162910
     atom   30 type  1   force =     0.00362735   -0.00315062   -0.00571266
     atom   31 type  1   force =     0.02842612    0.00421023   -0.00492770
     atom   32 type  1   force =     0.00078043   -0.00448105    0.00227552
     atom   33 type  1   force =    -0.00262774    0.00009996    0.00166289
     atom   34 type  1   force =    -0.02252394    0.00014487    0.00140797
     atom   35 type  1   force =    -0.00818841    0.00156293    0.00348776
     atom   36 type  1   force =    -0.00061724    0.00611041    0.00218611
     atom   37 type  1   force =     0.00094620    0.00243730    0.00135990
     atom   38 type  1   force =     0.00311465   -0.00129383    0.00181395
     atom   39 type  1   force =     0.00386334   -0.00000906    0.00037784
     atom   40 type  1   force =    -0.00421211   -0.00446011   -0.00292569
     atom   41 type  1   force =     0.02817102    0.00246200   -0.00371128
     atom   42 type  1   force =     0.02565375    0.00193375    0.00310734
     atom   43 type  1   force =    -0.00368611   -0.01457240   -0.00414439
     atom   44 type  1   force =     0.00246923    0.00253327    0.00048495
     atom   45 type  1   force =    -0.00075195   -0.01118582    0.00233423
     atom   46 type  1   force =     0.00048291   -0.01744869   -0.00640394
     atom   47 type  1   force =    -0.00021475    0.00206885   -0.00530015
     atom   48 type  1   force =     0.03015735   -0.00346915    0.00448364
     atom   49 type  1   force =    -0.02238222    0.00320291    0.00196368
     atom   50 type  1   force =    -0.00412985    0.01168968    0.00566812
     atom   51 type  1   force =    -0.00067049    0.00152127    0.00613901
     atom   52 type  1   force =    -0.00429252    0.00370753    0.00105116
     atom   53 type  1   force =     0.00401007    0.00896693   -0.00039051
     atom   54 type  1   force =     0.02036385    0.00243377    0.00041375
     atom   55 type  1   force =     0.00089313   -0.00000903   -0.00523310
     atom   56 type  1   force =    -0.00483907   -0.00308889    0.00482124
     atom   57 type  1   force =    -0.00234192   -0.00277766    0.00478351
     atom   58 type  1   force =     0.00106658   -0.00123170    0.00284188
     atom   59 type  1   force =     0.00867088   -0.00195178   -0.00401024
     atom   60 type  1   force =     0.03106048    0.00013256    0.00458014
     atom   61 type  1   force =    -0.02531292   -0.00597696   -0.00405492
     atom   62 type  1   force =    -0.00282406   -0.00681021    0.00307214
     atom   63 type  1   force =    -0.00202798    0.00226937    0.00307047
     atom   64 type  1   force =     0.00188473   -0.00789444   -0.00046662

     Total force =     0.125609     Total SCF correction =     0.001658


     Computing stress (Cartesian axis) and pressure

          total   stress  (Ry/bohr**3)                   (kbar)     P=        4.93
   0.00006588  -0.00000073  -0.00001257            9.69       -0.11       -1.85
  -0.00000073   0.00002722   0.00003309           -0.11        4.00        4.87
  -0.00001257   0.00003309   0.00000747           -1.85        4.87        1.10

 
     init_run     :      1.05s CPU      4.28s WALL (       1 calls)
     electrons    :      0.99s CPU      1.06s WALL (       1 calls)
     forces       :      0.04s CPU      0.04s WALL (       1 calls)
     stress       :      0.15s CPU      0.15s WALL (       1 calls)

     Called by init_run:
     wfcinit      :      0.56s CPU      3.60s WALL (       1 calls)
                                        3.60s GPU  (       1 calls)
     potinit      :      0.16s CPU      0.27s WALL (       1 calls)
     hinit0       :      0.31s CPU      0.33s WALL (       1 calls)

     Called by electrons:
     c_bands      :      0.69s CPU      0.72s WALL (       9 calls)
     sum_band     :      0.17s CPU      0.19s WALL (       9 calls)
     v_of_rho     :      0.09s CPU      0.20s WALL (       9 calls)
     mix_rho      :      0.05s CPU      0.06s WALL (       9 calls)

     Called by c_bands:
     init_us_2    :      0.02s CPU      0.03s WALL (      19 calls)
     init_us_2:gp :      0.02s CPU      0.02s WALL (      19 calls)
     regterg      :      0.63s CPU      0.66s WALL (       9 calls)

     Called by *egterg:
     rdiaghg      :      0.29s CPU      0.91s WALL (      56 calls)
                                        0.90s GPU  (      56 calls)
     h_psi        :      0.78s CPU      3.22s WALL (      58 calls)
                                        3.22s GPU  (      58 calls)
     g_psi        :      0.00s CPU      0.00s WALL (      48 calls)
                                        0.00s GPU  (      48 calls)

     Called by h_psi:
     h_psi:calbec :      0.50s CPU      2.88s WALL (      58 calls)
                                        2.88s GPU  (      58 calls)
     vloc_psi     :      0.25s CPU      0.31s WALL (      58 calls)
                                        0.31s GPU  (      58 calls)
     add_vuspsi   :      0.02s CPU      0.03s WALL (      58 calls)
                                        0.03s GPU  (      58 calls)

     General routines
     calbec       :      0.50s CPU      2.89s WALL (      63 calls)
     fft          :      0.34s CPU      0.47s WALL (      79 calls)
                                        0.14s GPU  (      51 calls)
     ffts         :      0.02s CPU      0.02s WALL (       9 calls)
     fftw         :      0.28s CPU      0.39s WALL (    1001 calls)
                                        0.35s GPU  (    1001 calls)
 
     Parallel routines
 
     PWSCF        :      2.26s CPU      5.60s WALL

 
   This run was terminated on:  11: 3:19  10May2023            

=------------------------------------------------------------------------------=
   JOB DONE.
=------------------------------------------------------------------------------=
