An instance of this daemon is already running
An instance of this daemon is already running

     Program PWSCF v.7.1 starts on 10May2023 at 10:57:44 

     This program is part of the open-source Quantum ESPRESSO suite
     for quantum simulation of materials; please cite
         "P. Giannozzi et al., J. Phys.:Condens. Matter 21 395502 (2009);
         "P. Giannozzi et al., J. Phys.:Condens. Matter 29 465901 (2017);
         "P. Giannozzi et al., J. Chem. Phys. 152 154105 (2020);
          URL http://www.quantum-espresso.org", 
     in publications or presentations arising from this work. More details at
     http://www.quantum-espresso.org/quote

     Parallel version (MPI & OpenMP), running on       4 processor cores
     Number of MPI processes:                 4
     Threads/MPI process:                     1

     MPI processes distributed on     1 nodes
     152754 MiB available memory on the printing compute node when the environment starts
 
     Reading input from pw-si-12.in
Warning: card &CELL ignored
Warning: card / ignored

     Current dimensions of program PWSCF are:
     Max number of different atomic species (ntypx) = 10
     Max number of k-points (npk) =  40000
     Max angular momentum in pseudopotentials (lmaxx) =  4

     IMPORTANT: XC functional enforced from input :
     Exchange-correlation= PBE
                           (   1   4   3   4   0   0   0)
     Any further DFT definition will be discarded
     Please, verify this is what you really want


     gamma-point specific algorithms are used
 
     K-points division:     npool     =       2
     R & G space division:  proc/nbgrp/npool/nimage =       2
     Subspace diagonalization in iterative solution of the eigenvalue problem:
     a serial algorithm will be used

     Message from routine divide_et_impera:
     suboptimal parallelization: some nodes have no k-points
 
     Parallelization info
     --------------------
     sticks:   dense  smooth     PW     G-vecs:    dense   smooth      PW
     Min        2060    2060    544                99341    99341   13517
     Max        2061    2061    545                99344    99344   13524
     Sum        4121    4121   1089               198685   198685   27041
 
     Using Slab Decomposition
 


     bravais-lattice index     =            0
     lattice parameter (alat)  =      20.7822  a.u.
     unit-cell volume          =    8953.4121 (a.u.)^3
     number of atoms/cell      =           64
     number of atomic types    =            1
     number of electrons       =       256.00
     number of Kohn-Sham states=          154
     kinetic-energy cutoff     =      30.0000  Ry
     charge density cutoff     =     120.0000  Ry
     scf convergence threshold =      1.0E-06
     mixing beta               =       0.5000
     number of iterations used =            8  plain     mixing
     Exchange-correlation= PBE
                           (   1   4   3   4   0   0   0)

     GPU acceleration is ACTIVE.
     GPU-aware MPI enabled

     Message from routine print_cuda_info:
     High GPU oversubscription detected. Are you sure this is what you want?

     celldm(1)=  20.782213  celldm(2)=   0.000000  celldm(3)=   0.000000
     celldm(4)=   0.000000  celldm(5)=   0.000000  celldm(6)=   0.000000

     crystal axes: (cart. coord. in units of alat)
               a(1) = (   1.000000   0.000000   0.000000 )  
               a(2) = (   0.000000   0.997538   0.000000 )  
               a(3) = (   0.000000   0.000000   0.999962 )  

     reciprocal axes: (cart. coord. in units 2 pi/alat)
               b(1) = (  1.000000  0.000000  0.000000 )  
               b(2) = (  0.000000  1.002468  0.000000 )  
               b(3) = (  0.000000  0.000000  1.000038 )  


     PseudoPot. # 1 for Si read from file:
     /home/ppiaggi/pseudos/Si_ONCV_PBE_sr.upf
     MD5 check sum: 8553c464762ac42b85b1eed164b4d029
     Pseudo is Norm-conserving, Zval =  4.0
     Generated using ONCVPSP code by D. R. Hamann
     Using radial grid of 1510 points,  4 beta functions with: 
                l(1) =   0
                l(2) =   0
                l(3) =   1
                l(4) =   1

     atomic species   valence    mass     pseudopotential
        Si             4.00    28.08500     Si( 1.00)

     No symmetry found



   Cartesian axes

     site n.     atom                  positions (alat units)
         1           Si  tau(   1) = (   0.0001499  -0.0000931  -0.0003340  )
         2           Si  tau(   2) = (   0.0004005   0.2493468   0.2512817  )
         3           Si  tau(   3) = (   0.2506741   0.0007365   0.2524458  )
         4           Si  tau(   4) = (   0.2515522   0.2496904  -0.0003302  )
         5           Si  tau(   5) = (   0.1253456   0.1238627   0.1264211  )
         6           Si  tau(   6) = (   0.5007426   0.0003722  -0.0005175  )
         7           Si  tau(   7) = (   0.5015087   0.2481872   0.2525154  )
         8           Si  tau(   8) = (   0.6269587   0.1241140   0.1259828  )
         9           Si  tau(   9) = (   0.7510320   0.0000136   0.2522388  )
        10           Si  tau(  10) = (   0.7526747   0.2495648  -0.0006160  )
        11           Si  tau(  11) = (  -0.0007607   0.4974720   0.0004599  )
        12           Si  tau(  12) = (   0.2502870   0.4972429   0.2519584  )
        13           Si  tau(  13) = (   0.1262262   0.6220649   0.1259869  )
        14           Si  tau(  14) = (   0.3768639   0.3725672   0.1269240  )
        15           Si  tau(  15) = (   0.5009605   0.4977880  -0.0001535  )
        16           Si  tau(  16) = (   0.6257714   0.6226326   0.1255811  )
        17           Si  tau(  17) = (   0.8771333   0.3731254   0.1260625  )
        18           Si  tau(  18) = (   0.7524644   0.4976139   0.2527590  )
        19           Si  tau(  19) = (  -0.0000715   0.7460440   0.2528440  )
        20           Si  tau(  20) = (   0.2499543   0.7462404   0.0001899  )
        21           Si  tau(  21) = (   0.3751283   0.8703358   0.1265501  )
        22           Si  tau(  22) = (   0.5019627   0.7469586   0.2520917  )
        23           Si  tau(  23) = (   0.7510909   0.7459965   0.0002617  )
        24           Si  tau(  24) = (   0.8776544   0.8716138   0.1267352  )
        25           Si  tau(  25) = (   0.0002048  -0.0004324   0.5035281  )
        26           Si  tau(  26) = (   0.2515335   0.2495754   0.5039728  )
        27           Si  tau(  27) = (   0.1251769   0.1245044   0.6303376  )
        28           Si  tau(  28) = (   0.3767676   0.1241266   0.3776589  )
        29           Si  tau(  29) = (   0.5015389  -0.0008383   0.5049287  )
        30           Si  tau(  30) = (   0.6265023   0.1252856   0.6296190  )
        31           Si  tau(  31) = (   0.8772066   0.1239801   0.3779053  )
        32           Si  tau(  32) = (   0.7510282   0.2493193   0.5039608  )
        33           Si  tau(  33) = (   0.1250861   0.3734749   0.3778470  )
        34           Si  tau(  34) = (   0.0004020   0.4981712   0.5043498  )
        35           Si  tau(  35) = (   0.1254087   0.6223973   0.6298130  )
        36           Si  tau(  36) = (   0.6269208   0.3729022   0.3784250  )
        37           Si  tau(  37) = (   0.3765383   0.6223362   0.3776815  )
        38           Si  tau(  38) = (   0.3765255   0.3733200   0.6298712  )
        39           Si  tau(  39) = (   0.5013516   0.4984883   0.5043234  )
        40           Si  tau(  40) = (   0.6262189   0.6224686   0.6308523  )
        41           Si  tau(  41) = (   0.8764522   0.6215482   0.3778424  )
        42           Si  tau(  42) = (   0.8768720   0.3739623   0.6309508  )
        43           Si  tau(  43) = (   0.1244701   0.8719530   0.3789054  )
        44           Si  tau(  44) = (   0.2503910   0.7464832   0.5038138  )
        45           Si  tau(  45) = (   0.6261154   0.8718667   0.3783512  )
        46           Si  tau(  46) = (   0.3753252   0.8709417   0.6294036  )
        47           Si  tau(  47) = (   0.7515758   0.7473497   0.5042839  )
        48           Si  tau(  48) = (   0.8770714   0.8703119   0.6301077  )
        49           Si  tau(  49) = (  -0.0005581   0.2484138   0.7556515  )
        50           Si  tau(  50) = (   0.2502158  -0.0005130   0.7562226  )
        51           Si  tau(  51) = (   0.3751217   0.1251535   0.8825456  )
        52           Si  tau(  52) = (   0.5008587   0.2483537   0.7568972  )
        53           Si  tau(  53) = (   0.7525975  -0.0002314   0.7566240  )
        54           Si  tau(  54) = (   0.8768057   0.1239763   0.8811839  )
        55           Si  tau(  55) = (   0.1248039   0.3726468   0.8824974  )
        56           Si  tau(  56) = (   0.2508046   0.4980708   0.7564818  )
        57           Si  tau(  57) = (   0.6268095   0.3730952   0.8827309  )
        58           Si  tau(  58) = (   0.3763417   0.6221948   0.8825313  )
        59           Si  tau(  59) = (   0.7521061   0.4987159   0.7555542  )
        60           Si  tau(  60) = (   0.8767456   0.6217158   0.8812375  )
        61           Si  tau(  61) = (   0.0008644   0.7469255   0.7552942  )
        62           Si  tau(  62) = (   0.1244902   0.8707507   0.8819558  )
        63           Si  tau(  63) = (   0.5007244   0.7473012   0.7556450  )
        64           Si  tau(  64) = (   0.6271165   0.8705719   0.8812569  )

     number of k points=     1  Fermi-Dirac smearing, width (Ry)=  0.0100
                       cart. coord. in units 2pi/alat
        k(    1) = (   0.0000000   0.0000000   0.0000000), wk =   2.0000000

     Dense  grid:    99343 G-vectors     FFT dimensions: (  75,  75,  75)

     Estimated max dynamical RAM per process >     159.85 MB

     Estimated total dynamical RAM >     615.16 MB

     Initial potential from superposition of free atoms

     starting charge     255.9608, renormalised to     256.0000
     Starting wfcs are  256 randomized atomic wfcs

     total cpu time spent up to now is        4.2 secs

     Self-consistent Calculation

     iteration #  1     ecut=    30.00 Ry     beta= 0.50
     Davidson diagonalization with overlap
     ethr =  1.00E-02,  avg # of iterations =  3.0

     Threshold (ethr) on eigenvalues was too large:
     Diagonalizing with lowered threshold

     Davidson diagonalization with overlap
     ethr =  6.45E-04,  avg # of iterations =  2.0

     total cpu time spent up to now is        4.5 secs

     total energy              =    -503.97604520 Ry
     estimated scf accuracy    <       1.83307168 Ry

     iteration #  2     ecut=    30.00 Ry     beta= 0.50
     Davidson diagonalization with overlap
     ethr =  7.16E-04,  avg # of iterations =  2.0

     total cpu time spent up to now is        4.6 secs

     total energy              =    -503.95705421 Ry
     estimated scf accuracy    <       0.34607629 Ry

     iteration #  3     ecut=    30.00 Ry     beta= 0.50
     Davidson diagonalization with overlap
     ethr =  1.35E-04,  avg # of iterations =  4.0

     total cpu time spent up to now is        4.7 secs

     total energy              =    -503.97873121 Ry
     estimated scf accuracy    <       0.00754465 Ry

     iteration #  4     ecut=    30.00 Ry     beta= 0.50
     Davidson diagonalization with overlap
     ethr =  2.95E-06,  avg # of iterations = 19.0

     total cpu time spent up to now is        4.9 secs

     total energy              =    -503.98071322 Ry
     estimated scf accuracy    <       0.00952405 Ry

     iteration #  5     ecut=    30.00 Ry     beta= 0.50
     Davidson diagonalization with overlap
     ethr =  2.95E-06,  avg # of iterations =  6.0

     total cpu time spent up to now is        5.0 secs

     total energy              =    -503.98243483 Ry
     estimated scf accuracy    <       0.00047308 Ry

     iteration #  6     ecut=    30.00 Ry     beta= 0.50
     Davidson diagonalization with overlap
     ethr =  1.85E-07,  avg # of iterations =  3.0

     total cpu time spent up to now is        5.1 secs

     total energy              =    -503.98247914 Ry
     estimated scf accuracy    <       0.00010844 Ry

     iteration #  7     ecut=    30.00 Ry     beta= 0.50
     Davidson diagonalization with overlap
     ethr =  4.24E-08,  avg # of iterations =  5.0

     total cpu time spent up to now is        5.3 secs

     total energy              =    -503.98248451 Ry
     estimated scf accuracy    <       0.00002206 Ry

     iteration #  8     ecut=    30.00 Ry     beta= 0.50
     Davidson diagonalization with overlap
     ethr =  8.62E-09,  avg # of iterations =  4.0

     total cpu time spent up to now is        5.4 secs

     total energy              =    -503.98248796 Ry
     estimated scf accuracy    <       0.00000139 Ry

     iteration #  9     ecut=    30.00 Ry     beta= 0.50
     Davidson diagonalization with overlap
     ethr =  5.45E-10,  avg # of iterations =  6.0

     total cpu time spent up to now is        5.5 secs

     total energy              =    -503.98248871 Ry
     estimated scf accuracy    <       0.00000299 Ry

     iteration # 10     ecut=    30.00 Ry     beta= 0.50
     Davidson diagonalization with overlap
     ethr =  5.45E-10,  avg # of iterations =  4.0

     total cpu time spent up to now is        5.6 secs

     End of self-consistent calculation

          k = 0.0000 0.0000 0.0000 ( 12435 PWs)   bands (ev):

    -5.8362  -4.8286  -4.8042  -4.7967  -4.7755  -4.7655  -4.7268  -3.9480
    -3.9125  -3.9051  -3.8910  -3.8748  -3.8569  -3.8456  -3.8220  -3.8105
    -3.8003  -3.7846  -3.7783  -3.6123  -3.5756  -3.5570  -3.5265  -1.8958
    -1.8682  -1.8489  -1.7826  -1.7788  -1.7609  -1.6987  -1.6924  -1.6830
    -1.6722  -1.6647  -1.6457  -1.6399  -1.6368  -1.6292  -1.6187  -1.6121
    -1.6025  -0.9581  -0.9319  -0.9126  -0.8483   0.4415   0.4437   0.4598
     0.4640   0.4689   0.4766   0.4805   0.4892   0.4952   0.5006   0.5191
     0.5249   2.1040   2.1122   2.1262   2.1299   2.1704   2.1790   2.1835
     2.1920   2.1950   2.1980   2.2023   2.2043   2.2450   2.2700   2.2826
     2.2879   2.2966   2.2969   2.2999   2.3028   2.3065   2.3108   2.3172
     2.3231   2.3591   2.3867   2.3954   2.4042   2.4115   2.4177   3.1077
     3.1188   3.1302   3.1514   3.1623   3.1679   3.9896   4.0468   4.0529
     4.0599   4.0681   4.0719   4.0809   4.0972   4.1032   4.1098   4.1414
     4.1480   4.3869   4.5701   4.5715   4.5925   4.6113   4.6198   4.6354
     4.6429   4.6457   4.6583   4.6664   4.6790   4.7059   4.7231   4.7381
     4.7604   4.7696   4.7874   4.7968   4.8097   5.8577   5.9146   5.9670
     6.5847   6.6045   6.6223   6.6817   6.6943   6.7152   7.0263   7.0353
     7.0472   7.0506   7.0637   7.0818   7.2824   7.2892   7.2989   7.3096
     8.2061   8.2674   8.2724   8.2776   8.2903   8.3099   8.3121   8.3216
     8.3336   8.3409

     the Fermi energy is     6.2262 ev

!    total energy              =    -503.98248874 Ry
     estimated scf accuracy    <       0.00000026 Ry
     smearing contrib. (-TS)   =      -0.04246921 Ry
     internal energy E=F+TS    =    -503.94001953 Ry

     The total energy is F=E-TS. E is the sum of the following terms:
     one-electron contribution =     143.39337185 Ry
     hartree contribution      =      37.01860694 Ry
     xc contribution           =    -153.23152707 Ry
     ewald contribution        =    -531.12047126 Ry

     convergence has been achieved in  10 iterations

     Forces acting on atoms (cartesian axes, Ry/au):

     atom    1 type  1   force =     0.00605687   -0.00533570    0.02665293
     atom    2 type  1   force =     0.00490066   -0.00425582    0.00392925
     atom    3 type  1   force =    -0.00106032   -0.01079713    0.00040658
     atom    4 type  1   force =    -0.00603694   -0.00262756    0.03142329
     atom    5 type  1   force =     0.00370255    0.00410684   -0.00249699
     atom    6 type  1   force =     0.00221076   -0.01091340    0.02590121
     atom    7 type  1   force =     0.00379149    0.00089723   -0.00144914
     atom    8 type  1   force =    -0.00132803    0.00212026   -0.00053232
     atom    9 type  1   force =     0.00334323   -0.00556380   -0.00020400
     atom   10 type  1   force =    -0.00272052   -0.00583556    0.02820052
     atom   11 type  1   force =     0.01113369    0.00165276    0.02277043
     atom   12 type  1   force =     0.00472432    0.00152583    0.00067625
     atom   13 type  1   force =    -0.00611128   -0.00142005    0.00422223
     atom   14 type  1   force =    -0.00219141    0.00309319    0.00059328
     atom   15 type  1   force =     0.00144935   -0.00223785    0.02794311
     atom   16 type  1   force =     0.00393488   -0.00508040    0.00721193
     atom   17 type  1   force =    -0.00760204    0.00138639    0.00395042
     atom   18 type  1   force =    -0.00745258   -0.00052879   -0.00617096
     atom   19 type  1   force =     0.00900176    0.00289392   -0.00261709
     atom   20 type  1   force =     0.00274932    0.00239437    0.02248651
     atom   21 type  1   force =     0.00272680    0.01006033    0.00072580
     atom   22 type  1   force =    -0.00355127    0.00098805    0.00012643
     atom   23 type  1   force =     0.00565643    0.00418475    0.02333214
     atom   24 type  1   force =    -0.01078962    0.00107882    0.00034106
     atom   25 type  1   force =     0.00328572   -0.00234160    0.00537894
     atom   26 type  1   force =    -0.00298973   -0.00407280   -0.00195144
     atom   27 type  1   force =     0.00274050   -0.00090352   -0.00412319
     atom   28 type  1   force =    -0.00153334   -0.00086281    0.00674447
     atom   29 type  1   force =    -0.00254690   -0.00007692   -0.00372967
     atom   30 type  1   force =     0.00058608   -0.00628692    0.00588469
     atom   31 type  1   force =    -0.00809452    0.00375755    0.00047582
     atom   32 type  1   force =     0.00696024   -0.00120892    0.00017345
     atom   33 type  1   force =     0.00185364   -0.00095370    0.00313766
     atom   34 type  1   force =     0.00375047   -0.00204489   -0.00188075
     atom   35 type  1   force =     0.00381007   -0.00116993    0.00140504
     atom   36 type  1   force =    -0.00384856    0.00391445   -0.00043165
     atom   37 type  1   force =    -0.00275564   -0.00047785    0.00090702
     atom   38 type  1   force =    -0.00057750    0.00197308    0.00372112
     atom   39 type  1   force =     0.00140044   -0.00267879   -0.00217101
     atom   40 type  1   force =     0.00037829    0.00252310   -0.00423392
     atom   41 type  1   force =    -0.00432250    0.00392848    0.00627012
     atom   42 type  1   force =    -0.00651537   -0.00216980   -0.00601852
     atom   43 type  1   force =     0.00598098    0.00071665   -0.00401535
     atom   44 type  1   force =     0.00036205    0.00158054   -0.00334151
     atom   45 type  1   force =     0.00195656    0.00234258    0.00112550
     atom   46 type  1   force =    -0.00000868    0.00552853    0.00322506
     atom   47 type  1   force =    -0.00217592   -0.00377692   -0.00281066
     atom   48 type  1   force =    -0.00478001    0.01074421   -0.00098867
     atom   49 type  1   force =     0.00903191    0.00159210   -0.00105100
     atom   50 type  1   force =     0.00054085   -0.00325409   -0.00246803
     atom   51 type  1   force =     0.00208629   -0.00653438   -0.02822547
     atom   52 type  1   force =     0.00192850    0.00296631   -0.00574219
     atom   53 type  1   force =    -0.00571774   -0.00539396   -0.01018672
     atom   54 type  1   force =    -0.00447287    0.00183701   -0.02013857
     atom   55 type  1   force =     0.00075581    0.00343195   -0.02690203
     atom   56 type  1   force =    -0.00130911   -0.00262016   -0.00403366
     atom   57 type  1   force =    -0.00098119    0.00357756   -0.02996193
     atom   58 type  1   force =    -0.00269596    0.00258283   -0.02695385
     atom   59 type  1   force =    -0.00563986   -0.00501403    0.00093370
     atom   60 type  1   force =    -0.00395996    0.00574976   -0.02128534
     atom   61 type  1   force =     0.00191370   -0.00323724    0.00007238
     atom   62 type  1   force =     0.00436763    0.00606849   -0.02340283
     atom   63 type  1   force =    -0.00005548   -0.00132096   -0.00098448
     atom   64 type  1   force =    -0.00524703    0.00979831   -0.01984540

     Total force =     0.116695     Total SCF correction =     0.001021


     Computing stress (Cartesian axis) and pressure

          total   stress  (Ry/bohr**3)                   (kbar)     P=       -2.32
  -0.00001847  -0.00003144   0.00001087           -2.72       -4.63        1.60
  -0.00003144  -0.00000550  -0.00000711           -4.63       -0.81       -1.05
   0.00001087  -0.00000711  -0.00002327            1.60       -1.05       -3.42

 
     init_run     :      0.77s CPU      4.17s WALL (       1 calls)
     electrons    :      1.24s CPU      1.38s WALL (       1 calls)
     forces       :      0.03s CPU      0.05s WALL (       1 calls)
     stress       :      0.15s CPU      0.16s WALL (       1 calls)

     Called by init_run:
     wfcinit      :      0.44s CPU      3.70s WALL (       1 calls)
                                        3.70s GPU  (       1 calls)
     potinit      :      0.14s CPU      0.21s WALL (       1 calls)
     hinit0       :      0.17s CPU      0.19s WALL (       1 calls)

     Called by electrons:
     c_bands      :      0.88s CPU      0.94s WALL (      11 calls)
     sum_band     :      0.20s CPU      0.24s WALL (      11 calls)
     v_of_rho     :      0.09s CPU      0.16s WALL (      11 calls)
     mix_rho      :      0.06s CPU      0.10s WALL (      11 calls)

     Called by c_bands:
     init_us_2    :      0.03s CPU      0.03s WALL (      23 calls)
     init_us_2:gp :      0.03s CPU      0.03s WALL (      23 calls)
     regterg      :      0.80s CPU      0.85s WALL (      11 calls)

     Called by *egterg:
     rdiaghg      :      0.30s CPU      0.94s WALL (      68 calls)
                                        0.92s GPU  (      68 calls)
     h_psi        :      0.81s CPU      3.47s WALL (      70 calls)
                                        3.47s GPU  (      70 calls)
     g_psi        :      0.00s CPU      0.00s WALL (      58 calls)
                                        0.00s GPU  (      58 calls)

     Called by h_psi:
     h_psi:calbec :      0.40s CPU      3.00s WALL (      70 calls)
                                        3.00s GPU  (      70 calls)
     vloc_psi     :      0.37s CPU      0.43s WALL (      70 calls)
                                        0.42s GPU  (      70 calls)
     add_vuspsi   :      0.02s CPU      0.04s WALL (      70 calls)
                                        0.04s GPU  (      70 calls)

     General routines
     calbec       :      0.40s CPU      3.01s WALL (      75 calls)
     fft          :      0.20s CPU      0.29s WALL (      95 calls)
                                        0.09s GPU  (      61 calls)
     ffts         :      0.02s CPU      0.02s WALL (      11 calls)
     fftw         :      0.40s CPU      0.52s WALL (    1217 calls)
                                        0.48s GPU  (    1217 calls)
 
     Parallel routines
 
     PWSCF        :      2.23s CPU      5.84s WALL

 
   This run was terminated on:  10:57:50  10May2023            

=------------------------------------------------------------------------------=
   JOB DONE.
=------------------------------------------------------------------------------=
