ITEM: TIMESTEP
0
ITEM: NUMBER OF ATOMS
64
ITEM: BOX BOUNDS pp pp pp
3.7806214841236141e-02 1.0823593785158319e+01
3.7806214841236141e-02 1.0823593785158319e+01
3.7806214841236141e-02 1.0823593785158319e+01
ITEM: ATOMS id type xs ys zs
18 1 0.4543 0.0295539 0.346022
7 1 0.239321 0.335395 0.227033
55 1 0.228549 0.0809235 0.413895
20 1 0.401751 0.340461 0.0410474
59 1 0.0318736 0.148491 0.385513
1 1 0.345535 0.353161 0.462824
35 1 0.237659 0.173459 0.0913436
41 1 0.931878 0.487126 0.201875
40 1 0.548828 0.498319 0.114571
36 1 0.707144 0.305629 0.47982
16 1 0.627179 0.221045 0.149488
26 1 0.995906 0.299909 0.207509
28 1 0.85004 0.13712 0.24806
60 1 0.508179 0.251246 0.371116
54 1 0.619435 0.000645107 0.0448478
56 1 0.870228 0.457391 0.419496
11 1 0.93209 0.0505924 0.0669291
38 1 0.296467 0.790639 0.066619
44 1 0.0584726 0.903984 0.168567
49 1 0.0181763 0.696929 0.237525
30 1 0.177863 0.547998 0.239611
47 1 0.318844 0.598619 0.115537
32 1 0.344887 0.803017 0.392768
43 1 0.438263 0.913025 0.168423
42 1 0.68561 0.546211 0.461983
58 1 0.549338 0.759451 0.304721
39 1 0.684714 0.934036 0.368143
52 1 0.799484 0.861633 0.112891
10 1 0.8363 0.703218 0.364665
9 1 0.519965 0.550054 0.327847
34 1 0.967076 0.926865 0.423592
37 1 0.768207 0.526423 0.0546246
24 1 0.673384 0.734232 0.0214666
53 1 0.091444 0.0387662 0.652031
64 1 0.0855283 0.493844 0.544752
48 1 0.484242 0.493602 0.630312
51 1 0.304987 0.424893 0.885809
21 1 0.0953373 0.48398 0.881435
23 1 0.0978324 0.263214 0.549935
19 1 0.408939 0.0619498 0.783167
17 1 0.314163 0.2993 0.669487
4 1 0.247261 0.0809767 0.915221
33 1 0.58847 0.135716 0.889162
13 1 0.787017 0.093336 0.751779
3 1 0.940586 0.228732 0.726364
61 1 0.572992 0.343222 0.854196
63 1 0.705688 0.457711 0.682747
29 1 0.541948 0.177583 0.602725
46 1 0.873809 0.429225 0.879054
31 1 0.844753 0.21884 0.955639
50 1 0.734703 0.10321 0.528209
15 1 0.16201 0.697338 0.923759
27 1 0.447599 0.582672 0.858319
12 1 0.382725 0.872592 0.679082
5 1 0.0840978 0.961565 0.93485
45 1 0.184917 0.738296 0.70773
22 1 0.228604 0.517141 0.710034
8 1 0.0387798 0.729838 0.514105
25 1 0.865979 0.605235 0.734772
62 1 0.997399 0.825344 0.807512
14 1 0.56171 0.756524 0.81794
6 1 0.725982 0.776433 0.590006
2 1 0.507353 0.685307 0.593108
57 1 0.858428 0.915731 0.664281
ITEM: TIMESTEP
10
ITEM: NUMBER OF ATOMS
64
ITEM: BOX BOUNDS pp pp pp
3.7892147437310619e-02 1.0823507852562249e+01
3.7892147437310619e-02 1.0823507852562249e+01
3.7892147437310619e-02 1.0823507852562249e+01
ITEM: ATOMS id type xs ys zs
18 1 0.452565 0.0240145 0.344183
7 1 0.243303 0.345461 0.236002
55 1 0.241717 0.0805281 0.403875
20 1 0.398634 0.335495 0.0504335
59 1 0.0219949 0.158779 0.384594
1 1 0.346942 0.356997 0.459048
35 1 0.238086 0.161569 0.0998206
41 1 0.927097 0.500022 0.199945
40 1 0.550269 0.499639 0.125714
36 1 0.701647 0.313931 0.479585
16 1 0.629405 0.223027 0.153607
26 1 0.990824 0.299496 0.22013
28 1 0.85146 0.129495 0.252274
60 1 0.518442 0.260485 0.362191
54 1 0.620009 0.00169363 0.0543831
56 1 0.871 0.459444 0.417463
11 1 0.933053 0.0499867 0.0695799
38 1 0.30293 0.782112 0.0535224
44 1 0.0722196 0.909301 0.16687
49 1 0.0242748 0.699862 0.23129
30 1 0.177617 0.548968 0.234536
47 1 0.331287 0.602848 0.103593
32 1 0.3362 0.795391 0.385708
43 1 0.439453 0.91346 0.174457
42 1 0.685523 0.557609 0.460252
58 1 0.552401 0.761039 0.310044
39 1 0.67757 0.944266 0.373275
52 1 0.800856 0.863224 0.114489
10 1 0.842639 0.693704 0.357788
9 1 0.511105 0.548711 0.330088
34 1 0.958886 0.910954 0.409377
37 1 0.773557 0.528621 0.0667772
24 1 0.671452 0.737138 0.0288525
53 1 0.0819053 0.0447146 0.652383
64 1 0.0807573 0.481893 0.540749
48 1 0.48181 0.482469 0.632369
51 1 0.296556 0.423568 0.888446
21 1 0.102112 0.483691 0.8787
23 1 0.10704 0.264002 0.551932
19 1 0.415702 0.0698747 0.788326
17 1 0.306752 0.292725 0.663189
4 1 0.252296 0.0790114 0.924763
33 1 0.588432 0.133415 0.894976
13 1 0.792467 0.0942063 0.75493
3 1 0.94395 0.227232 0.72639
61 1 0.569463 0.347047 0.857382
63 1 0.701478 0.448316 0.684094
29 1 0.539691 0.162116 0.602175
46 1 0.864881 0.426508 0.881954
31 1 0.838568 0.221225 0.952757
50 1 0.73412 0.102302 0.515362
15 1 0.148533 0.692409 0.929247
27 1 0.452464 0.58267 0.855016
12 1 0.371871 0.868043 0.679626
5 1 0.0823923 0.953227 0.940761
45 1 0.189635 0.738892 0.702729
22 1 0.23261 0.515309 0.699224
8 1 0.0391788 0.732509 0.510064
25 1 0.859976 0.599158 0.732983
62 1 0.994725 0.836561 0.806614
14 1 0.562781 0.766811 0.809338
6 1 0.72563 0.776999 0.586261
2 1 0.513737 0.697519 0.598273
57 1 0.866295 0.917223 0.663136
ITEM: TIMESTEP
20
ITEM: NUMBER OF ATOMS
64
ITEM: BOX BOUNDS pp pp pp
3.8276706770402846e-02 1.0823123293229159e+01
3.8276706770402846e-02 1.0823123293229159e+01
3.8276706770402846e-02 1.0823123293229159e+01
ITEM: ATOMS id type xs ys zs
18 1 0.452536 0.0233812 0.348005
7 1 0.24819 0.353563 0.245834
55 1 0.253024 0.0805211 0.394855
20 1 0.398337 0.328525 0.0632424
59 1 0.013009 0.165545 0.38416
1 1 0.348363 0.362158 0.451519
35 1 0.239019 0.155132 0.11724
41 1 0.925146 0.51458 0.200151
40 1 0.551619 0.50096 0.133911
36 1 0.696905 0.324141 0.479943
16 1 0.63219 0.222988 0.158043
26 1 0.988188 0.297534 0.232439
28 1 0.847775 0.12237 0.257594
60 1 0.5296 0.267578 0.351553
54 1 0.620088 0.000819104 0.068714
56 1 0.875105 0.459876 0.415446
11 1 0.932479 0.0489686 0.0703131
38 1 0.308305 0.786419 0.0370274
44 1 0.0869075 0.913609 0.167063
49 1 0.0306223 0.704975 0.223862
30 1 0.17537 0.548889 0.230492
47 1 0.349998 0.594364 0.0922716
32 1 0.327807 0.788084 0.379592
43 1 0.441306 0.910437 0.174792
42 1 0.683753 0.571783 0.460015
58 1 0.555959 0.764403 0.315842
39 1 0.670296 0.953013 0.377815
52 1 0.806058 0.871565 0.118888
10 1 0.847946 0.686107 0.353154
9 1 0.500203 0.546061 0.334051
34 1 0.949993 0.897542 0.394896
37 1 0.772749 0.531943 0.075492
24 1 0.666471 0.73419 0.0319259
53 1 0.0714584 0.0504267 0.652348
64 1 0.0722104 0.472647 0.534894
48 1 0.477514 0.469797 0.634526
51 1 0.292315 0.420626 0.890723
21 1 0.101626 0.483378 0.878073
23 1 0.116507 0.263926 0.556531
19 1 0.4217 0.0769788 0.787947
17 1 0.301349 0.284499 0.658828
4 1 0.257613 0.0749046 0.926847
33 1 0.592137 0.132097 0.898831
13 1 0.791677 0.0940592 0.760511
3 1 0.952561 0.228889 0.726972
61 1 0.564615 0.354714 0.860108
63 1 0.696604 0.437449 0.686535
29 1 0.535059 0.14733 0.602458
46 1 0.857814 0.425675 0.884508
31 1 0.832928 0.220713 0.95007
50 1 0.735654 0.0994607 0.504106
15 1 0.134484 0.688798 0.934097
27 1 0.457259 0.579961 0.85183
12 1 0.362535 0.862651 0.680269
5 1 0.0825293 0.948639 0.950462
45 1 0.193294 0.740898 0.697018
22 1 0.236802 0.515295 0.685758
8 1 0.0405584 0.73225 0.507497
25 1 0.853368 0.595547 0.730088
62 1 0.991694 0.840109 0.802587
14 1 0.564567 0.777988 0.802632
6 1 0.723856 0.774297 0.580739
2 1 0.519685 0.712798 0.601267
57 1 0.874936 0.920094 0.658694
ITEM: TIMESTEP
30
ITEM: NUMBER OF ATOMS
64
ITEM: BOX BOUNDS pp pp pp
3.9134054392772732e-02 1.0822265945606789e+01
3.9134054392772732e-02 1.0822265945606789e+01
3.9134054392772732e-02 1.0822265945606789e+01
ITEM: ATOMS id type xs ys zs
18 1 0.456138 0.0265949 0.356121
7 1 0.253939 0.358082 0.254999
55 1 0.259306 0.0820725 0.385579
20 1 0.399691 0.320556 0.0777568
59 1 0.0081829 0.167067 0.389678
1 1 0.3517 0.367936 0.441671
35 1 0.240482 0.151021 0.140629
41 1 0.929524 0.527059 0.203962
40 1 0.554273 0.501719 0.138981
36 1 0.694015 0.334523 0.48188
16 1 0.636012 0.220601 0.161695
26 1 0.985897 0.300222 0.241016
28 1 0.838455 0.114831 0.263357
60 1 0.539343 0.272957 0.340788
54 1 0.619758 0.999934 0.0856906
56 1 0.880228 0.458892 0.413547
11 1 0.930624 0.049223 0.0695692
38 1 0.312858 0.795799 0.0191589
44 1 0.103028 0.917978 0.170501
49 1 0.0377042 0.713639 0.214823
30 1 0.173857 0.549647 0.224702
47 1 0.369851 0.579987 0.0817582
32 1 0.319833 0.781085 0.373764
43 1 0.442852 0.903611 0.17081
42 1 0.680524 0.587913 0.460332
58 1 0.559271 0.768232 0.322398
39 1 0.661824 0.957523 0.379271
52 1 0.811585 0.882529 0.124398
10 1 0.852628 0.680093 0.350172
9 1 0.487659 0.543464 0.341048
34 1 0.93986 0.886025 0.379298
37 1 0.763592 0.536178 0.0782902
24 1 0.660711 0.728538 0.0328142
53 1 0.0606717 0.0555189 0.651947
64 1 0.0611549 0.467749 0.528467
48 1 0.471529 0.458375 0.636636
51 1 0.29421 0.415658 0.893456
21 1 0.0936528 0.482656 0.878021
23 1 0.123389 0.260531 0.560738
19 1 0.425377 0.0822804 0.782468
17 1 0.300986 0.27504 0.656989
4 1 0.262219 0.0701648 0.926029
33 1 0.600211 0.132071 0.902419
13 1 0.786364 0.0937545 0.767507
3 1 0.963618 0.232428 0.728975
61 1 0.558323 0.364589 0.863046
63 1 0.691828 0.42585 0.689974
29 1 0.529713 0.132792 0.602001
46 1 0.852417 0.427571 0.886776
31 1 0.827893 0.216719 0.948124
50 1 0.739878 0.100291 0.496656
15 1 0.120291 0.688337 0.938183
27 1 0.462212 0.575553 0.848906
12 1 0.357822 0.859873 0.681086
5 1 0.0851808 0.946451 0.960721
45 1 0.192255 0.741475 0.691367
22 1 0.240515 0.516535 0.671348
8 1 0.0433873 0.728817 0.506686
25 1 0.845683 0.593473 0.726167
62 1 0.991311 0.83692 0.7987
14 1 0.566891 0.788939 0.799783
6 1 0.72452 0.770894 0.574587
2 1 0.522557 0.72753 0.601237
57 1 0.880963 0.92455 0.648439
ITEM: TIMESTEP
40
ITEM: NUMBER OF ATOMS
64
ITEM: BOX BOUNDS pp pp pp
4.0503229146038322e-02 1.0820896770853519e+01
4.0503229146038322e-02 1.0820896770853519e+01
4.0503229146038322e-02 1.0820896770853519e+01
ITEM: ATOMS id type xs ys zs
18 1 0.462776 0.0318181 0.365644
7 1 0.258257 0.358842 0.260056
55 1 0.258749 0.085695 0.375367
20 1 0.4021 0.31227 0.0922174
59 1 0.00708433 0.163008 0.400706
1 1 0.358589 0.373513 0.43414
35 1 0.24265 0.146734 0.164779
41 1 0.937874 0.535434 0.207359
40 1 0.560102 0.500742 0.143564
36 1 0.693674 0.343836 0.484909
16 1 0.641406 0.215725 0.162713
26 1 0.982941 0.307817 0.245005
28 1 0.826264 0.107468 0.269091
60 1 0.545673 0.277248 0.332818
54 1 0.619395 0.000713971 0.101685
56 1 0.882781 0.456153 0.410915
11 1 0.928845 0.0528041 0.0679995
38 1 0.316353 0.803563 0.00206436
44 1 0.120249 0.923635 0.178163
49 1 0.0453256 0.725285 0.204413
30 1 0.173766 0.551362 0.216987
47 1 0.383933 0.567958 0.0703336
32 1 0.313257 0.774881 0.367795
43 1 0.443136 0.894485 0.166719
42 1 0.675584 0.602311 0.459782
58 1 0.560874 0.771173 0.328982
39 1 0.653936 0.957163 0.377214
52 1 0.814147 0.891157 0.130317
10 1 0.856201 0.676027 0.349364
9 1 0.475037 0.542076 0.34964
34 1 0.929615 0.876576 0.363844
37 1 0.751574 0.53952 0.0770302
24 1 0.655577 0.724019 0.0327644
53 1 0.0516078 0.0589498 0.650829
64 1 0.0520248 0.46709 0.524205
48 1 0.464295 0.448681 0.638595
51 1 0.29919 0.409891 0.896432
21 1 0.0824811 0.480627 0.878163
23 1 0.124903 0.255138 0.562094
19 1 0.425899 0.085675 0.77538
17 1 0.308852 0.26547 0.658553
4 1 0.266052 0.0661471 0.92671
33 1 0.610328 0.132854 0.906549
13 1 0.779681 0.0934174 0.773495
3 1 0.973232 0.237238 0.733525
61 1 0.551371 0.373996 0.866733
63 1 0.687887 0.415531 0.694055
29 1 0.525486 0.119101 0.597993
46 1 0.848271 0.431505 0.888774
31 1 0.824061 0.211206 0.94744
50 1 0.74661 0.106552 0.494035
15 1 0.107198 0.691398 0.941984
27 1 0.466877 0.571768 0.846791
12 1 0.3592 0.861262 0.682285
5 1 0.0891083 0.944667 0.966984
45 1 0.185289 0.739244 0.686221
22 1 0.24311 0.518246 0.657443
8 1 0.0470015 0.723093 0.506878
25 1 0.83691 0.592346 0.721423
62 1 0.994279 0.829644 0.796731
14 1 0.569301 0.797922 0.801773
6 1 0.730539 0.769077 0.569712
2 1 0.520631 0.740499 0.597926
57 1 0.882828 0.929675 0.633807
ITEM: TIMESTEP
50
ITEM: NUMBER OF ATOMS
64
ITEM: BOX BOUNDS pp pp pp
4.2195906774518122e-02 1.0819204093225039e+01
4.2195906774518122e-02 1.0819204093225039e+01
4.2195906774518122e-02 1.0819204093225039e+01
ITEM: ATOMS id type xs ys zs
18 1 0.467989 0.0399887 0.376429
7 1 0.258443 0.357042 0.259133
55 1 0.253124 0.0898175 0.367034
20 1 0.405574 0.303914 0.105679
59 1 0.00673878 0.155368 0.412279
1 1 0.369527 0.377928 0.432661
35 1 0.245428 0.142395 0.185207
41 1 0.947644 0.539965 0.206768
40 1 0.567084 0.497183 0.151666
36 1 0.695578 0.351798 0.487737
16 1 0.648738 0.209367 0.160466
26 1 0.979498 0.316796 0.247692
28 1 0.814077 0.100509 0.275001
60 1 0.548791 0.281563 0.329005
54 1 0.618893 0.00271526 0.115364
56 1 0.879958 0.451365 0.40615
11 1 0.928464 0.0599351 0.0659571
38 1 0.318553 0.809644 0.985214
44 1 0.13948 0.932285 0.189464
49 1 0.0531662 0.737827 0.192229
30 1 0.175172 0.553838 0.207828
47 1 0.390265 0.559722 0.0566885
32 1 0.308615 0.768982 0.360838
43 1 0.441646 0.883433 0.164476
42 1 0.667965 0.611972 0.456743
58 1 0.559284 0.771898 0.334906
39 1 0.651411 0.954783 0.37434
52 1 0.813302 0.895413 0.136633
10 1 0.857825 0.673037 0.3514
9 1 0.463928 0.543737 0.357506
34 1 0.920141 0.87006 0.348968
37 1 0.744445 0.540618 0.0734671
24 1 0.650397 0.723382 0.0319167
53 1 0.0453215 0.060614 0.648968
64 1 0.0488593 0.469524 0.524204
48 1 0.45606 0.440003 0.640428
51 1 0.30434 0.403955 0.899485
21 1 0.071439 0.477321 0.878728
23 1 0.123577 0.250377 0.561674
19 1 0.42326 0.0877336 0.770461
17 1 0.323277 0.256208 0.662188
4 1 0.270321 0.0621854 0.929846
33 1 0.618487 0.133931 0.912047
13 1 0.774194 0.0916813 0.775491
3 1 0.980317 0.244002 0.741428
61 1 0.544783 0.380044 0.871766
63 1 0.684785 0.407466 0.69889
29 1 0.523501 0.105956 0.587919
46 1 0.844406 0.436373 0.890571
31 1 0.822046 0.207113 0.948535
50 1 0.754429 0.115874 0.494351
15 1 0.0953266 0.696207 0.946531
27 1 0.470532 0.571937 0.84538
12 1 0.363585 0.865471 0.684529
5 1 0.0929537 0.942206 0.969387
45 1 0.175591 0.735738 0.681707
22 1 0.244371 0.519916 0.643968
8 1 0.0502127 0.715633 0.506551
25 1 0.826836 0.59165 0.715971
62 1 0.998601 0.821256 0.794769
14 1 0.57116 0.803928 0.807321
6 1 0.741529 0.770274 0.568212
2 1 0.516245 0.752253 0.592183
57 1 0.880739 0.933806 0.617562
ITEM: TIMESTEP
60
ITEM: NUMBER OF ATOMS
64
ITEM: BOX BOUNDS pp pp pp
4.3855676556748158e-02 1.0817544323442807e+01
4.3855676556748158e-02 1.0817544323442807e+01
4.3855676556748158e-02 1.0817544323442807e+01
ITEM: ATOMS id type xs ys zs
18 1 0.468365 0.0518078 0.387408
7 1 0.254087 0.354861 0.255024
55 1 0.245226 0.0899963 0.371746
20 1 0.41049 0.295792 0.116698
59 1 0.00424015 0.145478 0.420264
1 1 0.380768 0.378409 0.436915
35 1 0.24878 0.141446 0.190492
41 1 0.956874 0.542135 0.201743
40 1 0.569686 0.491433 0.164403
36 1 0.69879 0.357383 0.489496
16 1 0.656971 0.20498 0.1561
26 1 0.976244 0.323615 0.250663
28 1 0.80482 0.0942509 0.280685
60 1 0.55027 0.285696 0.328335
54 1 0.616961 0.00317152 0.125891
56 1 0.873146 0.445575 0.399999
11 1 0.930236 0.0676772 0.0647398
38 1 0.319783 0.815062 0.968761
44 1 0.160014 0.943528 0.202283
49 1 0.0604774 0.749109 0.17851
30 1 0.1786 0.556991 0.198123
47 1 0.391063 0.554464 0.043251
32 1 0.30625 0.762892 0.352458
43 1 0.438755 0.8707 0.163966
42 1 0.658118 0.616192 0.45163
58 1 0.55334 0.77006 0.339258
39 1 0.656636 0.95267 0.372468
52 1 0.810599 0.895712 0.141723
10 1 0.857089 0.668937 0.356287
9 1 0.456582 0.55187 0.362032
34 1 0.912387 0.868108 0.335486
37 1 0.746214 0.539936 0.0679276
24 1 0.644813 0.727321 0.0305507
53 1 0.0417269 0.0612067 0.647475
64 1 0.0511951 0.473677 0.527607
48 1 0.448066 0.432819 0.642531
51 1 0.308109 0.397838 0.902446
21 1 0.0625493 0.473083 0.879883
23 1 0.123984 0.248709 0.562265
19 1 0.419227 0.0881295 0.768731
17 1 0.339004 0.248161 0.665229
4 1 0.275555 0.0576336 0.93498
33 1 0.620836 0.134963 0.91926
13 1 0.77153 0.0878742 0.771741
3 1 0.985408 0.252593 0.752331
61 1 0.539827 0.379983 0.878292
63 1 0.682382 0.402206 0.704526
29 1 0.524055 0.0939233 0.574552
46 1 0.840201 0.44107 0.891731
31 1 0.822453 0.20708 0.95084
50 1 0.761925 0.126078 0.496681
15 1 0.0852806 0.699994 0.952694
27 1 0.472848 0.579042 0.843472
12 1 0.366729 0.871069 0.68866
5 1 0.0955682 0.939191 0.97023
45 1 0.168115 0.732805 0.678529
22 1 0.243999 0.521851 0.631136
8 1 0.0516088 0.706885 0.503987
25 1 0.815865 0.591123 0.710291
62 1 0.00203766 0.814563 0.791017
14 1 0.571744 0.806152 0.814316
6 1 0.754271 0.772709 0.57024
2 1 0.513515 0.76239 0.5848
57 1 0.875945 0.936858 0.602105
ITEM: TIMESTEP
70
ITEM: NUMBER OF ATOMS
64
ITEM: BOX BOUNDS pp pp pp
4.5321264838190878e-02 1.0816078735161359e+01
4.5321264838190878e-02 1.0816078735161359e+01
4.5321264838190878e-02 1.0816078735161359e+01
ITEM: ATOMS id type xs ys zs
18 1 0.464261 0.0656723 0.392101
7 1 0.246544 0.354152 0.251343
55 1 0.235854 0.0858934 0.390449
20 1 0.417052 0.288005 0.124965
59 1 0.998642 0.134205 0.424406
1 1 0.389102 0.374691 0.44319
35 1 0.254312 0.145505 0.180275
41 1 0.964169 0.543943 0.193565
40 1 0.568025 0.484729 0.17923
36 1 0.701533 0.360001 0.491072
16 1 0.665266 0.205402 0.150508
26 1 0.974267 0.326466 0.253381
28 1 0.800195 0.0894199 0.285708
60 1 0.551884 0.2886 0.328851
54 1 0.611929 0.999672 0.13372
56 1 0.866254 0.440848 0.394289
11 1 0.934474 0.0728846 0.0659427
38 1 0.321068 0.820521 0.952721
44 1 0.180195 0.953673 0.215359
49 1 0.0673972 0.759828 0.164305
30 1 0.184746 0.560777 0.18832
47 1 0.388841 0.551356 0.0332635
32 1 0.305508 0.7561 0.342447
43 1 0.434902 0.856353 0.163713
42 1 0.648402 0.616296 0.446967
58 1 0.543166 0.768428 0.34162
39 1 0.665316 0.950915 0.372204
52 1 0.807384 0.893769 0.14308
10 1 0.85511 0.662744 0.363468
9 1 0.45155 0.566169 0.362869
34 1 0.906752 0.869699 0.324327
37 1 0.752801 0.539355 0.0627837
24 1 0.639329 0.734073 0.0292186
53 1 0.0397414 0.061532 0.647687
64 1 0.0549841 0.477393 0.531397
48 1 0.441645 0.428521 0.646203
51 1 0.309709 0.39082 0.905059
21 1 0.056544 0.46781 0.881694
23 1 0.12786 0.250536 0.564933
19 1 0.416699 0.0848002 0.769887
17 1 0.351941 0.242422 0.665248
4 1 0.281584 0.0523656 0.941899
33 1 0.617516 0.135748 0.927259
13 1 0.771041 0.0830146 0.764086
3 1 0.989762 0.262318 0.76529
61 1 0.536513 0.374881 0.885905
63 1 0.680396 0.399501 0.710796
29 1 0.527894 0.0838586 0.567261
46 1 0.835572 0.444896 0.89092
31 1 0.824476 0.211665 0.952233
50 1 0.768754 0.136763 0.501141
15 1 0.0767205 0.700988 0.960117
27 1 0.475211 0.592114 0.839844
12 1 0.366884 0.877058 0.69518
5 1 0.0966143 0.936109 0.970896
45 1 0.165805 0.731023 0.676695
22 1 0.242716 0.525052 0.618851
8 1 0.050427 0.697274 0.498009
25 1 0.804245 0.590538 0.704784
62 1 0.00320445 0.810826 0.78537
14 1 0.570715 0.804844 0.821576
6 1 0.765161 0.771131 0.573855
2 1 0.514139 0.771113 0.576306
57 1 0.871527 0.941859 0.587852
ITEM: TIMESTEP
80
ITEM: NUMBER OF ATOMS
64
ITEM: BOX BOUNDS pp pp pp
4.6650676255307388e-02 1.0814749323744245e+01
4.6650676255307388e-02 1.0814749323744245e+01
4.6650676255307388e-02 1.0814749323744245e+01
ITEM: ATOMS id type xs ys zs
18 1 0.455997 0.0801347 0.384402
7 1 0.23721 0.355241 0.249142
55 1 0.22572 0.0812105 0.413198
20 1 0.424957 0.281671 0.130826
59 1 0.991162 0.123109 0.425946
1 1 0.393496 0.369969 0.448205
35 1 0.262034 0.152267 0.164648
41 1 0.968534 0.546297 0.18343
40 1 0.564941 0.478221 0.19258
36 1 0.701573 0.359471 0.494081
16 1 0.673655 0.209691 0.144115
26 1 0.974943 0.324916 0.254675
28 1 0.801059 0.0877689 0.289042
60 1 0.554757 0.28953 0.329371
54 1 0.603616 0.993242 0.139568
56 1 0.861808 0.438765 0.389793
11 1 0.940552 0.074515 0.0698742
38 1 0.323172 0.825734 0.937556
44 1 0.198381 0.958747 0.228042
49 1 0.0741765 0.771841 0.153288
30 1 0.193636 0.56536 0.178721
47 1 0.384919 0.550196 0.028026
32 1 0.304696 0.748747 0.330937
43 1 0.43022 0.84137 0.161673
42 1 0.641793 0.612882 0.444778
58 1 0.531149 0.770992 0.34218
39 1 0.672073 0.948028 0.374599
52 1 0.803423 0.891003 0.13776
10 1 0.853442 0.656221 0.371753
9 1 0.444981 0.580369 0.361473
34 1 0.90383 0.872075 0.317677
37 1 0.758549 0.541018 0.0618785
24 1 0.635298 0.741652 0.0288887
53 1 0.0387481 0.0623591 0.650616
64 1 0.0566604 0.477489 0.533523
48 1 0.437743 0.42925 0.652964
51 1 0.308534 0.382488 0.907079
21 1 0.0540918 0.461773 0.884352
23 1 0.134224 0.254377 0.569029
19 1 0.417256 0.0770262 0.774282
17 1 0.360168 0.239037 0.660775
4 1 0.287585 0.0469533 0.950445
33 1 0.610883 0.136232 0.934443
13 1 0.771282 0.0785763 0.755193
3 1 0.994248 0.271979 0.778676
61 1 0.534401 0.36732 0.893708
63 1 0.678325 0.399024 0.717165
29 1 0.536861 0.0755309 0.573462
46 1 0.831163 0.447328 0.886382
31 1 0.826794 0.219273 0.951495
50 1 0.774568 0.147749 0.507721
15 1 0.0688828 0.698013 0.964951
27 1 0.478329 0.607335 0.834752
12 1 0.364353 0.881302 0.703276
5 1 0.096233 0.933355 0.971574
45 1 0.169187 0.730523 0.675059
22 1 0.243004 0.530117 0.607908
8 1 0.0472751 0.688399 0.489046
25 1 0.792631 0.589246 0.700391
62 1 0.00172569 0.810171 0.779302
14 1 0.568179 0.801549 0.827847
6 1 0.77267 0.763018 0.577778
2 1 0.517271 0.779384 0.568206
57 1 0.869199 0.950487 0.57437
ITEM: TIMESTEP
90
ITEM: NUMBER OF ATOMS
64
ITEM: BOX BOUNDS pp pp pp
4.8045690448864420e-02 1.0813354309550689e+01
4.8045690448864420e-02 1.0813354309550689e+01
4.8045690448864420e-02 1.0813354309550689e+01
ITEM: ATOMS id type xs ys zs
18 1 0.446797 0.0948587 0.372752
7 1 0.227204 0.357141 0.247935
55 1 0.21562 0.0769831 0.436597
20 1 0.434767 0.278826 0.13458
59 1 0.983883 0.113378 0.425684
1 1 0.393963 0.366426 0.451583
35 1 0.268839 0.15794 0.146982
41 1 0.970153 0.548873 0.17247
40 1 0.561855 0.472748 0.202605
36 1 0.69827 0.357063 0.498727
16 1 0.682262 0.214951 0.138141
26 1 0.978817 0.320136 0.254153
28 1 0.806246 0.0902512 0.289784
60 1 0.55914 0.288368 0.329696
54 1 0.593591 0.986936 0.143926
56 1 0.860208 0.438598 0.386678
11 1 0.946619 0.0737648 0.0754071
38 1 0.326174 0.829246 0.924403
44 1 0.214957 0.959527 0.240082
49 1 0.0809879 0.786535 0.148888
30 1 0.204019 0.570763 0.170029
47 1 0.380566 0.5507 0.0257887
32 1 0.30056 0.742034 0.318463
43 1 0.424856 0.827537 0.155589
42 1 0.638902 0.606909 0.4449
58 1 0.521658 0.779488 0.342345
39 1 0.675022 0.943401 0.37966
52 1 0.798573 0.888332 0.125681
10 1 0.852261 0.651689 0.379443
9 1 0.435616 0.587526 0.359463
34 1 0.90365 0.873357 0.315759
37 1 0.761365 0.545531 0.0659443
24 1 0.6338 0.748562 0.0307988
53 1 0.0386499 0.0643683 0.65658
64 1 0.0546894 0.47194 0.533378
48 1 0.436302 0.435826 0.662954
51 1 0.304936 0.373547 0.908498
21 1 0.0557241 0.456629 0.888331
23 1 0.14138 0.258769 0.574164
19 1 0.420595 0.068977 0.78115
17 1 0.364577 0.235753 0.652729
4 1 0.292528 0.0424662 0.959861
33 1 0.603067 0.136215 0.939925
13 1 0.771272 0.0752296 0.746301
3 1 0.999081 0.279498 0.790363
61 1 0.532873 0.358644 0.90125
63 1 0.675098 0.39995 0.722884
29 1 0.548216 0.0677251 0.585215
46 1 0.827589 0.448867 0.878671
31 1 0.829 0.22695 0.949452
50 1 0.778875 0.158374 0.515979
15 1 0.0609903 0.690316 0.963557
27 1 0.480194 0.619472 0.82969
12 1 0.359603 0.881031 0.710535
5 1 0.0949391 0.931062 0.971941
45 1 0.17648 0.731703 0.672532
22 1 0.246848 0.536791 0.598913
8 1 0.044139 0.682099 0.479111
25 1 0.782124 0.586021 0.698593
62 1 0.99858 0.81195 0.774088
14 1 0.565469 0.800009 0.831717
6 1 0.778255 0.753024 0.580841
2 1 0.521487 0.78809 0.562615
57 1 0.867465 0.959245 0.561142
ITEM: TIMESTEP
100
ITEM: NUMBER OF ATOMS
64
ITEM: BOX BOUNDS pp pp pp
4.9766997827470405e-02 1.0811633002172076e+01
4.9766997827470405e-02 1.0811633002172076e+01
4.9766997827470405e-02 1.0811633002172076e+01
ITEM: ATOMS id type xs ys zs
18 1 0.437802 0.108581 0.363244
7 1 0.216723 0.358739 0.246857
55 1 0.205564 0.0727807 0.460314
20 1 0.447483 0.280363 0.136568
59 1 0.978785 0.105495 0.423967
1 1 0.391243 0.364302 0.454344
35 1 0.272742 0.161524 0.129026
41 1 0.970351 0.551283 0.161204
40 1 0.558981 0.46898 0.20925
36 1 0.692559 0.355366 0.504073
16 1 0.691656 0.219771 0.133482
26 1 0.985374 0.313468 0.252239
28 1 0.81281 0.0958738 0.287881
60 1 0.565087 0.285655 0.330356
54 1 0.583242 0.982235 0.147461
56 1 0.86059 0.437951 0.385054
11 1 0.951151 0.0720359 0.081667
38 1 0.329741 0.829612 0.915241
44 1 0.231371 0.959028 0.251935
49 1 0.0879153 0.803193 0.14958
30 1 0.21416 0.576681 0.163083
47 1 0.377099 0.552106 0.0236797
32 1 0.290095 0.73749 0.304957
43 1 0.419242 0.815021 0.143882
42 1 0.637731 0.599173 0.446022
58 1 0.516165 0.79259 0.342928
39 1 0.676011 0.938282 0.386312
52 1 0.793653 0.886624 0.109786
10 1 0.850313 0.650417 0.38519
9 1 0.425898 0.585584 0.358342
34 1 0.904833 0.872997 0.315944
37 1 0.761351 0.552095 0.0727179
24 1 0.634872 0.75421 0.0355093
53 1 0.0390539 0.067693 0.665252
64 1 0.050676 0.461812 0.531696
48 1 0.436328 0.446426 0.675465
51 1 0.299591 0.364862 0.909708
21 1 0.0616397 0.455 0.894606
23 1 0.148461 0.263121 0.58064
19 1 0.426195 0.0648371 0.789339
17 1 0.367574 0.231433 0.642668
4 1 0.295765 0.0386624 0.968625
33 1 0.594754 0.135195 0.944184
13 1 0.77034 0.0727829 0.7374
3 1 0.00408711 0.282174 0.798638
61 1 0.531 0.348889 0.908925
63 1 0.668933 0.400598 0.727465
29 1 0.559743 0.0601263 0.596663
46 1 0.825279 0.450836 0.870869
31 1 0.831417 0.23278 0.94739
50 1 0.782118 0.168172 0.525417
15 1 0.0525982 0.679024 0.958087
27 1 0.477944 0.623645 0.825293
12 1 0.352893 0.875591 0.713758
5 1 0.093333 0.929177 0.97118
45 1 0.185156 0.735036 0.668681
22 1 0.253014 0.544171 0.590741
8 1 0.0431496 0.678269 0.469725
25 1 0.773215 0.58028 0.700226
62 1 0.995267 0.815297 0.769757
14 1 0.56484 0.804774 0.832785
6 1 0.783497 0.746098 0.581821
2 1 0.52655 0.797967 0.560674
57 1 0.865227 0.964686 0.54812
ITEM: TIMESTEP
110
ITEM: NUMBER OF ATOMS
64
ITEM: BOX BOUNDS pp pp pp
5.2036430398420208e-02 1.0809363569601128e+01
5.2036430398420208e-02 1.0809363569601128e+01
5.2036430398420208e-02 1.0809363569601128e+01
ITEM: ATOMS id type xs ys zs
18 1 0.428119 0.119993 0.356061
7 1 0.206662 0.359657 0.245165
55 1 0.195892 0.0684535 0.482994
20 1 0.461186 0.284317 0.136641
59 1 0.97783 0.100608 0.421256
1 1 0.386504 0.363137 0.456422
35 1 0.274142 0.167121 0.116289
41 1 0.970613 0.553367 0.150144
40 1 0.55677 0.468224 0.212751
36 1 0.685464 0.357016 0.50887
16 1 0.701867 0.223651 0.130401
26 1 0.992527 0.30597 0.249822
28 1 0.817813 0.10297 0.283237
60 1 0.572489 0.282094 0.331988
54 1 0.573678 0.979351 0.150635
56 1 0.862514 0.435065 0.384725
11 1 0.953232 0.0699708 0.0878796
38 1 0.333392 0.826223 0.913161
44 1 0.248042 0.959317 0.263757
49 1 0.0943148 0.819218 0.1533
30 1 0.22143 0.581632 0.158776
47 1 0.376184 0.553572 0.0190672
32 1 0.274639 0.735793 0.291501
43 1 0.414583 0.803127 0.127697
42 1 0.636539 0.590302 0.447373
58 1 0.512148 0.806826 0.342601
39 1 0.677324 0.934625 0.393045
52 1 0.790687 0.887943 0.0942937
10 1 0.846453 0.65238 0.387951
9 1 0.417839 0.577728 0.358773
34 1 0.906175 0.870959 0.315663
37 1 0.75835 0.55931 0.0794096
24 1 0.636687 0.757621 0.0417479
53 1 0.039476 0.0718451 0.675739
64 1 0.0468171 0.450658 0.529234
48 1 0.436599 0.457657 0.688793
51 1 0.293474 0.357503 0.911182
21 1 0.0710854 0.457427 0.902846
23 1 0.154675 0.267183 0.588566
19 1 0.433011 0.0645943 0.797326
17 1 0.371234 0.226591 0.632406
4 1 0.297455 0.0325805 0.97266
33 1 0.586765 0.13219 0.948229
13 1 0.768284 0.0708936 0.729276
3 1 0.00893214 0.27891 0.802837
61 1 0.527945 0.338807 0.916704
63 1 0.658186 0.398854 0.73089
29 1 0.570643 0.0526647 0.607168
46 1 0.82512 0.453323 0.866919
31 1 0.83432 0.236025 0.945809
50 1 0.785447 0.176323 0.535086
15 1 0.0441496 0.667346 0.952688
27 1 0.471482 0.620736 0.822066
12 1 0.346193 0.868319 0.710196
5 1 0.0919468 0.927894 0.968189
45 1 0.191799 0.739778 0.663422
22 1 0.259244 0.550722 0.582163
8 1 0.0460504 0.675745 0.461916
25 1 0.766369 0.574435 0.703875
62 1 0.99314 0.819368 0.766192
14 1 0.566735 0.815379 0.83177
6 1 0.788939 0.743576 0.581066
2 1 0.532499 0.809134 0.562471
57 1 0.862124 0.964915 0.536818
ITEM: TIMESTEP
120
ITEM: NUMBER OF ATOMS
64
ITEM: BOX BOUNDS pp pp pp
5.4918085734371402e-02 1.0806481914265175e+01
5.4918085734371402e-02 1.0806481914265175e+01
5.4918085734371402e-02 1.0806481914265175e+01
ITEM: ATOMS id type xs ys zs
18 1 0.416874 0.129242 0.349594
7 1 0.198905 0.360421 0.24225
55 1 0.18697 0.0638018 0.504023
20 1 0.473459 0.28791 0.134715
59 1 0.981215 0.0994294 0.417972
1 1 0.380624 0.362702 0.457156
35 1 0.27409 0.17869 0.110931
41 1 0.971789 0.554894 0.139411
40 1 0.556076 0.471432 0.213871
36 1 0.678035 0.362614 0.512558
16 1 0.712256 0.226805 0.128419
26 1 0.997399 0.297729 0.247718
28 1 0.820164 0.110422 0.276559
60 1 0.581138 0.278065 0.334351
54 1 0.565281 0.97773 0.15353
56 1 0.865666 0.430121 0.385256
11 1 0.953102 0.0676915 0.0933164
38 1 0.337035 0.819456 0.916771
44 1 0.265023 0.961369 0.275716
49 1 0.0996659 0.834093 0.159928
30 1 0.223956 0.582424 0.155908
47 1 0.378249 0.554575 0.0111028
32 1 0.257969 0.737276 0.280935
43 1 0.411678 0.790926 0.110355
42 1 0.634372 0.580992 0.448501
58 1 0.507005 0.819689 0.340422
39 1 0.680512 0.933537 0.399003
52 1 0.791691 0.894189 0.0818303
10 1 0.841005 0.655959 0.387496
9 1 0.410889 0.568316 0.360638
34 1 0.907279 0.867385 0.313523
37 1 0.752115 0.56613 0.0849665
24 1 0.636565 0.757604 0.0477316
53 1 0.0395549 0.076141 0.687702
64 1 0.0437635 0.441449 0.526141
48 1 0.435527 0.466032 0.699743
51 1 0.287502 0.351622 0.913518
21 1 0.0826143 0.459842 0.911069
23 1 0.159633 0.270941 0.597953
19 1 0.439324 0.0659613 0.803066
17 1 0.376687 0.220847 0.623517
4 1 0.297948 0.0226978 0.970617
33 1 0.580609 0.126153 0.953752
13 1 0.76588 0.0689661 0.723396
3 1 0.0139912 0.27205 0.80435
61 1 0.523373 0.329869 0.923792
63 1 0.643302 0.39405 0.734199
29 1 0.580208 0.0451664 0.617313
46 1 0.827202 0.455015 0.868737
31 1 0.837884 0.2371 0.94446
50 1 0.790244 0.182921 0.543692
15 1 0.035711 0.658768 0.948692
27 1 0.463699 0.618373 0.821897
12 1 0.343329 0.863659 0.701582
5 1 0.0906909 0.927112 0.962499
45 1 0.192185 0.743168 0.655735
22 1 0.264891 0.555465 0.5726
8 1 0.0530212 0.673441 0.455595
25 1 0.761336 0.571644 0.706725
62 1 0.992975 0.823718 0.763348
14 1 0.569521 0.827387 0.829452
6 1 0.794483 0.744291 0.580601
2 1 0.539075 0.821424 0.567083
57 1 0.858017 0.960025 0.528613
ITEM: TIMESTEP
130
ITEM: NUMBER OF ATOMS
64
ITEM: BOX BOUNDS pp pp pp
5.8319182995119512e-02 1.0803080817004425e+01
5.8319182995119512e-02 1.0803080817004425e+01
5.8319182995119512e-02 1.0803080817004425e+01
ITEM: ATOMS id type xs ys zs
18 1 0.404729 0.137671 0.343304
7 1 0.19552 0.362032 0.23821
55 1 0.179441 0.0588962 0.522786
20 1 0.483244 0.289599 0.132618
59 1 0.986931 0.101332 0.414571