10.57699930335791 0.0 0.0 0.0 10.57699930335791 0.0 0.0 0.0 10.57699930335791
10.655250853865981 0.0 0.0 0.0 10.655250853865981 0.0 0.0 0.0 10.655250853865981
10.667163691180436 0.0 0.0 0.0 10.667163691180436 0.0 0.0 0.0 10.667163691180436
10.59072033919331 0.0 0.0 0.0 10.59072033919331 0.0 0.0 0.0 10.59072033919331
10.566611025580722 0.0 0.0 0.0 10.566611025580722 0.0 0.0 0.0 10.566611025580722
10.597246152526724 0.0 0.0 0.0 10.597246152526724 0.0 0.0 0.0 10.597246152526724
10.614568768442178 0.0 0.0 0.0 10.614568768442178 0.0 0.0 0.0 10.614568768442178
10.618262954533693 0.0 0.0 0.0 10.618262954533693 0.0 0.0 0.0 10.618262954533693
10.564559405543935 0.0 0.0 0.0 10.564559405543935 0.0 0.0 0.0 10.564559405543935
10.559384052446237 0.0 0.0 0.0 10.559384052446237 0.0 0.0 0.0 10.559384052446237
10.61387713383086 0.0 0.0 0.0 10.61387713383086 0.0 0.0 0.0 10.61387713383086
10.601400193612301 0.0 0.0 0.0 10.601400193612301 0.0 0.0 0.0 10.601400193612301
10.657662843581656 0.0 0.0 0.0 10.657662843581656 0.0 0.0 0.0 10.657662843581656
10.631314581200526 0.0 0.0 0.0 10.631314581200526 0.0 0.0 0.0 10.631314581200526
10.539867997002158 0.0 0.0 0.0 10.539867997002158 0.0 0.0 0.0 10.539867997002158
10.670644618856986 0.0 0.0 0.0 10.670644618856986 0.0 0.0 0.0 10.670644618856986
10.649319835714754 0.0 0.0 0.0 10.649319835714754 0.0 0.0 0.0 10.649319835714754
10.573822652576164 0.0 0.0 0.0 10.573822652576164 0.0 0.0 0.0 10.573822652576164
10.622487905365189 0.0 0.0 0.0 10.622487905365189 0.0 0.0 0.0 10.622487905365189
10.607843455301213 0.0 0.0 0.0 10.607843455301213 0.0 0.0 0.0 10.607843455301213
10.55127758679147 0.0 0.0 0.0 10.55127758679147 0.0 0.0 0.0 10.55127758679147
10.604793807049472 0.0 0.0 0.0 10.604793807049472 0.0 0.0 0.0 10.604793807049472
10.577789364929982 0.0 0.0 0.0 10.577789364929982 0.0 0.0 0.0 10.577789364929982
10.639626367612134 0.0 0.0 0.0 10.639626367612134 0.0 0.0 0.0 10.639626367612134
10.572624595376451 0.0 0.0 0.0 10.572624595376451 0.0 0.0 0.0 10.572624595376451
10.594630429585832 0.0 0.0 0.0 10.594630429585832 0.0 0.0 0.0 10.594630429585832
10.565749525085522 0.0 0.0 0.0 10.565749525085522 0.0 0.0 0.0 10.565749525085522
10.647247048589634 0.0 0.0 0.0 10.647247048589634 0.0 0.0 0.0 10.647247048589634
10.608952081552712 0.0 0.0 0.0 10.608952081552712 0.0 0.0 0.0 10.608952081552712
10.496949079518645 0.0 0.0 0.0 10.496949079518645 0.0 0.0 0.0 10.496949079518645
10.597197468223557 0.0 0.0 0.0 10.597197468223557 0.0 0.0 0.0 10.597197468223557
10.647574080104397 0.0 0.0 0.0 10.647574080104397 0.0 0.0 0.0 10.647574080104397
10.65219432631053 0.0 0.0 0.0 10.65219432631053 0.0 0.0 0.0 10.65219432631053
10.57610181881254 0.0 0.0 0.0 10.57610181881254 0.0 0.0 0.0 10.57610181881254
10.719642724110065 0.0 0.0 0.0 10.719642724110065 0.0 0.0 0.0 10.719642724110065
10.654275580270985 0.0 0.0 0.0 10.654275580270985 0.0 0.0 0.0 10.654275580270985
10.640847179431807 0.0 0.0 0.0 10.640847179431807 0.0 0.0 0.0 10.640847179431807
10.68428733646555 0.0 0.0 0.0 10.68428733646555 0.0 0.0 0.0 10.68428733646555
10.674504966591924 0.0 0.0 0.0 10.674504966591924 0.0 0.0 0.0 10.674504966591924
10.715625739921453 0.0 0.0 0.0 10.715625739921453 0.0 0.0 0.0 10.715625739921453
10.685965886570447 0.0 0.0 0.0 10.685965886570447 0.0 0.0 0.0 10.685965886570447
10.601222390070292 0.0 0.0 0.0 10.601222390070292 0.0 0.0 0.0 10.601222390070292
10.589430205159344 0.0 0.0 0.0 10.589430205159344 0.0 0.0 0.0 10.589430205159344
10.61245258878597 0.0 0.0 0.0 10.61245258878597 0.0 0.0 0.0 10.61245258878597
10.551051628123501 0.0 0.0 0.0 10.551051628123501 0.0 0.0 0.0 10.551051628123501
10.609357960471522 0.0 0.0 0.0 10.609357960471522 0.0 0.0 0.0 10.609357960471522
10.610217344257887 0.0 0.0 0.0 10.610217344257887 0.0 0.0 0.0 10.610217344257887
10.566573453998927 0.0 0.0 0.0 10.566573453998927 0.0 0.0 0.0 10.566573453998927
10.523395239683321 0.0 0.0 0.0 10.523395239683321 0.0 0.0 0.0 10.523395239683321
10.665917478854764 0.0 0.0 0.0 10.665917478854764 0.0 0.0 0.0 10.665917478854764
10.636065534177122 0.0 0.0 0.0 10.636065534177122 0.0 0.0 0.0 10.636065534177122
10.561743124441076 0.0 0.0 0.0 10.561743124441076 0.0 0.0 0.0 10.561743124441076
10.627358981568083 0.0 0.0 0.0 10.627358981568083 0.0 0.0 0.0 10.627358981568083
10.628023628141774 0.0 0.0 0.0 10.628023628141774 0.0 0.0 0.0 10.628023628141774
10.655269375068274 0.0 0.0 0.0 10.655269375068274 0.0 0.0 0.0 10.655269375068274
10.539262618275801 0.0 0.0 0.0 10.539262618275801 0.0 0.0 0.0 10.539262618275801
10.572846849803959 0.0 0.0 0.0 10.572846849803959 0.0 0.0 0.0 10.572846849803959
10.639101423821447 0.0 0.0 0.0 10.639101423821447 0.0 0.0 0.0 10.639101423821447
10.588569233841351 0.0 0.0 0.0 10.588569233841351 0.0 0.0 0.0 10.588569233841351
10.567618049808218 0.0 0.0 0.0 10.567618049808218 0.0 0.0 0.0 10.567618049808218
10.54150685881643 0.0 0.0 0.0 10.54150685881643 0.0 0.0 0.0 10.54150685881643
10.630259931024277 0.0 0.0 0.0 10.630259931024277 0.0 0.0 0.0 10.630259931024277
10.509673145493505 0.0 0.0 0.0 10.509673145493505 0.0 0.0 0.0 10.509673145493505
10.587307675376636 0.0 0.0 0.0 10.587307675376636 0.0 0.0 0.0 10.587307675376636
10.60097949773166 0.0 0.0 0.0 10.60097949773166 0.0 0.0 0.0 10.60097949773166
10.586848878736994 0.0 0.0 0.0 10.586848878736994 0.0 0.0 0.0 10.586848878736994
10.577068096394996 0.0 0.0 0.0 10.577068096394996 0.0 0.0 0.0 10.577068096394996
10.536114013886099 0.0 0.0 0.0 10.536114013886099 0.0 0.0 0.0 10.536114013886099
10.626701743475307 0.0 0.0 0.0 10.626701743475307 0.0 0.0 0.0 10.626701743475307
10.684244473111672 0.0 0.0 0.0 10.684244473111672 0.0 0.0 0.0 10.684244473111672
10.625805846461565 0.0 0.0 0.0 10.625805846461565 0.0 0.0 0.0 10.625805846461565
10.527627598995732 0.0 0.0 0.0 10.527627598995732 0.0 0.0 0.0 10.527627598995732
10.651237573917829 0.0 0.0 0.0 10.651237573917829 0.0 0.0 0.0 10.651237573917829
10.598968624339914 0.0 0.0 0.0 10.598968624339914 0.0 0.0 0.0 10.598968624339914
10.625807963170399 0.0 0.0 0.0 10.625807963170399 0.0 0.0 0.0 10.625807963170399
10.596051799567471 0.0 0.0 0.0 10.596051799567471 0.0 0.0 0.0 10.596051799567471
10.713864108994846 0.0 0.0 0.0 10.713864108994846 0.0 0.0 0.0 10.713864108994846
10.667608200035453 0.0 0.0 0.0 10.667608200035453 0.0 0.0 0.0 10.667608200035453
10.699142928235657 0.0 0.0 0.0 10.699142928235657 0.0 0.0 0.0 10.699142928235657
10.56308247195542 0.0 0.0 0.0 10.56308247195542 0.0 0.0 0.0 10.56308247195542
10.561423501407232 0.0 0.0 0.0 10.561423501407232 0.0 0.0 0.0 10.561423501407232
10.58012991572253 0.0 0.0 0.0 10.58012991572253 0.0 0.0 0.0 10.58012991572253
10.61278120783236 0.0 0.0 0.0 10.61278120783236 0.0 0.0 0.0 10.61278120783236
10.549261950804851 0.0 0.0 0.0 10.549261950804851 0.0 0.0 0.0 10.549261950804851
10.63519874190984 0.0 0.0 0.0 10.63519874190984 0.0 0.0 0.0 10.63519874190984
10.679713128676541 0.0 0.0 0.0 10.679713128676541 0.0 0.0 0.0 10.679713128676541
10.582877403788302 0.0 0.0 0.0 10.582877403788302 0.0 0.0 0.0 10.582877403788302
10.663492788886089 0.0 0.0 0.0 10.663492788886089 0.0 0.0 0.0 10.663492788886089
10.582056120760937 0.0 0.0 0.0 10.582056120760937 0.0 0.0 0.0 10.582056120760937
10.652876964909307 0.0 0.0 0.0 10.652876964909307 0.0 0.0 0.0 10.652876964909307
10.57245790455582 0.0 0.0 0.0 10.57245790455582 0.0 0.0 0.0 10.57245790455582
10.593960491240058 0.0 0.0 0.0 10.593960491240058 0.0 0.0 0.0 10.593960491240058
10.599562890344895 0.0 0.0 0.0 10.599562890344895 0.0 0.0 0.0 10.599562890344895
10.572896592461545 0.0 0.0 0.0 10.572896592461545 0.0 0.0 0.0 10.572896592461545
10.488162621151142 0.0 0.0 0.0 10.488162621151142 0.0 0.0 0.0 10.488162621151142
10.64016454083303 0.0 0.0 0.0 10.64016454083303 0.0 0.0 0.0 10.64016454083303
10.664811498489305 0.0 0.0 0.0 10.664811498489305 0.0 0.0 0.0 10.664811498489305
10.639569216473634 0.0 0.0 0.0 10.639569216473634 0.0 0.0 0.0 10.639569216473634
10.622783715424658 0.0 0.0 0.0 10.622783715424658 0.0 0.0 0.0 10.622783715424658
10.61739616226641 0.0 0.0 0.0 10.61739616226641 0.0 0.0 0.0 10.61739616226641
10.654897892668009 0.0 0.0 0.0 10.654897892668009 0.0 0.0 0.0 10.654897892668009
