-6822.922103766794
-6824.116476439861
-6822.200553922864
-6825.058100119543
-6823.0540154399605
-6822.417572328379
-6820.781751279658
-6824.626118720393
-6821.759818485467
-6820.93127293595
-6822.425780642323
-6821.521271929663
-6824.267667922723
-6824.679865421292
-6822.408933530343
-6823.42945280795
-6821.867869176407
-6824.216603720047
-6823.61159506305
-6824.693256143291
-6823.643581364499
-6824.398146372302
-6822.794382918856
-6825.339767466903
-6822.964092972952
-6823.30620238221
-6823.905505356238
-6824.43743226353
-6820.7349909655095
-6824.070097221143
-6822.298763480771
-6826.278284695003
-6823.704901945926
-6825.185632256534
-6824.277613003242
-6824.208113632223
-6822.829779078817
-6824.883199221861
-6825.008681525304
-6825.455367412068
-6823.874989421916
-6825.54148586367
-6824.024627815046
-6823.544310426564
-6821.710560438393
-6824.6013339116835
-6822.433338876304
-6824.066005581409
-6822.041755905811
-6825.585728308469
-6823.19800025992
-6823.823487660186
-6823.063340917268
-6827.4379718333985
-6823.049721619643
-6823.1583704168
-6821.093744081653
-6822.807641801701
-6823.820886660059
-6823.754399861348
-6824.0531416717995
-6822.206375118157
-6823.634297520609
-6822.183854160529
-6822.3722919053425
-6824.234652622794
-6821.276715331562
-6824.3317050166015
-6822.594620476362
-6825.003846198449
-6821.472672670193
-6823.058414704389
-6823.086116301335
-6822.070527590428
-6822.191519879478
-6824.22721588764
-6827.862495000402
-6824.117063389411
-6824.999171146644
-6823.538104462303
-6825.233456263677
-6822.726987668095
-6821.217062399795
-6823.579032560547
-6821.04226368086
-6825.388641833464
-6821.33434768202
-6823.887894284658
-6822.643694982651
-6823.1775793408415
-6824.521074071028
-6823.252254861299
-6823.151054908361
-6821.5292025514345
-6821.490041968628
-6821.69992527718
-6823.415188328414
-6824.819338729863
-6824.468373783896
-6824.111593901253
-6822.627513189008
