-0.4765555136062373 -0.5379218325288606 0.1313535467450383 -0.3169486284424606 1.2054216079595754 1.7757881912807028 0.4264920212909429 0.1406732814840674 0.11403099630619071 -0.7564100654098779 0.21738702939703852 -0.025896922371419915 -1.6641704324016953 0.2773423269047482 0.09044215324265714 -0.5201336553075042 -0.5260585054323714 -0.12860272347277854 0.9893039321932638 0.5786586481265905 -0.23549479474134283 0.8665993193724754 0.6538140504135062 -0.11400014306825529 0.19086275785426485 0.1284829100654626 0.17176768889602675 0.11927270432110428 -0.48247959240015614 -0.0406833366519751 -0.2166090135804334 -0.360417755369689 0.21456318679499822 0.06673323966149151 0.31110965316318034 -0.020233296327739347 0.15534708144615827 0.6113345410930568 0.1520990068225058 0.2976897802128486 0.4515168254700547 0.3520922662231291 -0.08533028593738853 -0.054754984253692796 0.14989917095770958 0.6913580701055513 -1.6877091389535837 0.8183096311281519 0.6065600025225489 -0.30964515280251187 0.02764270141793304 0.08298672540587644 0.11679776041805047 -0.5198806587564336 0.015816655317282435 -0.6397583436513885 -0.5307181156915698 0.6401956882991232 0.762416419504958 -0.07990422982581077 -0.758403698801139 0.24506546914891342 -1.5128296439014526 -0.3466687812147127 0.3045070602449982 -0.27754004473785104 0.14163410273543994 -0.21960794830775723 0.21619660863336315 0.6186243898862508 -0.12883900785330069 0.43260327639500334 2.0057376307237846 0.6392191833184668 -0.39713850782949023 -0.6488775323438374 -2.0196686389825795 -0.4867399103384069 -0.4881110796543207 0.0538718103177911 0.25645314216056475 0.08464740093775099 -0.3504207920579771 -0.07780158166051117 0.1517789044789257 -0.8973054902070805 -1.7974733895636203 -0.31940120374801123 -0.8112087584173127 0.05039516462310031 -0.5851763946404502 -0.5193723516614475 -0.39434628979633374 -0.1015284929638058 0.017788948552304847 0.13076887788616187 0.43725414490345343 0.09896587444295214 0.7790296025816067 0.026164831320825904 -0.8567411956314729 -0.28484891969443843 0.2750347618174941 0.21485474989348802 -0.5512781992311088 0.2872583004668795 -0.0794530012210051 0.17996205178136104 0.040549125066955974 -0.5731634293399742 -0.07858448257312273 -0.5496458058340081 -0.15039796497099905 0.03146798870129419 -1.2902145333362554 0.5616320316616069 0.8065190662511272 -0.22672219075503536 0.6903607391892884 0.12988261862646663 -0.07619644195692038 0.6790962220190627 0.5501600264662655 0.7770619373322747 -0.9538021397422282 -0.640255080782149 0.5887453429386312 -0.6921671962704079 0.3242397627872351 0.47524810764872355 -0.5443292787171012 -0.06668104626731741 -0.030583272103495717 -0.4626558728060096 0.3227552078219087 0.3734193098356795 0.2002344288771519 -0.22098528827125816 -0.7832639523779285 -0.3538622136393583 -0.6848182121045044 -0.1425383597172642 -0.2213583553399607 0.1344578967019749 -0.38350446198582344 1.2584565241983683 0.25678198625489324 0.011660981277696048 0.8611380391475879 0.013671069729189357 0.153295084013136 -0.5175011027806636 0.5354402037575875 -0.2641844493665515 0.3038036064200703 0.035008911975017126 0.9024250708218329 1.6114191088415926 1.4410151330623115 0.5255733382658369 -0.8518671553686232 -0.40884396919187654 -1.3038874028376575 0.14513131725542103 -1.3269507124150244 0.9048341944839579 0.31295159146792556 0.15219953695611205 -0.7635271360706334 0.1686365994662128 1.5306365901758865 -0.7106755394872405 0.729167427643841 -0.3183305963916518 0.3669149330582584 0.5368463400764948 -0.12159929557175186 -0.6312821878595773 0.8889524902566949 -1.4962511707174813 0.07782497869927887 -0.39015564875375386 0.596840718352256 -0.45656132987249765 0.039791163855008894 0.23079558949346057 0.15955289199738973 0.4616197182320114 0.3192358818147405 0.3626541008993754 -0.28584316528690773 -0.6157948908572557
-0.4860076601580727 -0.03445432502312776 0.8314356269871487 -0.20244146383079975 -0.10457165066550378 0.045935071969217665 0.18800034870480525 -0.32668359634203736 -0.7778060145871507 0.20444820984818338 0.3563744385382508 0.2278953851275301 -0.396236307730195 0.9990599831387633 -0.7188984416176653 -0.3274901514037328 -0.5122575949935372 0.034032921214993 -0.6270290690101783 -0.1119139499631879 0.5999481536329861 -0.4745582806705504 0.076401615989191 -0.4087159282544445 0.3228256560485279 -0.19358889853617628 0.20522288323067883 -1.1688592354545095 0.6788303699521857 -0.06719243868609717 -0.3410686614191158 -0.564843339510053 0.032476889581782784 0.59210191811569 0.34840350451763225 0.20022465868513906 1.048844510761058 0.4890564742867255 0.2709348807165076 -0.27404951508608927 -0.6481699647538515 -0.41096487218962124 -0.3295349497479034 0.24365676172684494 0.14211798435039397 -0.7556639312724728 -0.056815723437463446 -0.7596923357055755 -0.06614651392008608 0.08038322634475834 -0.9293344936181672 -0.4325631671856873 -0.26484907953374387 0.5932648280755396 0.13271057499356498 -0.5511702128983347 1.038060789881993 -0.3835692537854878 1.4792458944087363 -1.0318713732418294 -0.262236067390929 0.02558736155080109 0.19726249073302157 1.4912115514110447 0.08695085225994703 0.5150791236027323 0.14704113268362418 0.0566318895614315 0.5481496809044559 -0.10013161261627916 -0.565807246085219 0.7309355752878572 -0.46799631118231655 0.4403525813231191 -0.45360404701638657 -0.051647291862646535 0.31447856963541326 -0.6806746222497762 0.25922916224380516 -0.43185765647823043 -0.5197986405655887 0.6023873592020981 -0.18491939578663635 -0.571633365848693 0.011201010922141999 -0.4977995105866782 0.4790037180364138 -0.32714176692537855 0.11067776356324165 -0.06236030740477648 0.883130227147963 0.4572164469579932 -0.296732815616218 0.4966432854950479 -0.15358330467751616 -0.27839699342150764 0.0970156926951168 0.9353231071014343 0.3759289636314106 0.03511509853557823 -0.21459763957735944 -0.07583700173497263 -1.530477696000519 -0.14008398463950067 -0.7780255867971246 0.413287606785527 -0.5245338412577288 0.4767470607917531 -0.16904694753075403 -0.6118968413544301 -0.040236993143175866 0.12154350263315199 0.800998393543214 -0.04556920398936668 0.5695039782105159 0.3677867941402505 -0.31682058750502856 0.26825836232560896 -0.23989446647093526 -0.05399907992427474 0.055079971693279335 0.1730488696012955 -0.1536362694026386 1.0963502696515053 -0.3067817152117878 -0.32222684612226443 0.08539816306084648 -0.5585775611059993 -0.825851705141468 -0.09638782930313078 -0.38443211600641536 0.14810556939239652 -0.8200620950428844 0.47138425381794297 0.05233017686228407 0.40944509311098515 -0.8129175135783032 0.22129330642998019 0.3709235399970192 0.5048787860309628 0.4586529222942036 -0.8028614148938819 0.03182202960660326 -0.308657592078262 0.667841732151166 -0.5342459263391702 0.14304075327497945 0.5313086980877172 -0.743110005866862 0.38032837825068694 -0.2120432485866219 1.1669597044389515 0.05149713943802744 -0.28511065799625734 -0.06939613120563533 -0.5282241456251225 -0.42597317267299545 -0.38176279670436836 0.637183898055993 0.6241736018392541 -0.7831605940308448 0.534881245930324 0.8547161947816442 0.10247748714063641 0.5078352975561253 -0.19734785135797625 -0.25529254619356034 0.2603776740259516 -0.37297013811340285 0.08717248135244987 0.021926881980078368 -1.258282203404033 -0.3128379487081967 -0.8798045052088396 0.6418170259526301 1.0681465535237797 0.9241436934458471 -0.030012230091374124 0.02844771381773165 0.22829313478658103 0.28166486553950204 0.19973306376070118 0.09736819093852908 -0.481495374110016 -0.4895868928688987 -0.5885522530912186 0.22801339876263313 -0.1935037950215377 0.19062467370152975 0.42521058347535806 0.5784107937818426 0.4825793512028141
0.2509072726416711 1.0687762166879786 -0.4630014290708865 -0.31588727705748176 0.9611169282360867 -0.5469302066750581 0.8693897376334188 0.9570317024231196 -0.4177947506272611 -0.6728782661338089 0.2755410120299513 -0.23073593990011876 0.1516817167794291 -0.17286400728399906 0.32824117063714436 0.6114988345850629 -0.5522475051229133 0.1914425416171348 -0.04256101329066219 0.4162587735987089 1.0161598760438435 0.3125553844707714 0.058168637920932076 -0.11169643463574311 -0.03437230683228274 -0.6049988286830161 0.2481929590343016 -2.8222294919169073 -0.6006246108747203 0.16089037986189067 4.394647536904954 0.8127894726408711 0.7031370650183503 0.9338151550973401 0.40385705750024636 0.3790446264422569 -0.403960158737014 0.2547713835827677 -0.09357452822405175 -0.11876285456422127 0.11552480724289782 -0.6459624155795713 0.3750884700079863 -0.5205478600267874 -0.10646989612948114 0.11952338687932965 -0.005247878662500639 0.6785298079926314 -0.46233525624179733 -0.23718298107704316 -0.7968656023217631 0.7301627016775747 -0.09813643656312131 -0.5869815661699891 0.826507593557912 0.06511987242778461 0.118456379067396 -0.5652130641446459 -0.2766735829724977 0.1428792879964507 0.07097658831887776 0.3857464639424647 1.0059145441667516 0.4787345235354271 0.3158659369012431 -0.20688175899034048 -0.214056936582541 -0.7549933875680095 -1.2608538207859512 0.04964800204443063 0.015145083171554562 -0.22574234334026927 0.5489482655463513 0.02918510620438845 -0.3160235455250299 -1.3059383718294153 0.34756841021084656 0.11803806058305477 -0.10483210341574202 -0.02777357056884249 0.0038743953537417153 -0.006566597473924174 -0.8199345683260848 -0.655811026238877 -0.7002486877269617 0.10401809215487894 0.07259792597238464 -0.8777941596470301 -0.297826562901029 -0.6622508683269497 -0.051351872109414796 -0.072148754250108 0.6103300110879424 -0.3059448211327892 -0.04847377923067136 0.5314696491456137 1.1577860083594835 0.6132353576601954 -1.2295328991854826 0.12200115899586086 -0.26341311841816567 -0.440062560886526 -0.06452980425226951 -0.8115111201490799 -0.21425593996722456 0.16067543563760717 -0.08636515495980611 -0.0894947017277233 0.7716991303584646 -0.06957585131660922 0.3058558609634087 -1.0806228316139197 -0.8422676846056463 0.5297742637210617 -0.34530506809796657 1.0904102500179866 0.538848458108188 -0.5799043476082335 -0.38048804375700274 1.306533325100937 -0.03917307065503576 -0.36282816458339445 -0.17126298134546633 -1.055767977353769 -0.1667478670839322 0.167325336853957 0.2302338034527196 0.5155735467406476 -0.08742522079320428 0.3663780867181819 -0.7245037036195845 0.015797114933256664 0.2711711650970297 0.247076071821039 0.09317549301342018 0.1393944147716438 0.008220073916947132 -0.2575520316516984 0.782899112839342 -0.524555952744916 0.3351332697712873 0.06578193149181574 -0.19026909013432394 0.19956285673142407 -1.0757999563039795 0.6866876612130755 1.031460510956656 -0.34237221072188784 -0.3484659823244515 -0.003673077976213029 0.017632111259466406 0.08004332650683635 0.9568476114367714 -1.6736629452731628 -1.2101876618896512 -0.21188718262473186 0.6035613249055412 0.15922147679989998 0.7186698705466268 0.5259332927084168 -0.06417396357474754 0.2735725754496708 -0.09353287635283891 0.2010579532197118 -0.9620240134313883 -0.309047628427829 0.17926862525876222 1.0762812668157722 -0.35103400016194386 -0.4698881288883907 0.11843195358736378 -0.33291929283910404 0.42201907312125386 -1.4112744114647695 0.1609783115900066 -0.31759140423278204 -0.0024934558458150607 0.4277269221393085 0.26690930449688227 0.316493543182913 0.1988930843579091 0.37670312279327384 -0.10359051769915709 -1.0320500649115387 0.6647414959592874 -0.5958004500131997 0.2718869602171317 0.14730904163303016 -0.43113723337243814 0.3819371174987035 -0.32245361742108986 -0.7539191806672242
0.5231243625047121 0.20991591783097396 -0.17944397449436195 1.7728111109302502 0.7567695056318257 -0.9576829628538731 0.7529236495231743 0.5514412071715341 -1.55706855911517 -0.28860350164086424 0.36121094069494564 -1.5626933615011152 -1.009550598257442 -1.7429888853624949 0.8551761651371982 0.2837891109713564 -0.33182837376777047 -0.10403454721511114 -0.6639778783203855 1.1824045782391122 0.595089282878788 -0.4370597695044602 0.05728443554376585 -0.14075607100586082 0.04958886667172105 -0.3826500844053281 -0.6505325514487571 0.9133291193288464 0.14426048461469348 -0.4984818813656835 -0.24988165959063416 1.2162968601111825 1.9398955354179945 -0.34096813128550957 -0.4911604080036058 -0.23794839848815794 0.3323819322783953 0.10826298347416194 0.1348327635428904 -0.035226427302461914 -0.029006671644995204 1.1335021961114544 0.5606688964173893 -0.24776872701268943 2.0091047474238044 0.15617214845061492 0.20947188831501992 -0.36602173182002773 -0.7487993429421556 1.966045711450801 -0.6103405526109038 -0.7847641910725387 -0.04311020092591285 -1.3494491506278565 -0.09456106050703714 0.3249938673444403 -0.24919440371562243 -0.812165465903627 0.07094522086031008 0.6338496914764373 -0.7133582285257263 0.49356053280466616 0.5226397095588096 -0.23680065803695993 -0.02778796874654569 0.3022432039114859 -0.40574321877936576 -0.4493074765235617 -0.2763943611691821 -1.0345471203017795 -0.9560749949368049 -1.5971368878909655 0.37797350486526515 -0.29950806436850996 -0.7782014502533566 0.7854018246565377 -0.06368365420189033 0.25944976289504346 0.8784575042626419 0.24337779703384538 0.5152403317709449 -1.4041316297724011 1.3019385066414029 -1.9260185203255862 -0.2483089157868756 -0.1453999975357754 -0.4511262748998553 -0.06140874212478457 -0.37901788696937955 0.7314711360763532 -0.4103673478149384 0.6145059968425031 0.16923952315753432 0.0720201990920437 1.951101945656775 1.2583981601566068 1.2836690189082536 -1.664159633768418 0.013479265433357432 -0.29068249565708004 -1.174574283561416 0.8096563263285281 0.25743710334038883 0.7619572204803523 1.1148429291390543 -0.1822210230188668 -0.21768733424627673 -0.14798138510970643 0.4450399594964593 0.40931190996723055 0.42970358624970517 0.16614442917197836 0.027376078020107695 0.12676027094740105 -0.062369306265840974 -0.47287137988643085 -0.807832642856228 0.22625399286936518 0.1941213740008786 0.09904172198621009 -0.16326042275596397 0.2368063144639147 0.4376560083275624 0.6454196557022239 -0.7092622040794818 -0.21213709385200885 0.0968089760009494 -0.24431830657024375 -0.5547597300218059 0.09748877567679338 -0.4828089507151169 -0.3969423326582841 -0.5361644835181217 0.6777553917204521 -0.9329695192675932 0.34731052856376954 -0.2913746366280982 0.7954214136760688 0.3272492390375203 -1.970005724539814 -0.14426562682101607 0.2644546723088026 1.0625662312225248 0.7896539150646723 -0.6370378593964319 0.19485208151931602 -0.9731476341483756 -0.7696345345199519 -0.7807666398773715 -0.1355372458090827 0.682742046301766 -0.4568914595184067 -0.29774223071733885 0.5487762587448612 0.022720324415651194 -0.07039269079094973 -0.2991550519044654 0.03494129196187531 0.5349226406912206 -0.7456854799035222 0.5760024414506661 0.6018561692889763 0.7119106974459224 -0.2755978334098157 1.1634753454347768 -0.6611044134273323 -0.0283654385165705 0.5571521415133824 -0.918832822755895 0.6340754343339983 0.4222772118786469 0.35297672571061145 -0.7574932711717277 0.7660702142074614 -0.21552837892174495 -0.9876039187830217 -1.6886987565603626 0.42170411298399624 -0.7102610776576413 -0.6076982298920501 0.8027673125181788 0.2725942706968015 -0.49492887390710244 -0.20588442807407767 -0.9154543932019653 0.08136204531825987 0.40813640160189063 0.7847279385179646 0.2983420690848668 0.12285219414224648 0.07519345461370276 0.8557538920175392
-0.2010471545864344 -0.26164754187731065 0.029231900281923847 0.10609554350919793 -0.4061682221319263 0.7377346004875618 1.0283857286860743 -0.024026701931900554 0.13208116893968222 0.36364037607204475 0.10658610999237127 0.5129708190104778 0.4108466014442021 0.25200564791217245 1.2935567103356107 -1.0470416532243647 0.5806754214463031 -0.18787642153243125 -0.45007032283151516 -0.12225955486357008 0.3391056241554741 0.48001390446848297 -0.18220765328242816 0.7419476101276449 0.17614962001380632 0.2510121736506516 -0.4042550642696135 -0.71531715202431 -0.8597131337756032 0.22983991044841062 0.2609057786152797 0.4955158567588241 -0.2890341614203797 -0.5607200613702988 -0.6956147884993762 -0.43495197913283795 0.47068285687554423 0.4461699593358445 0.7521644027596466 0.7811885579061385 -0.2636002947283073 -0.37091197003279347 0.730817047432122 0.43939201718206267 0.8335452171309837 0.12596425740866693 0.44375672190866156 0.41435898547283473 -0.4707751594790343 -1.669248875365867 -0.06200652360978353 -0.8791162208925635 -0.7885439698299452 -0.5347390639255049 -0.5358451525054901 -0.2358148970849229 0.8210668821583149 1.1255533735780228 0.8368408571631202 -0.8814237859798175 -0.6022696026773111 0.5394295274226388 -0.26128373077998873 -0.26798196873577074 0.4187553147683175 -0.3003552428601537 0.39191813997081537 -0.11270199308212203 0.20754073273057808 1.3067750087980978 -1.3000785706145288 -0.60179549125437 -0.7745862220982725 -0.4996473624286943 -0.2756060609399318 -0.5720059186967633 0.06775859560221234 0.39499883577866807 0.1436768441970816 -0.04213472438652099 -0.4974740089264594 -0.3684323981440494 0.28237063335727497 0.07590924973380475 -0.6004675164715658 0.4105516959116026 0.1485305727449571 0.3959028356501762 -0.20535040994747858 0.8150918955218026 0.5031941992396882 -0.32191060043342623 -0.046705888696971176 0.001181679012926997 -0.9250381802356584 -0.24918283375139663 0.21053786768568905 0.5499551095443109 -0.07472499961771648 -0.36242887226244674 0.19115586361465145 -0.1381093774116331 -0.17909636134695608 0.7623981646725129 0.5789759222566931 -1.28099018652451 -0.6932419173918254 0.636628025552523 0.5119683458878925 -0.871703216257944 -0.3649480391398747 0.677221373593853 -0.5092576318249488 0.793884151095936 0.6091359907798413 0.8625901982130822 -0.36441916321959816 0.14025213478624876 0.4570876346896128 0.03810529151215373 -0.02452215351108035 0.46923686845763707 0.4363807411595646 0.09266641458748556 0.9637435672256565 -0.5497234531494791 -0.38420843003138344 1.776008277711309 -0.0747388835747874 -0.2786769865557717 0.014245968396052884 0.18915580246548713 -0.685105147217304 -0.20528998902318837 -0.32435854775328654 0.3124538258959006 0.27500905078588117 0.4295220663665183 0.10433433784371708 0.6859638956731734 0.10727285164675074 0.05522138236715005 -0.7496282666013541 -0.42853836229701037 -0.8681360677319759 0.24319293471654896 -0.9305817357617071 -1.5070549462012044 0.9684725972702094 -0.6278075990474156 0.2161032775886085 -0.23348856294459144 -0.12837775194616602 -0.2436323362468127 0.6197181371710617 -0.01991036577068184 -0.020357480610429454 0.017385285355982962 -0.24515211532544878 1.1900734076382795 -0.1655890708891406 0.32085773368887965 -0.5206697303166323 -0.4567235664819747 -0.5553587970583855 1.4172555687488688 -0.3765578554646612 0.329284010079362 -0.039678549536544566 -0.014469140150452501 -0.009992335326021501 0.6454924179216883 -0.030498425699173284 -0.21185478672489966 0.7928821921939829 0.5226353386834354 -0.6983162465909393 -1.2735067336632713 -0.44175074722222635 -0.6694887808362857 -0.09569877365590615 -0.3671067373540904 -0.08413909384276477 -0.559062728272534 0.8541227841720194 -0.6389445895008414 0.5272682094697564 -0.9548709473263749 -0.25922916224380516 0.06274211622422741 -0.8178584025233463 0.45657469960893626
0.7502808125836885 -0.37204042721028185 0.5466571555193295 1.7278710558844501 0.5739075065948503 -0.7575953439672307 0.06174427108733238 0.04632716520131376 0.6422163182735778 0.2326377849085219 -1.2214313531242704 0.10112560109843229 1.0025893364482603 0.08687346205479232 -0.20825909895384132 -0.5267722436699445 -0.0787325781152128 -0.365140614766655 -0.4501489985882506 -0.38761668438198404 -0.4833224000164256 -0.40669041318398347 0.6688511472522868 0.15371108850463205 -0.4394640080705786 0.6400871877457169 0.4873569750971155 0.2896782227622817 -0.45702541399310964 -1.328165558658732 -0.49933600183586263 0.7055089076846366 0.2917934693330717 0.1689271341234381 -0.8383372392029883 0.357060665971998 -1.8998966264275539 -0.46511076210440544 1.161785873547496 -0.2789029865236487 0.20678020041546966 0.20527919038991094 -0.04833082589490386 -0.3262097420294124 0.646683352905996 0.07464555253003273 0.5720743100408535 0.4303365918480137 0.39170525262906086 -1.123940006344316 -0.07620338393545585 0.6413200317115536 -0.2526818480435906 -0.39236216948676944 -0.13458130965371662 0.6233770740798877 0.08952529785534259 1.5468671931021358 -1.8195267698192343 -3.0231943712021803 -1.1640453590056339 -0.5676329864400481 -1.6317639910465316 0.007779901055734989 0.0021556128904220936 -0.18558762549825455 -0.5067798597084175 -0.22801776963800732 -0.3013841983453003 0.0971632740165746 -0.14904376493594979 -0.2694413268901166 0.2919991575859745 -0.6702002050810135 -0.19603196076003013 0.26366611496923625 0.9980755077383069 1.6939476636641277 0.6228466554977145 0.24264734662572401 0.21182290504569973 0.08335285049604355 0.19403549915529164 0.36421090386353405 -0.033022734782923766 0.6767004680933765 -0.5125293605976851 0.334022810315928 0.4042938879273489 0.05292435880285724 -0.5941402887019575 0.3300075185089478 0.11594209728597452 0.4258672432227505 -1.0163241695358498 -0.1795059380805489 -1.446497753443438 0.9381924582294294 -0.9957419745091237 1.859965851670887 2.456106972852957 -0.8834230757980334 0.23746811641762974 -0.2062055588589223 -0.26355298643013964 0.5420916476358341 -0.4433139779442882 -0.5314755626828848 1.5264456920229903 -0.25283071491662906 0.7193555837597417 0.3231820109466821 -0.09185677420199663 0.2400317633797479 0.03110546315555288 -0.22498926722432866 0.33898863896163556 0.4888623559980484 0.4794904278648452 0.29183409276301997 0.4269761600162131 0.5353268181081748 -0.33883180166879706 0.19351433654449898 -0.7009405715876637 -0.1049658007801289 1.6467828330528669 -1.20351462074485 1.1940521897803695 -0.34566785075402406 0.2656435504105812 1.2115549745508232 -1.4600240700646467 -0.2798339829783503 -0.03002277161433539 0.21467760088567545 0.625778998653161 -0.9056358644496467 -1.0059361414333061 2.3538238611113136 1.919057772737037 0.14638190183307048 0.38217700142365146 0.33341731552144516 -0.4150580684223884 -0.19670327579544186 0.04374963428212465 0.15995681230402775 0.2627675144143668 -0.9286536655010587 -0.10042368993540124 0.02962347929338769 -0.05857975731642169 -1.060553314557554 0.26278576924681196 0.46585869601402347 -1.5814752700943084 -0.7897724429204076 0.44366621907738424 -0.38648694165291503 0.45277949423256214 0.19989889991460413 -0.6396614130622081 0.755234557044538 -0.4073437304972662 -0.09209048747935752 0.5243392087484195 -0.003992666099160866 -0.8707974166142228 -2.3346701710009987 -0.5023495918512058 -0.41881470725134323 0.268150375992835 -0.16440430655242008 -0.42875279230066154 -1.0380186237901479 1.1999109625539917 0.1389419006152575 0.01951827253858574 0.45955152284907314 0.08615869537595484 0.24116844808735238 0.24005490330819948 0.025056942968627812 0.14655442285519277 -1.0389861299097398 -0.18751749553111577 -0.40652663391260957 0.11190726509496855 0.35933609226973595 0.17188415986923303 0.10317708431082231
0.9062454730091877 -0.9751790627561077 1.067043550267588 0.06844687991848857 0.13090154680928426 -0.26980436665649016 0.4907755138603612 -0.14899799929967888 0.43650363989067403 0.37486144159884477 0.8385555258613816 0.36275900190835586 -0.6171922854254145 0.2197637571593312 -0.4940526419497363 -0.17217135209234866 -0.8345703159613885 0.46730339888035005 0.05423150765005499 0.36204346389857 -0.7773069634635452 -0.36793129013791476 0.1512723971561524 -0.06970029270961545 0.149192117588356 -0.16750017186892444 0.23366622617303626 -0.2741801271266826 0.1534768610066389 -0.378978806201328 -0.06291489435666583 -0.1847317052558625 0.07959184079171454 0.15229363933181514 -0.1560068265173442 -0.27258810004921447 -0.13520068840527039 -0.30444921042386924 0.24495953969866843 0.5181402790265592 -0.30664416119265897 0.42015759443248285 0.048603877050632426 -0.09847479373914654 0.3485865670627158 -0.4711471981064725 -0.8193151895745309 0.005330925294610173 0.43471878007610937 -0.074602100886607 -0.02800471274304209 0.2695935361972647 0.24491094584892018 0.06100739292130783 -0.25606901934826864 0.2726199817284144 -0.30278544956820114 -0.2144040355093146 -0.06385360412085132 0.40823410352201955 0.15451507246316615 -0.1989535052821993 0.08295715771952165 0.2795910137296088 -0.3077685046050893 -0.031638709951203575 0.6316323721101444 -1.0625027249744412 -0.09657269162042724 0.2904109871632482 -0.07994922413113328 -0.5870658983536793 -0.2527299276727067 0.04676425273873236 -0.20135928651021448 0.7974780390947814 -1.2721522765179056 -0.03403677786973493 -0.5180814007641659 0.671816657638514 -0.3180457181613813 0.533687482732539 0.35989325032478664 -0.053593616955739956 -0.24197114649430587 -0.38116398677810487 0.36312872654294875 -0.2524334794782104 -0.37698542992038303 -0.9661352073862844 -0.16879266542810284 0.17549064627356875 0.3261711754819931 -1.196026797008237 -1.0026181328036667 0.21075666856471448 0.5534734071102146 1.023640757801921 -0.25850179715947735 -0.025834958785232925 0.012548268978655809 -0.12957254358521555 -0.18431930030879223 -0.5224635889922615 -0.3113405382270638 0.9754081480477782 -0.04470299933432946 -0.49636174969888713 2.2404932333062573 2.365490755926281 0.22411997724549787 -0.4301969809463559 0.13176569458179244 0.07540094263881852 -1.729434543716828 -2.6198222237581525 0.20601529722498713 0.27648589244172384 0.27831908899572066 0.4308081321677935 0.003453762876555342 0.15810330403505676 0.4782966646670601 0.5540107676709233 -0.3866715468598953 0.2452351619575583 -0.13811426250763956 -0.36506656699561 0.028664200703911926 0.10362599892278282 0.5355546178482647 0.15623128382332446 0.10194526878625025 -1.436304872070836 0.10268600360701671 -0.11544356038300117 0.26822442376388 0.8291815408456493 1.381093517006015 0.947814811810542 -0.4107386151114281 0.29927409398083293 0.9975530595759335 0.6173475800563561 -0.3694721522624733 0.09676552435752367 -0.27010107196130256 -1.0265283637623612 0.3795189949755141 -0.5109854131493329 -0.6049381506484097 -0.3221574263369097 -0.36455903123157213 -0.863631752103719 0.10492800556365801 0.3577540924945968 -0.2650599099929693 -0.5086020005188208 0.3320520597428024 0.12043818538411516 0.38360910588448777 -0.2989136253176207 0.08610624487146461 -0.49382895597470433 -0.6632160604536965 -0.5046036779927052 -0.12669959291279473 0.6539271789526028 -1.7505499855392046 0.3062307278043242 0.43774933937231714 -0.15573300403066728 0.18982068974299565 0.024849197833195915 -0.23607920648990313 0.21132025437766833 0.3102282789994915 0.6777263382547296 1.647352589513408 -0.870253885405927 -0.06575236380546096 0.9966655147646577 0.34546087694954053 0.5660435304657414 -0.31669228945728034 -0.10998870791601703 -0.3138044263865241 1.0850590130084021 -0.23877320838229843 -0.11325349471021785 0.2116357287355581 -1.1591898306855457