An instance of this daemon is already running

     Program PWSCF v.7.1 starts on 10May2023 at 10:44:47 

     This program is part of the open-source Quantum ESPRESSO suite
     for quantum simulation of materials; please cite
         "P. Giannozzi et al., J. Phys.:Condens. Matter 21 395502 (2009);
         "P. Giannozzi et al., J. Phys.:Condens. Matter 29 465901 (2017);
         "P. Giannozzi et al., J. Chem. Phys. 152 154105 (2020);
          URL http://www.quantum-espresso.org", 
     in publications or presentations arising from this work. More details at
     http://www.quantum-espresso.org/quote

     Parallel version (MPI & OpenMP), running on       4 processor cores
     Number of MPI processes:                 4
     Threads/MPI process:                     1

     MPI processes distributed on     1 nodes
     753553 MiB available memory on the printing compute node when the environment starts
 
     Reading input from pw-si-45.in
Warning: card &CELL ignored
Warning: card / ignored

     Current dimensions of program PWSCF are:
     Max number of different atomic species (ntypx) = 10
     Max number of k-points (npk) =  40000
     Max angular momentum in pseudopotentials (lmaxx) =  4

     IMPORTANT: XC functional enforced from input :
     Exchange-correlation= PBE
                           (   1   4   3   4   0   0   0)
     Any further DFT definition will be discarded
     Please, verify this is what you really want


     gamma-point specific algorithms are used
 
     K-points division:     npool     =       2
     R & G space division:  proc/nbgrp/npool/nimage =       2
     Subspace diagonalization in iterative solution of the eigenvalue problem:
     a serial algorithm will be used

     Message from routine divide_et_impera:
     suboptimal parallelization: some nodes have no k-points
 
     Parallelization info
     --------------------
     sticks:   dense  smooth     PW     G-vecs:    dense   smooth      PW
     Min        1916    1916    502                89460    89460   12150
     Max        1917    1917    503                89465    89465   12153
     Sum        3833    3833   1005               178925   178925   24303
 
     Using Slab Decomposition
 


     bravais-lattice index     =            0
     lattice parameter (alat)  =      20.0488  a.u.
     unit-cell volume          =    8058.6804 (a.u.)^3
     number of atoms/cell      =           64
     number of atomic types    =            1
     number of electrons       =       256.00
     number of Kohn-Sham states=          154
     kinetic-energy cutoff     =      30.0000  Ry
     charge density cutoff     =     120.0000  Ry
     scf convergence threshold =      1.0E-06
     mixing beta               =       0.5000
     number of iterations used =            8  plain     mixing
     Exchange-correlation= PBE
                           (   1   4   3   4   0   0   0)

     GPU acceleration is ACTIVE.
     GPU-aware MPI enabled

     Message from routine print_cuda_info:
     High GPU oversubscription detected. Are you sure this is what you want?

     celldm(1)=  20.048781  celldm(2)=   0.000000  celldm(3)=   0.000000
     celldm(4)=   0.000000  celldm(5)=   0.000000  celldm(6)=   0.000000

     crystal axes: (cart. coord. in units of alat)
               a(1) = (   1.000000   0.000000   0.000000 )  
               a(2) = (   0.000000   1.000000   0.000000 )  
               a(3) = (   0.000000   0.000000   1.000000 )  

     reciprocal axes: (cart. coord. in units 2 pi/alat)
               b(1) = (  1.000000  0.000000  0.000000 )  
               b(2) = (  0.000000  1.000000  0.000000 )  
               b(3) = (  0.000000  0.000000  1.000000 )  


     PseudoPot. # 1 for Si read from file:
     /home/ppiaggi/pseudos/Si_ONCV_PBE_sr.upf
     MD5 check sum: 8553c464762ac42b85b1eed164b4d029
     Pseudo is Norm-conserving, Zval =  4.0
     Generated using ONCVPSP code by D. R. Hamann
     Using radial grid of 1510 points,  4 beta functions with: 
                l(1) =   0
                l(2) =   0
                l(3) =   1
                l(4) =   1

     atomic species   valence    mass     pseudopotential
        Si             4.00    28.08500     Si( 1.00)

     No symmetry found



   Cartesian axes

     site n.     atom                  positions (alat units)
         1           Si  tau(   1) = (   0.9855900   0.1782790   0.9411010  )
         2           Si  tau(   2) = (   0.0862604   0.2178840   0.4281810  )
         3           Si  tau(   3) = (   0.9302820   0.9241000   0.8149460  )
         4           Si  tau(   4) = (   0.8742830   0.0217927   0.5001640  )
         5           Si  tau(   5) = (   0.6905850   0.1631110   0.4802000  )
         6           Si  tau(   6) = (   0.5808560   0.3788960   0.4898590  )
         7           Si  tau(   7) = (   0.7702120   0.8439400   0.6343480  )
         8           Si  tau(   8) = (   0.0385441   0.6796210   0.5946240  )
         9           Si  tau(   9) = (   0.0692854   0.8308940   0.0047439  )
        10           Si  tau(  10) = (   0.7933490   0.5663000   0.9760010  )
        11           Si  tau(  11) = (   0.1793780   0.2672370   0.1742920  )
        12           Si  tau(  12) = (   0.3311950   0.1831730   0.8532810  )
        13           Si  tau(  13) = (   0.4896020   0.9695450   0.2803320  )
        14           Si  tau(  14) = (   0.9043630   0.3239440   0.4834750  )
        15           Si  tau(  15) = (   0.1696300   0.4316850   0.9942660  )
        16           Si  tau(  16) = (   0.6917490   0.3620220   0.9161400  )
        17           Si  tau(  17) = (   0.9433460   0.3101150   0.1831810  )
        18           Si  tau(  18) = (   0.7723060   0.9227000   0.2409550  )
        19           Si  tau(  19) = (   0.3779270   0.4992370   0.0321658  )
        20           Si  tau(  20) = (   0.2838180   0.0535738   0.3190140  )
        21           Si  tau(  21) = (   0.1335210   0.9074850   0.6731930  )
        22           Si  tau(  22) = (   0.4833280   0.6410000   0.1973740  )
        23           Si  tau(  23) = (   0.3863020   0.6866170   0.5103820  )
        24           Si  tau(  24) = (   0.4829060   0.3020840   0.9969220  )
        25           Si  tau(  25) = (   0.1443210   0.3123720   0.8253940  )
        26           Si  tau(  26) = (   0.2068010   0.4184380   0.3902180  )
        27           Si  tau(  27) = (   0.1823210   0.0654575   0.0652719  )
        28           Si  tau(  28) = (   0.8629710   0.6492820   0.7791430  )
        29           Si  tau(  29) = (   0.6637660   0.7441740   0.0353478  )
        30           Si  tau(  30) = (   0.7690540   0.1933480   0.0645729  )
        31           Si  tau(  31) = (   0.3421640   0.1974990   0.5088560  )
        32           Si  tau(  32) = (   0.9404050   0.1264450   0.7060770  )
        33           Si  tau(  33) = (   0.1468990   0.7604260   0.2799940  )
        34           Si  tau(  34) = (   0.0219812   0.0084091   0.3168450  )
        35           Si  tau(  35) = (   0.0566193   0.5792930   0.3850290  )
        36           Si  tau(  36) = (   0.2970780   0.6244290   0.7100090  )
        37           Si  tau(  37) = (   0.6603250   0.1337230   0.2695150  )
        38           Si  tau(  38) = (   0.7611430   0.6625160   0.4913230  )
        39           Si  tau(  39) = (   0.5084260   0.7673350   0.8747720  )
        40           Si  tau(  40) = (   0.8336490   0.5290240   0.3314960  )
        41           Si  tau(  41) = (   0.0024102   0.4347380   0.6802520  )
        42           Si  tau(  42) = (   0.4376420   0.2726470   0.2530600  )
        43           Si  tau(  43) = (   0.2455290   0.4410310   0.6178310  )
        44           Si  tau(  44) = (   0.4338240   0.0382872   0.0616865  )
        45           Si  tau(  45) = (   0.1470000   0.1633390   0.6505820  )
        46           Si  tau(  46) = (   0.7934350   0.9416430   0.0011099  )
        47           Si  tau(  47) = (   0.6628270   0.3916800   0.2435460  )
        48           Si  tau(  48) = (   0.5189270   0.9986780   0.5270910  )
        49           Si  tau(  49) = (   0.5377010   0.7960050   0.6619730  )
        50           Si  tau(  50) = (   0.6717960   0.5387890   0.6772850  )
        51           Si  tau(  51) = (   0.1012490   0.6178750   0.8853210  )
        52           Si  tau(  52) = (   0.4526720   0.3327390   0.7025710  )
        53           Si  tau(  53) = (   0.4722190   0.5353780   0.8301440  )
        54           Si  tau(  54) = (   0.9222850   0.7626140   0.1857640  )
        55           Si  tau(  55) = (   0.7907110   0.3090820   0.7111620  )
        56           Si  tau(  56) = (   0.4115940   0.4947000   0.3694240  )
        57           Si  tau(  57) = (   0.2809290   0.8270980   0.8743310  )
        58           Si  tau(  58) = (   0.3328500   0.8139030   0.1274020  )
        59           Si  tau(  59) = (   0.9726010   0.5362130   0.0977778  )
        60           Si  tau(  60) = (   0.5986730   0.7681680   0.3323580  )
        61           Si  tau(  61) = (   0.6010690   0.9872690   0.8897580  )
        62           Si  tau(  62) = (   0.2433890   0.8672580   0.4547600  )
        63           Si  tau(  63) = (   0.3445900   0.9885370   0.7101460  )
        64           Si  tau(  64) = (   0.6097650   0.1638420   0.7195550  )

     number of k points=     1  Fermi-Dirac smearing, width (Ry)=  0.0100
                       cart. coord. in units 2pi/alat
        k(    1) = (   0.0000000   0.0000000   0.0000000), wk =   2.0000000

     Dense  grid:    89463 G-vectors     FFT dimensions: (  72,  72,  72)

     Estimated max dynamical RAM per process >     143.79 MB

     Estimated total dynamical RAM >     553.31 MB

     Initial potential from superposition of free atoms

     starting charge     255.9608, renormalised to     256.0000
     Starting wfcs are  256 randomized atomic wfcs

     total cpu time spent up to now is        5.0 secs

     Self-consistent Calculation

     iteration #  1     ecut=    30.00 Ry     beta= 0.50
     Davidson diagonalization with overlap
     ethr =  1.00E-02,  avg # of iterations =  3.0

     Threshold (ethr) on eigenvalues was too large:
     Diagonalizing with lowered threshold

     Davidson diagonalization with overlap
     ethr =  3.99E-04,  avg # of iterations =  4.0

     total cpu time spent up to now is        5.3 secs

     total energy              =    -501.27982074 Ry
     estimated scf accuracy    <       1.24616685 Ry

     iteration #  2     ecut=    30.00 Ry     beta= 0.50
     Davidson diagonalization with overlap
     ethr =  4.87E-04,  avg # of iterations =  5.0

     total cpu time spent up to now is        5.4 secs

     total energy              =    -500.72226023 Ry
     estimated scf accuracy    <       7.24394393 Ry

     iteration #  3     ecut=    30.00 Ry     beta= 0.50
     Davidson diagonalization with overlap
     ethr =  4.87E-04,  avg # of iterations =  5.0

     total cpu time spent up to now is        5.6 secs

     total energy              =    -501.39064187 Ry
     estimated scf accuracy    <       1.90071906 Ry

     iteration #  4     ecut=    30.00 Ry     beta= 0.50
     Davidson diagonalization with overlap
     ethr =  4.87E-04,  avg # of iterations =  2.0

     total cpu time spent up to now is        5.6 secs

     total energy              =    -501.52299191 Ry
     estimated scf accuracy    <       0.52304942 Ry

     iteration #  5     ecut=    30.00 Ry     beta= 0.50
     Davidson diagonalization with overlap
     ethr =  2.04E-04,  avg # of iterations =  2.0

     total cpu time spent up to now is        5.7 secs

     total energy              =    -501.54542959 Ry
     estimated scf accuracy    <       0.42825161 Ry

     iteration #  6     ecut=    30.00 Ry     beta= 0.50
     Davidson diagonalization with overlap
     ethr =  1.67E-04,  avg # of iterations =  2.0

     total cpu time spent up to now is        5.8 secs

     total energy              =    -501.58166670 Ry
     estimated scf accuracy    <       0.14156394 Ry

     iteration #  7     ecut=    30.00 Ry     beta= 0.50
     Davidson diagonalization with overlap
     ethr =  5.53E-05,  avg # of iterations =  2.0

     total cpu time spent up to now is        5.9 secs

     total energy              =    -501.59596513 Ry
     estimated scf accuracy    <       0.00899423 Ry

     iteration #  8     ecut=    30.00 Ry     beta= 0.50
     Davidson diagonalization with overlap
     ethr =  3.51E-06,  avg # of iterations = 19.0

     total cpu time spent up to now is        6.1 secs

     total energy              =    -501.59632519 Ry
     estimated scf accuracy    <       0.03067631 Ry

     iteration #  9     ecut=    30.00 Ry     beta= 0.50
     Davidson diagonalization with overlap
     ethr =  3.51E-06,  avg # of iterations =  3.0

     total cpu time spent up to now is        6.2 secs

     total energy              =    -501.59864768 Ry
     estimated scf accuracy    <       0.00188320 Ry

     iteration # 10     ecut=    30.00 Ry     beta= 0.50
     Davidson diagonalization with overlap
     ethr =  7.36E-07,  avg # of iterations =  4.0

     total cpu time spent up to now is        6.4 secs

     total energy              =    -501.59875404 Ry
     estimated scf accuracy    <       0.00214130 Ry

     iteration # 11     ecut=    30.00 Ry     beta= 0.50
     Davidson diagonalization with overlap
     ethr =  7.36E-07,  avg # of iterations =  2.0

     total cpu time spent up to now is        6.5 secs

     total energy              =    -501.59889995 Ry
     estimated scf accuracy    <       0.00055500 Ry

     iteration # 12     ecut=    30.00 Ry     beta= 0.50
     Davidson diagonalization with overlap
     ethr =  2.17E-07,  avg # of iterations =  2.0

     total cpu time spent up to now is        6.6 secs

     total energy              =    -501.59895942 Ry
     estimated scf accuracy    <       0.00022415 Ry

     iteration # 13     ecut=    30.00 Ry     beta= 0.50
     Davidson diagonalization with overlap
     ethr =  8.76E-08,  avg # of iterations =  2.0

     total cpu time spent up to now is        6.6 secs

     total energy              =    -501.59897483 Ry
     estimated scf accuracy    <       0.00016221 Ry

     iteration # 14     ecut=    30.00 Ry     beta= 0.50
     Davidson diagonalization with overlap
     ethr =  6.34E-08,  avg # of iterations =  1.0

     total cpu time spent up to now is        6.7 secs

     total energy              =    -501.59898648 Ry
     estimated scf accuracy    <       0.00001398 Ry

     iteration # 15     ecut=    30.00 Ry     beta= 0.50
     Davidson diagonalization with overlap
     ethr =  5.46E-09,  avg # of iterations =  4.0

     total cpu time spent up to now is        6.8 secs

     total energy              =    -501.59898652 Ry
     estimated scf accuracy    <       0.00002182 Ry

     iteration # 16     ecut=    30.00 Ry     beta= 0.50
     Davidson diagonalization with overlap
     ethr =  5.46E-09,  avg # of iterations =  3.0

     total cpu time spent up to now is        7.0 secs

     total energy              =    -501.59898706 Ry
     estimated scf accuracy    <       0.00004707 Ry

     iteration # 17     ecut=    30.00 Ry     beta= 0.50
     Davidson diagonalization with overlap
     ethr =  5.46E-09,  avg # of iterations =  2.0

     total cpu time spent up to now is        7.1 secs

     total energy              =    -501.59898977 Ry
     estimated scf accuracy    <       0.00000364 Ry

     iteration # 18     ecut=    30.00 Ry     beta= 0.50
     Davidson diagonalization with overlap
     ethr =  1.42E-09,  avg # of iterations =  3.0

     total cpu time spent up to now is        7.2 secs

     total energy              =    -501.59899019 Ry
     estimated scf accuracy    <       0.00000237 Ry

     iteration # 19     ecut=    30.00 Ry     beta= 0.50
     Davidson diagonalization with overlap
     ethr =  9.25E-10,  avg # of iterations =  2.0

     total cpu time spent up to now is        7.2 secs

     End of self-consistent calculation

          k = 0.0000 0.0000 0.0000 ( 11168 PWs)   bands (ev):

    -5.2932  -4.3519  -4.1968  -4.0055  -3.9800  -3.9544  -3.8676  -3.1939
    -3.1376  -3.0054  -2.9930  -2.8847  -2.8719  -2.7595  -2.6977  -2.6798
    -2.6032  -2.5155  -2.2678  -2.0162  -1.8431  -1.7347  -1.6657  -1.5990
    -1.5403  -1.2494  -1.1092  -0.7331  -0.6602  -0.5698  -0.5190  -0.2141
    -0.1990   0.0958   0.1530   0.1786   0.2222   0.3040   0.3229   0.4216
     0.4612   0.5854   0.6344   0.7393   0.8990   0.9405   1.0176   1.0439
     1.1140   1.1595   1.3217   1.3605   1.4768   1.5773   1.6913   1.7334
     1.8683   2.0666   2.0966   2.1889   2.2286   2.3672   2.4170   2.5338
     2.6187   2.6641   2.6753   2.7801   2.8969   2.9448   3.0059   3.0785
     3.1680   3.2341   3.3182   3.4293   3.4625   3.5719   3.6366   3.7767
     3.8790   4.3333   4.4834   4.5761   4.6332   4.7239   4.7381   4.7828
     4.8345   4.8979   5.0816   5.1327   5.1580   5.3136   5.3626   5.4036
     5.4733   5.4992   5.5867   5.6195   5.6455   5.6590   5.7526   5.8318
     5.9098   5.9342   6.0040   6.0765   6.1160   6.1222   6.2253   6.2456
     6.2942   6.3653   6.3965   6.4419   6.5102   6.5755   6.6100   6.7369
     6.7876   6.8187   6.8709   6.9450   6.9990   7.0340   7.1032   7.1901
     7.2401   7.3358   7.3600   7.4084   7.4432   7.5000   7.5254   7.6750
     7.7014   7.7888   7.8584   7.9716   8.0207   8.1005   8.2149   8.2819
     8.3450   8.3667   8.4178   8.5561   8.6439   8.6657   8.6792   8.7568
     8.8181   8.8627

     the Fermi energy is     7.2058 ev

!    total energy              =    -501.59899016 Ry
     estimated scf accuracy    <       0.00000033 Ry
     smearing contrib. (-TS)   =      -0.15112529 Ry
     internal energy E=F+TS    =    -501.44786487 Ry

     The total energy is F=E-TS. E is the sum of the following terms:
     one-electron contribution =     194.29072680 Ry
     hartree contribution      =      22.22503117 Ry
     xc contribution           =    -150.86628696 Ry
     ewald contribution        =    -567.09733588 Ry

     convergence has been achieved in  19 iterations

     Forces acting on atoms (cartesian axes, Ry/au):

     atom    1 type  1   force =     0.00991788   -0.01605419    0.00962406
     atom    2 type  1   force =     0.02686122   -0.02785003   -0.00824593
     atom    3 type  1   force =     0.02093250   -0.01261834    0.01216093
     atom    4 type  1   force =    -0.00391289   -0.00707832    0.02940442
     atom    5 type  1   force =     0.01509387    0.01439228    0.04073863
     atom    6 type  1   force =    -0.01316376    0.01280890    0.00767035
     atom    7 type  1   force =     0.01308491   -0.00997871   -0.00768222
     atom    8 type  1   force =    -0.00078762   -0.02702098    0.00061151
     atom    9 type  1   force =    -0.01167834    0.00791114   -0.01636315
     atom   10 type  1   force =    -0.01558756   -0.01084965   -0.01212698
     atom   11 type  1   force =    -0.01005842    0.00916584    0.00030914
     atom   12 type  1   force =     0.01164197    0.00131905   -0.00186675
     atom   13 type  1   force =     0.00503215   -0.00322737   -0.00772487
     atom   14 type  1   force =    -0.02922493    0.03551311    0.00915272
     atom   15 type  1   force =     0.00229491    0.03506628    0.07394580
     atom   16 type  1   force =    -0.00670237    0.00679650    0.01558685
     atom   17 type  1   force =     0.00651211    0.03314134   -0.01048546
     atom   18 type  1   force =    -0.00477110   -0.01004926   -0.01252026
     atom   19 type  1   force =     0.02390683   -0.00034903    0.00752395
     atom   20 type  1   force =    -0.00129057    0.02340522    0.01031064
     atom   21 type  1   force =    -0.02022263   -0.00392479   -0.02342167
     atom   22 type  1   force =    -0.03159855   -0.02556776   -0.04488603
     atom   23 type  1   force =     0.00998054    0.02535381    0.00738410
     atom   24 type  1   force =    -0.00590045   -0.01060226    0.01425674
     atom   25 type  1   force =    -0.01954144   -0.03141717   -0.04380666
     atom   26 type  1   force =     0.00031295   -0.04167513    0.02350720
     atom   27 type  1   force =    -0.00131664   -0.00769557    0.01449969
     atom   28 type  1   force =     0.01543802    0.00081632   -0.01975188
     atom   29 type  1   force =     0.00184270   -0.01297482    0.02866856
     atom   30 type  1   force =     0.03075000    0.00633177    0.00668988
     atom   31 type  1   force =     0.00059325   -0.00818373   -0.01066522
     atom   32 type  1   force =    -0.02926469   -0.02188033    0.00059834
     atom   33 type  1   force =    -0.02526033    0.00455765   -0.00813435
     atom   34 type  1   force =     0.00066760   -0.00175099    0.00698008
     atom   35 type  1   force =    -0.02053933    0.02482985    0.00095648
     atom   36 type  1   force =     0.00026215    0.05016975    0.04351687
     atom   37 type  1   force =    -0.02975735   -0.00313927   -0.04777025
     atom   38 type  1   force =    -0.03159435    0.02098283    0.01485787
     atom   39 type  1   force =    -0.02483745    0.01374859   -0.00149988
     atom   40 type  1   force =     0.03658873   -0.02732222   -0.01151909
     atom   41 type  1   force =    -0.00276390    0.02170986   -0.01864738
     atom   42 type  1   force =     0.00626969   -0.02724852   -0.00829740
     atom   43 type  1   force =    -0.01360850   -0.04556616   -0.02326783
     atom   44 type  1   force =    -0.00598570    0.00660035   -0.00130808
     atom   45 type  1   force =     0.04053469   -0.02491665   -0.03219274
     atom   46 type  1   force =    -0.01400700    0.00609446    0.02023344
     atom   47 type  1   force =    -0.00360274    0.00682070    0.01950759
     atom   48 type  1   force =    -0.02488257    0.00746805    0.02536060
     atom   49 type  1   force =     0.02111108    0.00564266   -0.05557439
     atom   50 type  1   force =    -0.00308172   -0.00571075   -0.01895240
     atom   51 type  1   force =    -0.00762848    0.03258057   -0.01637217
     atom   52 type  1   force =    -0.02638818   -0.01196642   -0.02471361
     atom   53 type  1   force =     0.01905585   -0.00632481   -0.03301269
     atom   54 type  1   force =     0.05081727   -0.01880798   -0.00896917
     atom   55 type  1   force =     0.00583872    0.00077033    0.00512679
     atom   56 type  1   force =     0.03181919    0.01338061    0.00838594
     atom   57 type  1   force =     0.01208540   -0.03886572    0.00073067
     atom   58 type  1   force =    -0.00443545    0.01020053    0.00753665
     atom   59 type  1   force =    -0.00183779   -0.01906932    0.04014456
     atom   60 type  1   force =     0.03807002    0.04184907    0.02038692
     atom   61 type  1   force =    -0.02352031    0.02203000   -0.00473474
     atom   62 type  1   force =     0.00037627   -0.00253736    0.01693388
     atom   63 type  1   force =     0.01243986    0.04309006    0.00638729
     atom   64 type  1   force =    -0.00137922   -0.02232386   -0.01517592

     Total force =     0.291640     Total SCF correction =     0.001029


     Computing stress (Cartesian axis) and pressure

          total   stress  (Ry/bohr**3)                   (kbar)     P=      -35.08
  -0.00024105   0.00000087   0.00005755          -35.46        0.13        8.47
   0.00000087  -0.00022338   0.00007018            0.13      -32.86       10.32
   0.00005755   0.00007018  -0.00025100            8.47       10.32      -36.92

 
     init_run     :      1.07s CPU      4.94s WALL (       1 calls)
     electrons    :      2.05s CPU      2.23s WALL (       1 calls)
     forces       :      0.04s CPU      0.04s WALL (       1 calls)
     stress       :      0.15s CPU      0.15s WALL (       1 calls)

     Called by init_run:
     wfcinit      :      0.54s CPU      4.22s WALL (       1 calls)
                                        4.22s GPU  (       1 calls)
     potinit      :      0.05s CPU      0.14s WALL (       1 calls)
     hinit0       :      0.47s CPU      0.50s WALL (       1 calls)

     Called by electrons:
     c_bands      :      1.22s CPU      1.31s WALL (      20 calls)
     sum_band     :      0.41s CPU      0.46s WALL (      20 calls)
     v_of_rho     :      0.19s CPU      0.29s WALL (      20 calls)
     mix_rho      :      0.19s CPU      0.20s WALL (      20 calls)

     Called by c_bands:
     init_us_2    :      0.07s CPU      0.08s WALL (      41 calls)
     init_us_2:gp :      0.07s CPU      0.07s WALL (      41 calls)
     regterg      :      1.06s CPU      1.13s WALL (      20 calls)

     Called by *egterg:
     rdiaghg      :      0.44s CPU      1.20s WALL (      91 calls)
                                        1.18s GPU  (      91 calls)
     h_psi        :      0.97s CPU      3.94s WALL (      93 calls)
                                        3.94s GPU  (      93 calls)
     g_psi        :      0.00s CPU      0.00s WALL (      72 calls)
                                        0.00s GPU  (      72 calls)

     Called by h_psi:
     h_psi:calbec :      0.52s CPU      3.39s WALL (      93 calls)
                                        3.39s GPU  (      93 calls)
     vloc_psi     :      0.40s CPU      0.48s WALL (      93 calls)
                                        0.48s GPU  (      93 calls)
     add_vuspsi   :      0.04s CPU      0.05s WALL (      93 calls)
                                        0.05s GPU  (      93 calls)

     General routines
     calbec       :      0.52s CPU      3.40s WALL (      98 calls)
     fft          :      0.63s CPU      0.76s WALL (     167 calls)
                                        0.13s GPU  (     106 calls)
     ffts         :      0.05s CPU      0.05s WALL (      20 calls)
     fftw         :      0.49s CPU      0.65s WALL (    2114 calls)
                                        0.56s GPU  (    2114 calls)
 
     Parallel routines
 
     PWSCF        :      3.36s CPU      7.45s WALL

 
   This run was terminated on:  10:44:54  10May2023            

=------------------------------------------------------------------------------=
   JOB DONE.
=------------------------------------------------------------------------------=
