An instance of this daemon is already running
An instance of this daemon is already running

     Program PWSCF v.7.1 starts on 10May2023 at 10:43: 0 

     This program is part of the open-source Quantum ESPRESSO suite
     for quantum simulation of materials; please cite
         "P. Giannozzi et al., J. Phys.:Condens. Matter 21 395502 (2009);
         "P. Giannozzi et al., J. Phys.:Condens. Matter 29 465901 (2017);
         "P. Giannozzi et al., J. Chem. Phys. 152 154105 (2020);
          URL http://www.quantum-espresso.org", 
     in publications or presentations arising from this work. More details at
     http://www.quantum-espresso.org/quote

     Parallel version (MPI & OpenMP), running on       4 processor cores
     Number of MPI processes:                 4
     Threads/MPI process:                     1

     MPI processes distributed on     1 nodes
     753570 MiB available memory on the printing compute node when the environment starts
 
     Reading input from pw-si-34.in
Warning: card &CELL ignored
Warning: card / ignored

     Current dimensions of program PWSCF are:
     Max number of different atomic species (ntypx) = 10
     Max number of k-points (npk) =  40000
     Max angular momentum in pseudopotentials (lmaxx) =  4

     IMPORTANT: XC functional enforced from input :
     Exchange-correlation= PBE
                           (   1   4   3   4   0   0   0)
     Any further DFT definition will be discarded
     Please, verify this is what you really want


     gamma-point specific algorithms are used
 
     K-points division:     npool     =       2
     R & G space division:  proc/nbgrp/npool/nimage =       2
     Subspace diagonalization in iterative solution of the eigenvalue problem:
     a serial algorithm will be used

     Message from routine divide_et_impera:
     suboptimal parallelization: some nodes have no k-points
 
     Parallelization info
     --------------------
     sticks:   dense  smooth     PW     G-vecs:    dense   smooth      PW
     Min        1954    1954    520                92150    92150   12584
     Max        1955    1955    521                92157    92157   12589
     Sum        3909    3909   1041               184307   184307   25173
 
     Using Slab Decomposition
 


     bravais-lattice index     =            0
     lattice parameter (alat)  =      20.2572  a.u.
     unit-cell volume          =    8312.6131 (a.u.)^3
     number of atoms/cell      =           64
     number of atomic types    =            1
     number of electrons       =       256.00
     number of Kohn-Sham states=          154
     kinetic-energy cutoff     =      30.0000  Ry
     charge density cutoff     =     120.0000  Ry
     scf convergence threshold =      1.0E-06
     mixing beta               =       0.5000
     number of iterations used =            8  plain     mixing
     Exchange-correlation= PBE
                           (   1   4   3   4   0   0   0)

     GPU acceleration is ACTIVE.
     GPU-aware MPI enabled

     Message from routine print_cuda_info:
     High GPU oversubscription detected. Are you sure this is what you want?

     celldm(1)=  20.257189  celldm(2)=   0.000000  celldm(3)=   0.000000
     celldm(4)=   0.000000  celldm(5)=   0.000000  celldm(6)=   0.000000

     crystal axes: (cart. coord. in units of alat)
               a(1) = (   1.000000   0.000000   0.000000 )  
               a(2) = (   0.000000   1.000000   0.000000 )  
               a(3) = (   0.000000   0.000000   1.000000 )  

     reciprocal axes: (cart. coord. in units 2 pi/alat)
               b(1) = (  1.000000  0.000000  0.000000 )  
               b(2) = (  0.000000  1.000000  0.000000 )  
               b(3) = (  0.000000  0.000000  1.000000 )  


     PseudoPot. # 1 for Si read from file:
     /home/ppiaggi/pseudos/Si_ONCV_PBE_sr.upf
     MD5 check sum: 8553c464762ac42b85b1eed164b4d029
     Pseudo is Norm-conserving, Zval =  4.0
     Generated using ONCVPSP code by D. R. Hamann
     Using radial grid of 1510 points,  4 beta functions with: 
                l(1) =   0
                l(2) =   0
                l(3) =   1
                l(4) =   1

     atomic species   valence    mass     pseudopotential
        Si             4.00    28.08500     Si( 1.00)

     No symmetry found



   Cartesian axes

     site n.     atom                  positions (alat units)
         1           Si  tau(   1) = (   0.4636980   0.7617100   0.7519090  )
         2           Si  tau(   2) = (   0.9374480   0.8945250   0.5918470  )
         3           Si  tau(   3) = (   0.8184450   0.5464080   0.0383040  )
         4           Si  tau(   4) = (   0.5342830   0.2807170   0.3992720  )
         5           Si  tau(   5) = (   0.7502660   0.0950087   0.5325190  )
         6           Si  tau(   6) = (   0.2339490   0.1132030   0.5223810  )
         7           Si  tau(   7) = (   0.9358460   0.9790910   0.9752520  )
         8           Si  tau(   8) = (   0.2538330   0.3136030   0.7703480  )
         9           Si  tau(   9) = (   0.2782020   0.9059420   0.4614870  )
        10           Si  tau(  10) = (   0.4457950   0.7719460   0.1083830  )
        11           Si  tau(  11) = (   0.5424940   0.4908670   0.2354370  )
        12           Si  tau(  12) = (   0.4795440   0.4838930   0.9070490  )
        13           Si  tau(  13) = (   0.3006930   0.4468660   0.3946100  )
        14           Si  tau(  14) = (   0.6910770   0.7763970   0.8267790  )
        15           Si  tau(  15) = (   0.2560580   0.5460390   0.7949870  )
        16           Si  tau(  16) = (   0.0657217   0.7684250   0.0184464  )
        17           Si  tau(  17) = (   0.3879040   0.3124740   0.2061880  )
        18           Si  tau(  18) = (   0.8052270   0.6653990   0.4391930  )
        19           Si  tau(  19) = (   0.3924480   0.0181902   0.0818559  )
        20           Si  tau(  20) = (   0.5897190   0.6148310   0.0436175  )
        21           Si  tau(  21) = (   0.5580980   0.1463580   0.9121160  )
        22           Si  tau(  22) = (   0.6011930   0.1378530   0.1872610  )
        23           Si  tau(  23) = (   0.7488530   0.2867020   0.0745853  )
        24           Si  tau(  24) = (   0.3472430   0.6392800   0.5846430  )
        25           Si  tau(  25) = (   0.1388790   0.7980430   0.6165810  )
        26           Si  tau(  26) = (   0.1250070   0.8819010   0.2760990  )
        27           Si  tau(  27) = (   0.7743790   0.2970180   0.4699620  )
        28           Si  tau(  28) = (   0.1652520   0.0289674   0.7367980  )
        29           Si  tau(  29) = (   0.8902260   0.0786235   0.7732560  )
        30           Si  tau(  30) = (   0.9093850   0.8496180   0.3709540  )
        31           Si  tau(  31) = (   0.7852290   0.0266462   0.3124160  )
        32           Si  tau(  32) = (   0.8049150   0.7854430   0.0184932  )
        33           Si  tau(  33) = (   0.6611270   0.8717850   0.1733590  )
        34           Si  tau(  34) = (   0.2090800   0.7598930   0.8458790  )
        35           Si  tau(  35) = (   0.9093760   0.3000240   0.8145330  )
        36           Si  tau(  36) = (   0.2123140   0.2105210   0.3050050  )
        37           Si  tau(  37) = (   0.0101630   0.2987150   0.9962330  )
        38           Si  tau(  38) = (   0.4917160   0.8504750   0.5446790  )
        39           Si  tau(  39) = (   0.1626230   0.1438680   0.9511670  )
        40           Si  tau(  40) = (   0.9606190   0.4460440   0.4970400  )
        41           Si  tau(  41) = (   0.9826530   0.5810600   0.8896920  )
        42           Si  tau(  42) = (   0.4000590   0.1615670   0.7579910  )
        43           Si  tau(  43) = (   0.1784680   0.0297889   0.1376700  )
        44           Si  tau(  44) = (   0.3622690   0.9334420   0.8770230  )
        45           Si  tau(  45) = (   0.7473880   0.4762630   0.6568120  )
        46           Si  tau(  46) = (   0.9820520   0.2090060   0.3261100  )
        47           Si  tau(  47) = (   0.0564503   0.5870850   0.6370880  )
        48           Si  tau(  48) = (   0.0561632   0.4283680   0.2835450  )
        49           Si  tau(  49) = (   0.5125770   0.0962982   0.5567810  )
        50           Si  tau(  50) = (   0.0389779   0.3197320   0.6415240  )
        51           Si  tau(  51) = (   0.4333550   0.3629160   0.5775950  )
        52           Si  tau(  52) = (   0.6683030   0.0024331   0.7649450  )
        53           Si  tau(  53) = (   0.6731590   0.3592670   0.8637060  )
        54           Si  tau(  54) = (   0.8634580   0.6685610   0.7030820  )
        55           Si  tau(  55) = (   0.9186210   0.1133670   0.1494590  )
        56           Si  tau(  56) = (   0.9154790   0.6074270   0.2493040  )
        57           Si  tau(  57) = (   0.1838420   0.6661080   0.1967160  )
        58           Si  tau(  58) = (   0.0168493   0.1207550   0.5249690  )
        59           Si  tau(  59) = (   0.3603490   0.3232410   0.9855770  )
        60           Si  tau(  60) = (   0.5420550   0.5208460   0.6749210  )
        61           Si  tau(  61) = (   0.1619240   0.4775260   0.0562940  )
        62           Si  tau(  62) = (   0.7708330   0.4130660   0.2673480  )
        63           Si  tau(  63) = (   0.5960210   0.7491980   0.3742470  )
        64           Si  tau(  64) = (   0.3825950   0.6282830   0.3045680  )

     number of k points=     1  Fermi-Dirac smearing, width (Ry)=  0.0100
                       cart. coord. in units 2pi/alat
        k(    1) = (   0.0000000   0.0000000   0.0000000), wk =   2.0000000

     Dense  grid:    92154 G-vectors     FFT dimensions: (  72,  72,  72)

     Estimated max dynamical RAM per process >     147.79 MB

     Estimated total dynamical RAM >     568.67 MB

     Initial potential from superposition of free atoms

     starting charge     255.9608, renormalised to     256.0000
     Starting wfcs are  256 randomized atomic wfcs

     total cpu time spent up to now is        5.0 secs

     Self-consistent Calculation

     iteration #  1     ecut=    30.00 Ry     beta= 0.50
     Davidson diagonalization with overlap
     ethr =  1.00E-02,  avg # of iterations =  3.0

     Threshold (ethr) on eigenvalues was too large:
     Diagonalizing with lowered threshold

     Davidson diagonalization with overlap
     ethr =  4.37E-04,  avg # of iterations =  4.0

     total cpu time spent up to now is        5.3 secs

     total energy              =    -501.27598446 Ry
     estimated scf accuracy    <       1.34156113 Ry

     iteration #  2     ecut=    30.00 Ry     beta= 0.50
     Davidson diagonalization with overlap
     ethr =  5.24E-04,  avg # of iterations =  4.0

     total cpu time spent up to now is        5.4 secs

     total energy              =    -500.70297835 Ry
     estimated scf accuracy    <       6.68451910 Ry

     iteration #  3     ecut=    30.00 Ry     beta= 0.50
     Davidson diagonalization with overlap
     ethr =  5.24E-04,  avg # of iterations =  4.0

     total cpu time spent up to now is        5.5 secs

     total energy              =    -501.37113326 Ry
     estimated scf accuracy    <       1.94286690 Ry

     iteration #  4     ecut=    30.00 Ry     beta= 0.50
     Davidson diagonalization with overlap
     ethr =  5.24E-04,  avg # of iterations =  2.0

     total cpu time spent up to now is        5.6 secs

     total energy              =    -501.47821163 Ry
     estimated scf accuracy    <       0.66363279 Ry

     iteration #  5     ecut=    30.00 Ry     beta= 0.50
     Davidson diagonalization with overlap
     ethr =  2.59E-04,  avg # of iterations =  2.0

     total cpu time spent up to now is        5.7 secs

     total energy              =    -501.51313414 Ry
     estimated scf accuracy    <       0.56908654 Ry

     iteration #  6     ecut=    30.00 Ry     beta= 0.50
     Davidson diagonalization with overlap
     ethr =  2.22E-04,  avg # of iterations =  2.0

     total cpu time spent up to now is        5.8 secs

     total energy              =    -501.56127042 Ry
     estimated scf accuracy    <       0.07099472 Ry

     iteration #  7     ecut=    30.00 Ry     beta= 0.50
     Davidson diagonalization with overlap
     ethr =  2.77E-05,  avg # of iterations =  3.0

     total cpu time spent up to now is        5.9 secs

     total energy              =    -501.56870261 Ry
     estimated scf accuracy    <       0.04589739 Ry

     iteration #  8     ecut=    30.00 Ry     beta= 0.50
     Davidson diagonalization with overlap
     ethr =  1.79E-05,  avg # of iterations =  2.0

     total cpu time spent up to now is        6.0 secs

     total energy              =    -501.57338423 Ry
     estimated scf accuracy    <       0.01434733 Ry

     iteration #  9     ecut=    30.00 Ry     beta= 0.50
     Davidson diagonalization with overlap
     c_bands:  1 eigenvalues not converged
     ethr =  5.60E-06,  avg # of iterations = 20.0

     total cpu time spent up to now is        6.2 secs

     total energy              =    -501.57451565 Ry
     estimated scf accuracy    <       0.00372790 Ry

     iteration # 10     ecut=    30.00 Ry     beta= 0.50
     Davidson diagonalization with overlap
     ethr =  1.46E-06,  avg # of iterations = 12.0

     total cpu time spent up to now is        6.4 secs

     total energy              =    -501.57484389 Ry
     estimated scf accuracy    <       0.00361622 Ry

     iteration # 11     ecut=    30.00 Ry     beta= 0.50
     Davidson diagonalization with overlap
     ethr =  1.41E-06,  avg # of iterations =  2.0

     total cpu time spent up to now is        6.5 secs

     total energy              =    -501.57510959 Ry
     estimated scf accuracy    <       0.00029256 Ry

     iteration # 12     ecut=    30.00 Ry     beta= 0.50
     Davidson diagonalization with overlap
     ethr =  1.14E-07,  avg # of iterations =  4.0

     total cpu time spent up to now is        6.6 secs

     total energy              =    -501.57516446 Ry
     estimated scf accuracy    <       0.00022143 Ry

     iteration # 13     ecut=    30.00 Ry     beta= 0.50
     Davidson diagonalization with overlap
     ethr =  8.65E-08,  avg # of iterations =  3.0

     total cpu time spent up to now is        6.7 secs

     total energy              =    -501.57517705 Ry
     estimated scf accuracy    <       0.00020799 Ry

     iteration # 14     ecut=    30.00 Ry     beta= 0.50
     Davidson diagonalization with overlap
     ethr =  8.12E-08,  avg # of iterations =  2.0

     total cpu time spent up to now is        6.8 secs

     total energy              =    -501.57519134 Ry
     estimated scf accuracy    <       0.00002658 Ry

     iteration # 15     ecut=    30.00 Ry     beta= 0.50
     Davidson diagonalization with overlap
     ethr =  1.04E-08,  avg # of iterations =  4.0

     total cpu time spent up to now is        6.9 secs

     total energy              =    -501.57519458 Ry
     estimated scf accuracy    <       0.00002568 Ry

     iteration # 16     ecut=    30.00 Ry     beta= 0.50
     Davidson diagonalization with overlap
     ethr =  1.00E-08,  avg # of iterations =  2.0

     total cpu time spent up to now is        7.0 secs

     total energy              =    -501.57519652 Ry
     estimated scf accuracy    <       0.00000444 Ry

     iteration # 17     ecut=    30.00 Ry     beta= 0.50
     Davidson diagonalization with overlap
     ethr =  1.74E-09,  avg # of iterations =  3.0

     total cpu time spent up to now is        7.1 secs

     total energy              =    -501.57519698 Ry
     estimated scf accuracy    <       0.00000327 Ry

     iteration # 18     ecut=    30.00 Ry     beta= 0.50
     Davidson diagonalization with overlap
     ethr =  1.28E-09,  avg # of iterations =  2.0

     total cpu time spent up to now is        7.2 secs

     total energy              =    -501.57519725 Ry
     estimated scf accuracy    <       0.00000143 Ry

     iteration # 19     ecut=    30.00 Ry     beta= 0.50
     Davidson diagonalization with overlap
     ethr =  5.59E-10,  avg # of iterations =  2.0

     total cpu time spent up to now is        7.3 secs

     End of self-consistent calculation

          k = 0.0000 0.0000 0.0000 ( 11492 PWs)   bands (ev):

    -5.5610  -4.6964  -4.5093  -4.4800  -4.3629  -4.2331  -4.0506  -3.6287
    -3.5829  -3.4133  -3.3718  -3.3472  -3.2840  -3.2293  -3.1565  -2.9922
    -2.8866  -2.7582  -2.6119  -2.4321  -2.3517  -2.1169  -1.9667  -1.9298
    -1.7894  -1.6508  -1.3859  -1.2130  -1.0548  -0.9855  -0.8719  -0.7225
    -0.6037  -0.4799  -0.3328  -0.2978  -0.1998  -0.0555  -0.0166   0.0192
     0.0762   0.1100   0.1990   0.2741   0.4333   0.4681   0.6483   0.6834
     0.7922   0.9289   0.9659   1.1497   1.2228   1.3195   1.3540   1.4238
     1.5484   1.6003   1.6620   1.8480   1.9245   2.0076   2.1072   2.2560
     2.3773   2.4711   2.5383   2.5982   2.6919   2.7277   2.7674   2.8137
     2.9554   3.0092   3.1087   3.1684   3.2493   3.3239   3.4437   3.4845
     3.7016   3.8764   4.0010   4.1030   4.1643   4.2457   4.3687   4.3974
     4.4790   4.5098   4.6341   4.7010   4.7433   4.7812   4.8259   4.8833
     5.0330   5.0505   5.1367   5.2209   5.2524   5.2944   5.3631   5.4050
     5.5081   5.5516   5.6088   5.6521   5.6653   5.6805   5.8217   5.8417
     5.8888   5.9561   5.9677   6.0830   6.1068   6.2639   6.2910   6.3195
     6.3512   6.4360   6.5380   6.5806   6.6339   6.6836   6.7893   6.8484
     6.9185   7.0001   7.0465   7.1081   7.1332   7.1603   7.2498   7.3034
     7.4194   7.4294   7.4790   7.5323   7.5839   7.6565   7.7501   7.8312
     7.8664   7.9370   8.0364   8.1292   8.1538   8.2703   8.3102   8.3608
     8.4308   8.5414

     the Fermi energy is     6.8716 ev

!    total energy              =    -501.57519711 Ry
     estimated scf accuracy    <       0.00000031 Ry
     smearing contrib. (-TS)   =      -0.14286217 Ry
     internal energy E=F+TS    =    -501.43233494 Ry

     The total energy is F=E-TS. E is the sum of the following terms:
     one-electron contribution =     172.87855694 Ry
     hartree contribution      =      29.47979759 Ry
     xc contribution           =    -150.88647924 Ry
     ewald contribution        =    -552.90421024 Ry

     convergence has been achieved in  19 iterations

     Forces acting on atoms (cartesian axes, Ry/au):

     atom    1 type  1   force =     0.03015717    0.01646526    0.00660607
     atom    2 type  1   force =     0.00066510    0.01746633    0.01142530
     atom    3 type  1   force =    -0.02461744    0.01769921    0.02183868
     atom    4 type  1   force =     0.02791660   -0.01895113   -0.00891201
     atom    5 type  1   force =    -0.02574071   -0.03169366    0.00393294
     atom    6 type  1   force =     0.02212595    0.00135198   -0.00188163
     atom    7 type  1   force =     0.02751173   -0.03943487    0.00317841
     atom    8 type  1   force =    -0.03597131    0.02442116   -0.03550409
     atom    9 type  1   force =    -0.01926629   -0.02630839    0.01219303
     atom   10 type  1   force =     0.01373315    0.03761482    0.02486723
     atom   11 type  1   force =     0.01469962   -0.01237686   -0.01731005
     atom   12 type  1   force =     0.01854823    0.01456726   -0.04449252
     atom   13 type  1   force =    -0.02632382   -0.01128395    0.02566289
     atom   14 type  1   force =    -0.01297678    0.01033542   -0.02528791
     atom   15 type  1   force =    -0.01021290    0.00151172   -0.01124109
     atom   16 type  1   force =    -0.01974663    0.00287361   -0.01024835
     atom   17 type  1   force =     0.02991357   -0.00811089    0.01105502
     atom   18 type  1   force =    -0.02804620    0.00086002    0.00792811
     atom   19 type  1   force =     0.03940498   -0.02611530    0.00217338
     atom   20 type  1   force =     0.02095623   -0.01135450    0.00140682
     atom   21 type  1   force =     0.00297175    0.01816332    0.01559741
     atom   22 type  1   force =    -0.02116798   -0.00173761   -0.01157291
     atom   23 type  1   force =     0.00690342   -0.00564012    0.01160764
     atom   24 type  1   force =    -0.00529772   -0.01016474    0.01011892
     atom   25 type  1   force =     0.02842643    0.00209595    0.01697230
     atom   26 type  1   force =    -0.00607780   -0.07672286    0.05684005
     atom   27 type  1   force =    -0.00862443    0.07351109   -0.00065792
     atom   28 type  1   force =     0.02210756    0.00597819    0.02327552
     atom   29 type  1   force =    -0.01081455   -0.03346100   -0.00112070
     atom   30 type  1   force =     0.02380983    0.01860724   -0.00134832
     atom   31 type  1   force =    -0.03102709   -0.00890612   -0.00905678
     atom   32 type  1   force =     0.00079671    0.00017059    0.01099664
     atom   33 type  1   force =    -0.02759723   -0.00882625    0.03332753
     atom   34 type  1   force =    -0.00405090    0.01184689   -0.02128400
     atom   35 type  1   force =    -0.05071308    0.00101215   -0.03915981
     atom   36 type  1   force =    -0.00178054   -0.01548860   -0.00274161
     atom   37 type  1   force =     0.01592968   -0.00157397    0.05824452
     atom   38 type  1   force =    -0.02345228    0.04200909   -0.01694751
     atom   39 type  1   force =     0.00329091    0.00088905   -0.03528383
     atom   40 type  1   force =    -0.00320431    0.03211326   -0.04615194
     atom   41 type  1   force =     0.02288494    0.01339402    0.00483939
     atom   42 type  1   force =     0.01103693   -0.05625435   -0.03366416
     atom   43 type  1   force =     0.02273163    0.04772745    0.00020779
     atom   44 type  1   force =    -0.00149845   -0.00169574   -0.04020810
     atom   45 type  1   force =     0.01591782   -0.01779171   -0.01225151
     atom   46 type  1   force =     0.01487890    0.04187707    0.01601991
     atom   47 type  1   force =     0.05356442    0.01168365    0.02165040
     atom   48 type  1   force =     0.01157751   -0.00297717    0.02127004
     atom   49 type  1   force =     0.01158863   -0.01362712    0.01172383
     atom   50 type  1   force =     0.05609505   -0.05362110    0.02972277
     atom   51 type  1   force =    -0.04229476   -0.01735216   -0.00555692
     atom   52 type  1   force =     0.01753752   -0.00508323   -0.00327340
     atom   53 type  1   force =     0.00553821   -0.01109204    0.00942490
     atom   54 type  1   force =    -0.04590831    0.01838817    0.00607309
     atom   55 type  1   force =    -0.02061683    0.02873189   -0.03020833
     atom   56 type  1   force =    -0.00442430   -0.03173803   -0.02495289
     atom   57 type  1   force =    -0.02656192    0.01818236   -0.00753471
     atom   58 type  1   force =    -0.01240209   -0.00073856    0.00907640
     atom   59 type  1   force =    -0.04346306   -0.01352428    0.01895930
     atom   60 type  1   force =    -0.02347402    0.02767906    0.02937815
     atom   61 type  1   force =    -0.00818996   -0.02828952   -0.00975807
     atom   62 type  1   force =    -0.01719688    0.01237530   -0.01319171
     atom   63 type  1   force =     0.01828215   -0.01387894   -0.02969079
     atom   64 type  1   force =     0.03123825    0.04421213    0.00289917

     Total force =     0.332668     Total SCF correction =     0.001118


     Computing stress (Cartesian axis) and pressure

          total   stress  (Ry/bohr**3)                   (kbar)     P=      -27.63
  -0.00023681   0.00000695  -0.00000547          -34.84        1.02       -0.80
   0.00000695  -0.00010744  -0.00001646            1.02      -15.81       -2.42
  -0.00000547  -0.00001646  -0.00021920           -0.80       -2.42      -32.24

 
     init_run     :      1.09s CPU      4.95s WALL (       1 calls)
     electrons    :      2.06s CPU      2.24s WALL (       1 calls)
     forces       :      0.04s CPU      0.04s WALL (       1 calls)
     stress       :      0.16s CPU      0.16s WALL (       1 calls)

     Called by init_run:
     wfcinit      :      0.55s CPU      4.23s WALL (       1 calls)
                                        4.23s GPU  (       1 calls)
     potinit      :      0.05s CPU      0.14s WALL (       1 calls)
     hinit0       :      0.47s CPU      0.50s WALL (       1 calls)

     Called by electrons:
     c_bands      :      1.24s CPU      1.32s WALL (      20 calls)
     sum_band     :      0.41s CPU      0.46s WALL (      20 calls)
     v_of_rho     :      0.19s CPU      0.29s WALL (      20 calls)
     mix_rho      :      0.19s CPU      0.21s WALL (      20 calls)

     Called by c_bands:
     init_us_2    :      0.07s CPU      0.08s WALL (      41 calls)
     init_us_2:gp :      0.07s CPU      0.08s WALL (      41 calls)
     regterg      :      1.07s CPU      1.15s WALL (      20 calls)

     Called by *egterg:
     rdiaghg      :      0.45s CPU      1.22s WALL (     101 calls)
                                        1.20s GPU  (     101 calls)
     h_psi        :      0.98s CPU      3.94s WALL (     103 calls)
                                        3.94s GPU  (     103 calls)
     g_psi        :      0.00s CPU      0.00s WALL (      82 calls)
                                        0.00s GPU  (      82 calls)

     Called by h_psi:
     h_psi:calbec :      0.52s CPU      3.40s WALL (     103 calls)
                                        3.40s GPU  (     103 calls)
     vloc_psi     :      0.39s CPU      0.47s WALL (     103 calls)
                                        0.46s GPU  (     103 calls)
     add_vuspsi   :      0.04s CPU      0.06s WALL (     103 calls)
                                        0.06s GPU  (     103 calls)

     General routines
     calbec       :      0.53s CPU      3.41s WALL (     108 calls)
     fft          :      0.63s CPU      0.77s WALL (     167 calls)
                                        0.14s GPU  (     106 calls)
     ffts         :      0.05s CPU      0.05s WALL (      20 calls)
     fftw         :      0.48s CPU      0.63s WALL (    2124 calls)
                                        0.55s GPU  (    2124 calls)
 
     Parallel routines
 
     PWSCF        :      3.39s CPU      7.47s WALL

 
   This run was terminated on:  10:43: 7  10May2023            

=------------------------------------------------------------------------------=
   JOB DONE.
=------------------------------------------------------------------------------=
