An instance of this daemon is already running
An instance of this daemon is already running

     Program PWSCF v.7.1 starts on 10May2023 at 10:37:30 

     This program is part of the open-source Quantum ESPRESSO suite
     for quantum simulation of materials; please cite
         "P. Giannozzi et al., J. Phys.:Condens. Matter 21 395502 (2009);
         "P. Giannozzi et al., J. Phys.:Condens. Matter 29 465901 (2017);
         "P. Giannozzi et al., J. Chem. Phys. 152 154105 (2020);
          URL http://www.quantum-espresso.org", 
     in publications or presentations arising from this work. More details at
     http://www.quantum-espresso.org/quote

     Parallel version (MPI & OpenMP), running on       4 processor cores
     Number of MPI processes:                 4
     Threads/MPI process:                     1

     MPI processes distributed on     1 nodes
     753587 MiB available memory on the printing compute node when the environment starts
 
     Reading input from pw-si-0.in
Warning: card &CELL ignored
Warning: card / ignored

     Current dimensions of program PWSCF are:
     Max number of different atomic species (ntypx) = 10
     Max number of k-points (npk) =  40000
     Max angular momentum in pseudopotentials (lmaxx) =  4

     IMPORTANT: XC functional enforced from input :
     Exchange-correlation= PBE
                           (   1   4   3   4   0   0   0)
     Any further DFT definition will be discarded
     Please, verify this is what you really want


     gamma-point specific algorithms are used
 
     K-points division:     npool     =       2
     R & G space division:  proc/nbgrp/npool/nimage =       2
     Subspace diagonalization in iterative solution of the eigenvalue problem:
     a serial algorithm will be used

     Message from routine divide_et_impera:
     suboptimal parallelization: some nodes have no k-points
 
     Parallelization info
     --------------------
     sticks:   dense  smooth     PW     G-vecs:    dense   smooth      PW
     Min        1904    1904    502                88752    88752   12054
     Max        1905    1905    503                88757    88757   12057
     Sum        3809    3809   1005               177509   177509   24111
 
     Using Slab Decomposition
 


     bravais-lattice index     =            0
     lattice parameter (alat)  =      19.9876  a.u.
     unit-cell volume          =    7985.1671 (a.u.)^3
     number of atoms/cell      =           64
     number of atomic types    =            1
     number of electrons       =       256.00
     number of Kohn-Sham states=          154
     kinetic-energy cutoff     =      30.0000  Ry
     charge density cutoff     =     120.0000  Ry
     scf convergence threshold =      1.0E-06
     mixing beta               =       0.5000
     number of iterations used =            8  plain     mixing
     Exchange-correlation= PBE
                           (   1   4   3   4   0   0   0)

     GPU acceleration is ACTIVE.
     GPU-aware MPI enabled

     Message from routine print_cuda_info:
     High GPU oversubscription detected. Are you sure this is what you want?

     celldm(1)=  19.987632  celldm(2)=   0.000000  celldm(3)=   0.000000
     celldm(4)=   0.000000  celldm(5)=   0.000000  celldm(6)=   0.000000

     crystal axes: (cart. coord. in units of alat)
               a(1) = (   1.000000   0.000000   0.000000 )  
               a(2) = (   0.000000   1.000000   0.000000 )  
               a(3) = (   0.000000   0.000000   1.000000 )  

     reciprocal axes: (cart. coord. in units 2 pi/alat)
               b(1) = (  1.000000  0.000000  0.000000 )  
               b(2) = (  0.000000  1.000000  0.000000 )  
               b(3) = (  0.000000  0.000000  1.000000 )  


     PseudoPot. # 1 for Si read from file:
     /home/ppiaggi/pseudos/Si_ONCV_PBE_sr.upf
     MD5 check sum: 8553c464762ac42b85b1eed164b4d029
     Pseudo is Norm-conserving, Zval =  4.0
     Generated using ONCVPSP code by D. R. Hamann
     Using radial grid of 1510 points,  4 beta functions with: 
                l(1) =   0
                l(2) =   0
                l(3) =   1
                l(4) =   1

     atomic species   valence    mass     pseudopotential
        Si             4.00    28.08500     Si( 1.00)

     No symmetry found



   Cartesian axes

     site n.     atom                  positions (alat units)
         1           Si  tau(   1) = (   0.7878340   0.8408200   0.6986520  )
         2           Si  tau(   2) = (   0.0537457   0.7688250   0.0811882  )
         3           Si  tau(   3) = (   0.6991510   0.5169400   0.0738813  )
         4           Si  tau(   4) = (   0.4639700   0.6102590   0.6803140  )
         5           Si  tau(   5) = (   0.0426664   0.5974670   0.2375340  )
         6           Si  tau(   6) = (   0.4160120   0.2919250   0.0540243  )
         7           Si  tau(   7) = (   0.9651340   0.1080780   0.4033670  )
         8           Si  tau(   8) = (   0.5891830   0.2211180   0.6984060  )
         9           Si  tau(   9) = (   0.0433265   0.9700170   0.5724550  )
        10           Si  tau(  10) = (   0.9589490   0.1549390   0.6985480  )
        11           Si  tau(  11) = (   0.3613120   0.9172810   0.3435180  )
        12           Si  tau(  12) = (   0.9317600   0.7717750   0.5384230  )
        13           Si  tau(  13) = (   0.8281590   0.2648200   0.5382940  )
        14           Si  tau(  14) = (   0.9540070   0.2676180   0.2184750  )
        15           Si  tau(  15) = (   0.4853650   0.0840858   0.2256180  )
        16           Si  tau(  16) = (   0.5673520   0.7254100   0.8795090  )
        17           Si  tau(  17) = (   0.7028490   0.2757900   0.9634480  )
        18           Si  tau(  18) = (   0.8267440   0.8248160   0.0258437  )
        19           Si  tau(  19) = (   0.6757880   0.4581670   0.7110320  )
        20           Si  tau(  20) = (   0.2514840   0.5416320   0.2421690  )
        21           Si  tau(  21) = (   0.1272390   0.3019450   0.4597610  )
        22           Si  tau(  22) = (   0.3032080   0.1053870   0.5749900  )
        23           Si  tau(  23) = (   0.2180760   0.5247860   0.7506210  )
        24           Si  tau(  24) = (   0.3669640   0.2599060   0.3544470  )
        25           Si  tau(  25) = (   0.6097760   0.0597253   0.8545830  )
        26           Si  tau(  26) = (   0.5432690   0.7411660   0.4257000  )
        27           Si  tau(  27) = (   0.1169360   0.9151590   0.3131820  )
        28           Si  tau(  28) = (   0.2456740   0.9289670   0.6971220  )
        29           Si  tau(  29) = (   0.0748172   0.6500350   0.9136530  )
        30           Si  tau(  30) = (   0.8480940   0.0185350   0.8555700  )
        31           Si  tau(  31) = (   0.7070670   0.0024729   0.1623250  )
        32           Si  tau(  32) = (   0.0543913   0.5899620   0.5738620  )
        33           Si  tau(  33) = (   0.1660860   0.2761800   0.6713500  )
        34           Si  tau(  34) = (   0.3104300   0.7983110   0.1470040  )
        35           Si  tau(  35) = (   0.5399860   0.8235530   0.1031870  )
        36           Si  tau(  36) = (   0.0420313   0.8669810   0.8279350  )
        37           Si  tau(  37) = (   0.9400550   0.4813060   0.0712199  )
        38           Si  tau(  38) = (   0.2498910   0.9839050   0.9512320  )
        39           Si  tau(  39) = (   0.6504880   0.5148230   0.4567530  )
        40           Si  tau(  40) = (   0.1043670   0.0318254   0.1217700  )
        41           Si  tau(  41) = (   0.4449590   0.4053760   0.5198500  )
        42           Si  tau(  42) = (   0.3196500   0.7675770   0.5489260  )
        43           Si  tau(  43) = (   0.4500730   0.4499070   0.2134160  )
        44           Si  tau(  44) = (   0.7398240   0.4049000   0.2802920  )
        45           Si  tau(  45) = (   0.9150940   0.4598600   0.7064280  )
        46           Si  tau(  46) = (   0.8809960   0.1150470   0.0665134  )
        47           Si  tau(  47) = (   0.6934760   0.6985020   0.2353390  )
        48           Si  tau(  48) = (   0.1863540   0.3891970   0.0196128  )
        49           Si  tau(  49) = (   0.8167640   0.6268900   0.8468720  )
        50           Si  tau(  50) = (   0.1856410   0.1899090   0.8817690  )
        51           Si  tau(  51) = (   0.6343550   0.2116240   0.3568350  )
        52           Si  tau(  52) = (   0.9598020   0.3059610   0.8981090  )
        53           Si  tau(  53) = (   0.6427190   0.8987570   0.5212550  )
        54           Si  tau(  54) = (   0.9390010   0.4569180   0.4227450  )
        55           Si  tau(  55) = (   0.2061640   0.2237640   0.2155820  )
        56           Si  tau(  56) = (   0.8831840   0.7797910   0.3175120  )
        57           Si  tau(  57) = (   0.4600180   0.0465588   0.0019405  )
        58           Si  tau(  58) = (   0.3970110   0.3100240   0.7561440  )
        59           Si  tau(  59) = (   0.4929810   0.4859170   0.9263760  )
        60           Si  tau(  60) = (   0.5086890   0.8851790   0.7572100  )
        61           Si  tau(  61) = (   0.7700720   0.0145349   0.3711320  )
        62           Si  tau(  62) = (   0.3048320   0.6071460   0.9840510  )
        63           Si  tau(  63) = (   0.2573290   0.5425510   0.4718450  )
        64           Si  tau(  64) = (   0.5196000   0.0963185   0.5271760  )

     number of k points=     1  Fermi-Dirac smearing, width (Ry)=  0.0100
                       cart. coord. in units 2pi/alat
        k(    1) = (   0.0000000   0.0000000   0.0000000), wk =   2.0000000

     Dense  grid:    88755 G-vectors     FFT dimensions: (  72,  72,  72)

     Estimated max dynamical RAM per process >     142.64 MB

     Estimated total dynamical RAM >     548.91 MB

     Initial potential from superposition of free atoms

     starting charge     255.9608, renormalised to     256.0000
     Starting wfcs are  256 randomized atomic wfcs

     total cpu time spent up to now is        5.2 secs

     Self-consistent Calculation

     iteration #  1     ecut=    30.00 Ry     beta= 0.50
     Davidson diagonalization with overlap
     ethr =  1.00E-02,  avg # of iterations =  3.0

     Threshold (ethr) on eigenvalues was too large:
     Diagonalizing with lowered threshold

     Davidson diagonalization with overlap
     ethr =  4.34E-04,  avg # of iterations =  4.0

     total cpu time spent up to now is        5.5 secs

     total energy              =    -501.11228062 Ry
     estimated scf accuracy    <       1.31361889 Ry

     iteration #  2     ecut=    30.00 Ry     beta= 0.50
     Davidson diagonalization with overlap
     ethr =  5.13E-04,  avg # of iterations =  5.0

     total cpu time spent up to now is        5.6 secs

     total energy              =    -500.36026572 Ry
     estimated scf accuracy    <      11.02756103 Ry

     iteration #  3     ecut=    30.00 Ry     beta= 0.50
     Davidson diagonalization with overlap
     ethr =  5.13E-04,  avg # of iterations =  5.0

     total cpu time spent up to now is        5.7 secs

     total energy              =    -501.28148056 Ry
     estimated scf accuracy    <       1.68392008 Ry

     iteration #  4     ecut=    30.00 Ry     beta= 0.50
     Davidson diagonalization with overlap
     ethr =  5.13E-04,  avg # of iterations =  2.0

     total cpu time spent up to now is        5.8 secs

     total energy              =    -501.38700103 Ry
     estimated scf accuracy    <       0.63313708 Ry

     iteration #  5     ecut=    30.00 Ry     beta= 0.50
     Davidson diagonalization with overlap
     ethr =  2.47E-04,  avg # of iterations =  2.0

     total cpu time spent up to now is        5.9 secs

     total energy              =    -501.41751100 Ry
     estimated scf accuracy    <       0.49663882 Ry

     iteration #  6     ecut=    30.00 Ry     beta= 0.50
     Davidson diagonalization with overlap
     ethr =  1.94E-04,  avg # of iterations =  2.0

     total cpu time spent up to now is        6.0 secs

     total energy              =    -501.46074004 Ry
     estimated scf accuracy    <       0.09446599 Ry

     iteration #  7     ecut=    30.00 Ry     beta= 0.50
     Davidson diagonalization with overlap
     ethr =  3.69E-05,  avg # of iterations = 17.0

     total cpu time spent up to now is        6.2 secs

     total energy              =    -501.46922629 Ry
     estimated scf accuracy    <       0.04340179 Ry

     iteration #  8     ecut=    30.00 Ry     beta= 0.50
     Davidson diagonalization with overlap
     ethr =  1.70E-05,  avg # of iterations =  2.0

     total cpu time spent up to now is        6.3 secs

     total energy              =    -501.47380186 Ry
     estimated scf accuracy    <       0.01413307 Ry

     iteration #  9     ecut=    30.00 Ry     beta= 0.50
     Davidson diagonalization with overlap
     ethr =  5.52E-06,  avg # of iterations = 10.0

     total cpu time spent up to now is        6.4 secs

     total energy              =    -501.47517400 Ry
     estimated scf accuracy    <       0.00200113 Ry

     iteration # 10     ecut=    30.00 Ry     beta= 0.50
     Davidson diagonalization with overlap
     ethr =  7.82E-07,  avg # of iterations =  8.0

     total cpu time spent up to now is        6.6 secs

     total energy              =    -501.47548091 Ry
     estimated scf accuracy    <       0.00031907 Ry

     iteration # 11     ecut=    30.00 Ry     beta= 0.50
     Davidson diagonalization with overlap
     ethr =  1.25E-07,  avg # of iterations =  5.0

     total cpu time spent up to now is        6.7 secs

     total energy              =    -501.47546889 Ry
     estimated scf accuracy    <       0.00080529 Ry

     iteration # 12     ecut=    30.00 Ry     beta= 0.50
     Davidson diagonalization with overlap
     ethr =  1.25E-07,  avg # of iterations =  3.0

     total cpu time spent up to now is        6.8 secs

     total energy              =    -501.47554006 Ry
     estimated scf accuracy    <       0.00025829 Ry

     iteration # 13     ecut=    30.00 Ry     beta= 0.50
     Davidson diagonalization with overlap
     ethr =  1.01E-07,  avg # of iterations =  2.0

     total cpu time spent up to now is        6.9 secs

     total energy              =    -501.47555868 Ry
     estimated scf accuracy    <       0.00007850 Ry

     iteration # 14     ecut=    30.00 Ry     beta= 0.50
     Davidson diagonalization with overlap
     ethr =  3.07E-08,  avg # of iterations =  2.0

     total cpu time spent up to now is        7.0 secs

     total energy              =    -501.47556567 Ry
     estimated scf accuracy    <       0.00002108 Ry

     iteration # 15     ecut=    30.00 Ry     beta= 0.50
     Davidson diagonalization with overlap
     ethr =  8.24E-09,  avg # of iterations =  3.0

     total cpu time spent up to now is        7.1 secs

     total energy              =    -501.47556690 Ry
     estimated scf accuracy    <       0.00002361 Ry

     iteration # 16     ecut=    30.00 Ry     beta= 0.50
     Davidson diagonalization with overlap
     ethr =  8.24E-09,  avg # of iterations =  2.0

     total cpu time spent up to now is        7.2 secs

     total energy              =    -501.47556874 Ry
     estimated scf accuracy    <       0.00000381 Ry

     iteration # 17     ecut=    30.00 Ry     beta= 0.50
     Davidson diagonalization with overlap
     ethr =  1.49E-09,  avg # of iterations =  2.0

     total cpu time spent up to now is        7.3 secs

     total energy              =    -501.47556919 Ry
     estimated scf accuracy    <       0.00000285 Ry

     iteration # 18     ecut=    30.00 Ry     beta= 0.50
     Davidson diagonalization with overlap
     ethr =  1.11E-09,  avg # of iterations =  2.0

     total cpu time spent up to now is        7.3 secs

     End of self-consistent calculation

          k = 0.0000 0.0000 0.0000 ( 11060 PWs)   bands (ev):

    -5.2121  -4.2191  -4.1659  -4.0722  -3.9639  -3.8642  -3.6849  -3.1938
    -3.0671  -3.0162  -2.9403  -2.8366  -2.8167  -2.7798  -2.7204  -2.6159
    -2.5132  -2.4304  -2.3690  -1.9311  -1.8170  -1.7804  -1.6030  -1.4988
    -1.4656  -1.2504  -1.1535  -0.6390  -0.5662  -0.4176  -0.2931  -0.2346
    -0.1771   0.1175   0.2098   0.2646   0.3276   0.3906   0.4608   0.5732
     0.6405   0.6911   0.7630   0.8177   0.8745   0.9274   0.9831   1.1599
     1.2299   1.2852   1.4081   1.4410   1.5526   1.6934   1.7989   1.9012
     1.9616   2.0519   2.0888   2.2292   2.3300   2.4210   2.5001   2.5499
     2.6025   2.7268   2.7880   2.8514   2.9571   3.0013   3.1538   3.2125
     3.2889   3.3492   3.4072   3.4615   3.5833   3.6825   3.7257   3.7975
     3.9456   4.4067   4.5784   4.6636   4.7222   4.7489   4.8156   4.8835
     4.9899   5.0771   5.0999   5.2066   5.2742   5.3302   5.3755   5.4000
     5.4689   5.5487   5.5716   5.6757   5.7473   5.7731   5.8798   5.9543
     5.9911   6.0415   6.1144   6.1550   6.1988   6.2957   6.3491   6.3932
     6.4323   6.5253   6.5471   6.5841   6.6303   6.6564   6.7156   6.8347
     6.9146   6.9948   7.0460   7.0862   7.1144   7.2278   7.2960   7.3316
     7.3763   7.4110   7.4365   7.5001   7.5550   7.7108   7.8068   7.8414
     7.8827   7.9517   7.9982   8.0958   8.1618   8.2060   8.2370   8.2945
     8.3339   8.3875   8.4695   8.5283   8.5821   8.6269   8.7167   8.8066
     8.8523   8.8969

     the Fermi energy is     7.3441 ev

!    total energy              =    -501.47556901 Ry
     estimated scf accuracy    <       0.00000055 Ry
     smearing contrib. (-TS)   =      -0.15356602 Ry
     internal energy E=F+TS    =    -501.32200299 Ry

     The total energy is F=E-TS. E is the sum of the following terms:
     one-electron contribution =     199.08950225 Ry
     hartree contribution      =      20.73491988 Ry
     xc contribution           =    -151.10617607 Ry
     ewald contribution        =    -570.04024905 Ry

     convergence has been achieved in  18 iterations

     Forces acting on atoms (cartesian axes, Ry/au):

     atom    1 type  1   force =    -0.01853506   -0.02092183    0.00510884
     atom    2 type  1   force =    -0.01232734    0.04688344    0.06906717
     atom    3 type  1   force =     0.01658790    0.00547132    0.00443510
     atom    4 type  1   force =    -0.02941967    0.00845501   -0.00100723
     atom    5 type  1   force =    -0.06472593    0.01078690    0.00351764
     atom    6 type  1   force =    -0.02022998   -0.02046042   -0.00500185
     atom    7 type  1   force =     0.03847780    0.02250624   -0.00915929
     atom    8 type  1   force =     0.03370535    0.02542932   -0.00443390
     atom    9 type  1   force =     0.00742338    0.00499719    0.00668070
     atom   10 type  1   force =     0.00463897   -0.01876547   -0.00158233
     atom   11 type  1   force =    -0.00842475   -0.01401802    0.00834518
     atom   12 type  1   force =     0.00259551    0.01210024   -0.00078695
     atom   13 type  1   force =     0.00604204    0.02377713    0.00591571
     atom   14 type  1   force =     0.01157829    0.01756121    0.01369421
     atom   15 type  1   force =    -0.00331882   -0.00212963    0.00583015
     atom   16 type  1   force =     0.02688955   -0.06564144    0.03182718
     atom   17 type  1   force =     0.02359143   -0.01204328    0.00107513
     atom   18 type  1   force =     0.00322767    0.00454271   -0.02022014
     atom   19 type  1   force =     0.00061517   -0.02488264   -0.02064165
     atom   20 type  1   force =     0.02489965    0.02965328   -0.00310778
     atom   21 type  1   force =    -0.02949721    0.00953153   -0.05883971
     atom   22 type  1   force =    -0.01348327    0.01184344   -0.01079459
     atom   23 type  1   force =     0.00550869   -0.00854139    0.00840871
     atom   24 type  1   force =     0.02406066   -0.00501104    0.01682559
     atom   25 type  1   force =     0.07801078    0.02486167   -0.01544623
     atom   26 type  1   force =    -0.02523732   -0.07855261   -0.01893117
     atom   27 type  1   force =    -0.01898450    0.00209528    0.00997444
     atom   28 type  1   force =     0.00329226   -0.01362920   -0.00302600
     atom   29 type  1   force =     0.00590326   -0.03489963   -0.06991059
     atom   30 type  1   force =    -0.01242273   -0.03155100    0.00196006
     atom   31 type  1   force =    -0.02275974   -0.02020037   -0.01533763
     atom   32 type  1   force =    -0.00394883    0.00069188    0.00508610
     atom   33 type  1   force =     0.01700648    0.00384916    0.03029943
     atom   34 type  1   force =     0.00101765   -0.03332193   -0.01107886
     atom   35 type  1   force =     0.01069715    0.00835652   -0.02144131
     atom   36 type  1   force =     0.01117257   -0.00309023    0.00699941
     atom   37 type  1   force =     0.00157711   -0.02229251   -0.00305645
     atom   38 type  1   force =    -0.02137782   -0.00584955    0.00122391
     atom   39 type  1   force =    -0.05018136    0.02184401    0.03136860
     atom   40 type  1   force =    -0.00881809    0.02685076    0.00505163
     atom   41 type  1   force =    -0.00296357    0.02641264    0.02139782
     atom   42 type  1   force =     0.03022290   -0.03709700   -0.02490196
     atom   43 type  1   force =     0.02289855   -0.02692102    0.01261092
     atom   44 type  1   force =     0.01848421   -0.02117104   -0.00259348
     atom   45 type  1   force =    -0.00118950   -0.01799445    0.01255318
     atom   46 type  1   force =     0.01452370    0.00778788   -0.00859496
     atom   47 type  1   force =    -0.03046412   -0.01376305   -0.02663519
     atom   48 type  1   force =    -0.00554386   -0.00860947    0.00522958
     atom   49 type  1   force =    -0.01491595    0.04894617    0.00998723
     atom   50 type  1   force =     0.00045354    0.03349294    0.00053172
     atom   51 type  1   force =     0.00596223   -0.02012759    0.02082531
     atom   52 type  1   force =    -0.01027514    0.01181608    0.00136163
     atom   53 type  1   force =     0.03509875    0.06267423    0.05604657
     atom   54 type  1   force =     0.02044155   -0.03313236   -0.01590150
     atom   55 type  1   force =    -0.05071315    0.00564471   -0.05161017
     atom   56 type  1   force =     0.03519245    0.01217188    0.00591962
     atom   57 type  1   force =    -0.02969648    0.00655892    0.05953229
     atom   58 type  1   force =    -0.02764088    0.02836010   -0.01238109
     atom   59 type  1   force =     0.01427072    0.02088000   -0.00472946
     atom   60 type  1   force =    -0.02455297    0.03457475   -0.05819491
     atom   61 type  1   force =     0.00302691   -0.01517464    0.02321341
     atom   62 type  1   force =    -0.01775741    0.00154763    0.00897652
     atom   63 type  1   force =     0.00620562    0.01795415    0.01241630
     atom   64 type  1   force =     0.01410500   -0.01111753   -0.02395061

     Total force =     0.337615     Total SCF correction =     0.001516


     Computing stress (Cartesian axis) and pressure

          total   stress  (Ry/bohr**3)                   (kbar)     P=      -28.36
  -0.00032798  -0.00002710   0.00007081          -48.25       -3.99       10.42
  -0.00002710  -0.00017947   0.00002851           -3.99      -26.40        4.19
   0.00007081   0.00002851  -0.00007090           10.42        4.19      -10.43

 
     init_run     :      1.08s CPU      5.13s WALL (       1 calls)
     electrons    :      1.98s CPU      2.13s WALL (       1 calls)
     forces       :      0.04s CPU      0.04s WALL (       1 calls)
     stress       :      0.15s CPU      0.15s WALL (       1 calls)

     Called by init_run:
     wfcinit      :      0.54s CPU      4.42s WALL (       1 calls)
                                        4.42s GPU  (       1 calls)
     potinit      :      0.05s CPU      0.14s WALL (       1 calls)
     hinit0       :      0.47s CPU      0.50s WALL (       1 calls)

     Called by electrons:
     c_bands      :      1.22s CPU      1.29s WALL (      19 calls)
     sum_band     :      0.37s CPU      0.42s WALL (      19 calls)
     v_of_rho     :      0.18s CPU      0.28s WALL (      19 calls)
     mix_rho      :      0.17s CPU      0.19s WALL (      19 calls)

     Called by c_bands:
     init_us_2    :      0.07s CPU      0.07s WALL (      39 calls)
     init_us_2:gp :      0.07s CPU      0.07s WALL (      39 calls)
     regterg      :      1.06s CPU      1.12s WALL (      19 calls)

     Called by *egterg:
     rdiaghg      :      0.46s CPU      1.32s WALL (      99 calls)
                                        1.30s GPU  (      99 calls)
     h_psi        :      0.95s CPU      4.02s WALL (     101 calls)
                                        4.01s GPU  (     101 calls)
     g_psi        :      0.00s CPU      0.00s WALL (      81 calls)
                                        0.00s GPU  (      81 calls)

     Called by h_psi:
     h_psi:calbec :      0.51s CPU      3.49s WALL (     101 calls)
                                        3.49s GPU  (     101 calls)
     vloc_psi     :      0.38s CPU      0.45s WALL (     101 calls)
                                        0.45s GPU  (     101 calls)
     add_vuspsi   :      0.04s CPU      0.06s WALL (     101 calls)
                                        0.06s GPU  (     101 calls)

     General routines
     calbec       :      0.52s CPU      3.50s WALL (     106 calls)
     fft          :      0.62s CPU      0.75s WALL (     159 calls)
                                        0.13s GPU  (     101 calls)
     ffts         :      0.05s CPU      0.05s WALL (      19 calls)
     fftw         :      0.46s CPU      0.60s WALL (    2031 calls)
                                        0.53s GPU  (    2031 calls)
 
     Parallel routines
 
     PWSCF        :      3.30s CPU      7.54s WALL

 
   This run was terminated on:  10:37:37  10May2023            

=------------------------------------------------------------------------------=
   JOB DONE.
=------------------------------------------------------------------------------=
