An instance of this daemon is already running

     Program PWSCF v.7.1 starts on 10May2023 at 10:41:14 

     This program is part of the open-source Quantum ESPRESSO suite
     for quantum simulation of materials; please cite
         "P. Giannozzi et al., J. Phys.:Condens. Matter 21 395502 (2009);
         "P. Giannozzi et al., J. Phys.:Condens. Matter 29 465901 (2017);
         "P. Giannozzi et al., J. Chem. Phys. 152 154105 (2020);
          URL http://www.quantum-espresso.org", 
     in publications or presentations arising from this work. More details at
     http://www.quantum-espresso.org/quote

     Parallel version (MPI & OpenMP), running on       4 processor cores
     Number of MPI processes:                 4
     Threads/MPI process:                     1

     MPI processes distributed on     1 nodes
     753563 MiB available memory on the printing compute node when the environment starts
 
     Reading input from pw-si-23.in
Warning: card &CELL ignored
Warning: card / ignored

     Current dimensions of program PWSCF are:
     Max number of different atomic species (ntypx) = 10
     Max number of k-points (npk) =  40000
     Max angular momentum in pseudopotentials (lmaxx) =  4

     IMPORTANT: XC functional enforced from input :
     Exchange-correlation= PBE
                           (   1   4   3   4   0   0   0)
     Any further DFT definition will be discarded
     Please, verify this is what you really want


     gamma-point specific algorithms are used
 
     K-points division:     npool     =       2
     R & G space division:  proc/nbgrp/npool/nimage =       2
     Subspace diagonalization in iterative solution of the eigenvalue problem:
     a serial algorithm will be used

     Message from routine divide_et_impera:
     suboptimal parallelization: some nodes have no k-points
 
     Parallelization info
     --------------------
     sticks:   dense  smooth     PW     G-vecs:    dense   smooth      PW
     Min        1929    1929    504                90123    90123   12201
     Max        1932    1932    505                90128    90128   12204
     Sum        3861    3861   1009               180251   180251   24405
 
     Using Slab Decomposition
 


     bravais-lattice index     =            0
     lattice parameter (alat)  =      20.1060  a.u.
     unit-cell volume          =    8127.8516 (a.u.)^3
     number of atoms/cell      =           64
     number of atomic types    =            1
     number of electrons       =       256.00
     number of Kohn-Sham states=          154
     kinetic-energy cutoff     =      30.0000  Ry
     charge density cutoff     =     120.0000  Ry
     scf convergence threshold =      1.0E-06
     mixing beta               =       0.5000
     number of iterations used =            8  plain     mixing
     Exchange-correlation= PBE
                           (   1   4   3   4   0   0   0)

     GPU acceleration is ACTIVE.
     GPU-aware MPI enabled

     Message from routine print_cuda_info:
     High GPU oversubscription detected. Are you sure this is what you want?

     celldm(1)=  20.105980  celldm(2)=   0.000000  celldm(3)=   0.000000
     celldm(4)=   0.000000  celldm(5)=   0.000000  celldm(6)=   0.000000

     crystal axes: (cart. coord. in units of alat)
               a(1) = (   1.000000   0.000000   0.000000 )  
               a(2) = (   0.000000   1.000000   0.000000 )  
               a(3) = (   0.000000   0.000000   1.000000 )  

     reciprocal axes: (cart. coord. in units 2 pi/alat)
               b(1) = (  1.000000  0.000000  0.000000 )  
               b(2) = (  0.000000  1.000000  0.000000 )  
               b(3) = (  0.000000  0.000000  1.000000 )  


     PseudoPot. # 1 for Si read from file:
     /home/ppiaggi/pseudos/Si_ONCV_PBE_sr.upf
     MD5 check sum: 8553c464762ac42b85b1eed164b4d029
     Pseudo is Norm-conserving, Zval =  4.0
     Generated using ONCVPSP code by D. R. Hamann
     Using radial grid of 1510 points,  4 beta functions with: 
                l(1) =   0
                l(2) =   0
                l(3) =   1
                l(4) =   1

     atomic species   valence    mass     pseudopotential
        Si             4.00    28.08500     Si( 1.00)

     No symmetry found



   Cartesian axes

     site n.     atom                  positions (alat units)
         1           Si  tau(   1) = (   0.0747056   0.4654670   0.1559730  )
         2           Si  tau(   2) = (   0.9322190   0.9979480   0.7987520  )
         3           Si  tau(   3) = (   0.8329220   0.2962690   0.9223470  )
         4           Si  tau(   4) = (   0.8668170   0.3118420   0.2491730  )
         5           Si  tau(   5) = (   0.6448470   0.5708710   0.7482000  )
         6           Si  tau(   6) = (   0.1371740   0.3797450   0.9457960  )
         7           Si  tau(   7) = (   0.3885810   0.5504130   0.0433003  )
         8           Si  tau(   8) = (   0.4902990   0.6784950   0.5679670  )
         9           Si  tau(   9) = (   0.3737380   0.5029090   0.6761970  )
        10           Si  tau(  10) = (   0.7393140   0.8257710   0.9313610  )
        11           Si  tau(  11) = (   0.3405450   0.2603850   0.9034470  )
        12           Si  tau(  12) = (   0.3204700   0.0760109   0.3506370  )
        13           Si  tau(  13) = (   0.9658660   0.4856570   0.8310890  )
        14           Si  tau(  14) = (   0.5668820   0.3711720   0.4106680  )
        15           Si  tau(  15) = (   0.4498930   0.1114370   0.7342210  )
        16           Si  tau(  16) = (   0.4238050   0.7907310   0.8783520  )
        17           Si  tau(  17) = (   0.6215530   0.8236480   0.7287360  )
        18           Si  tau(  18) = (   0.8153430   0.9997340   0.0794432  )
        19           Si  tau(  19) = (   0.2598720   0.5586540   0.8507320  )
        20           Si  tau(  20) = (   0.9546740   0.4544760   0.4025400  )
        21           Si  tau(  21) = (   0.1095950   0.1647520   0.8132480  )
        22           Si  tau(  22) = (   0.5903210   0.0243597   0.9123470  )
        23           Si  tau(  23) = (   0.8736900   0.6062310   0.1660200  )
        24           Si  tau(  24) = (   0.5587060   0.6226830   0.3744410  )
        25           Si  tau(  25) = (   0.1733180   0.1518680   0.1392660  )
        26           Si  tau(  26) = (   0.7613940   0.5540910   0.5403760  )
        27           Si  tau(  27) = (   0.5446690   0.9782500   0.5774680  )
        28           Si  tau(  28) = (   0.1145930   0.6566880   0.4364420  )
        29           Si  tau(  29) = (   0.6386990   0.3430720   0.0093399  )
        30           Si  tau(  30) = (   0.7553890   0.0982190   0.5658030  )
        31           Si  tau(  31) = (   0.3618250   0.2877130   0.3788000  )
        32           Si  tau(  32) = (   0.6490190   0.1735450   0.3003220  )
        33           Si  tau(  33) = (   0.8690000   0.3756360   0.6546970  )
        34           Si  tau(  34) = (   0.0283247   0.2688680   0.5005040  )
        35           Si  tau(  35) = (   0.2147330   0.4891910   0.3289530  )
        36           Si  tau(  36) = (   0.4039800   0.9432580   0.1289340  )
        37           Si  tau(  37) = (   0.7442140   0.1465960   0.7938390  )
        38           Si  tau(  38) = (   0.6365760   0.3007990   0.6056570  )
        39           Si  tau(  39) = (   0.6830980   0.4579590   0.1880990  )
        40           Si  tau(  40) = (   0.3795650   0.6563760   0.2603610  )
        41           Si  tau(  41) = (   0.5808060   0.6017730   0.0200904  )
        42           Si  tau(  42) = (   0.3481130   0.3251110   0.1479880  )
        43           Si  tau(  43) = (   0.9216390   0.6795410   0.9620890  )
        44           Si  tau(  44) = (   0.8222000   0.0333439   0.3240830  )
        45           Si  tau(  45) = (   0.5781480   0.7854250   0.0940593  )
        46           Si  tau(  46) = (   0.5410720   0.3764490   0.7975870  )
        47           Si  tau(  47) = (   0.1750010   0.9024490   0.4781580  )
        48           Si  tau(  48) = (   0.9141060   0.7723430   0.3274040  )
        49           Si  tau(  49) = (   0.9319060   0.9083340   0.5718360  )
        50           Si  tau(  50) = (   0.5591940   0.9592260   0.3585040  )
        51           Si  tau(  51) = (   0.0373682   0.0880549   0.3813370  )
        52           Si  tau(  52) = (   0.0557258   0.5938320   0.6265380  )
        53           Si  tau(  53) = (   0.3411160   0.8423240   0.6306170  )
        54           Si  tau(  54) = (   0.8834000   0.7231680   0.7015640  )
        55           Si  tau(  55) = (   0.6819510   0.7856460   0.2890950  )
        56           Si  tau(  56) = (   0.2448940   0.1249970   0.6009030  )
        57           Si  tau(  57) = (   0.9571220   0.1943000   0.0720796  )
        58           Si  tau(  58) = (   0.0638543   0.8841550   0.9350590  )
        59           Si  tau(  59) = (   0.5340490   0.1657850   0.1096890  )
        60           Si  tau(  60) = (   0.0375005   0.9030370   0.1540980  )
        61           Si  tau(  61) = (   0.2421400   0.3722090   0.5530740  )
        62           Si  tau(  62) = (   0.2285460   0.8365220   0.2702020  )
        63           Si  tau(  63) = (   0.1888390   0.7732980   0.7775640  )
        64           Si  tau(  64) = (   0.2733150   0.0158047   0.9504300  )

     number of k points=     1  Fermi-Dirac smearing, width (Ry)=  0.0100
                       cart. coord. in units 2pi/alat
        k(    1) = (   0.0000000   0.0000000   0.0000000), wk =   2.0000000

     Dense  grid:    90126 G-vectors     FFT dimensions: (  72,  72,  72)

     Estimated max dynamical RAM per process >     144.86 MB

     Estimated total dynamical RAM >     557.46 MB

     Initial potential from superposition of free atoms

     starting charge     255.9608, renormalised to     256.0000
     Starting wfcs are  256 randomized atomic wfcs

     total cpu time spent up to now is        5.0 secs

     Self-consistent Calculation

     iteration #  1     ecut=    30.00 Ry     beta= 0.50
     Davidson diagonalization with overlap
     ethr =  1.00E-02,  avg # of iterations =  3.0

     Threshold (ethr) on eigenvalues was too large:
     Diagonalizing with lowered threshold

     Davidson diagonalization with overlap
     ethr =  4.33E-04,  avg # of iterations =  4.0

     total cpu time spent up to now is        5.3 secs

     total energy              =    -501.36603626 Ry
     estimated scf accuracy    <       1.31452742 Ry

     iteration #  2     ecut=    30.00 Ry     beta= 0.50
     Davidson diagonalization with overlap
     ethr =  5.13E-04,  avg # of iterations =  5.0

     total cpu time spent up to now is        5.4 secs

     total energy              =    -500.84172685 Ry
     estimated scf accuracy    <       6.03564477 Ry

     iteration #  3     ecut=    30.00 Ry     beta= 0.50
     Davidson diagonalization with overlap
     ethr =  5.13E-04,  avg # of iterations =  5.0

     total cpu time spent up to now is        5.5 secs

     total energy              =    -501.45766020 Ry
     estimated scf accuracy    <       1.86784161 Ry

     iteration #  4     ecut=    30.00 Ry     beta= 0.50
     Davidson diagonalization with overlap
     ethr =  5.13E-04,  avg # of iterations =  2.0

     total cpu time spent up to now is        5.6 secs

     total energy              =    -501.57024696 Ry
     estimated scf accuracy    <       0.56159407 Ry

     iteration #  5     ecut=    30.00 Ry     beta= 0.50
     Davidson diagonalization with overlap
     ethr =  2.19E-04,  avg # of iterations =  2.0

     total cpu time spent up to now is        5.7 secs

     total energy              =    -501.60546704 Ry
     estimated scf accuracy    <       0.35571308 Ry

     iteration #  6     ecut=    30.00 Ry     beta= 0.50
     Davidson diagonalization with overlap
     ethr =  1.39E-04,  avg # of iterations =  2.0

     total cpu time spent up to now is        5.8 secs

     total energy              =    -501.64078589 Ry
     estimated scf accuracy    <       0.09826101 Ry

     iteration #  7     ecut=    30.00 Ry     beta= 0.50
     Davidson diagonalization with overlap
     ethr =  3.84E-05,  avg # of iterations =  2.0

     total cpu time spent up to now is        5.9 secs

     total energy              =    -501.64984272 Ry
     estimated scf accuracy    <       0.01316529 Ry

     iteration #  8     ecut=    30.00 Ry     beta= 0.50
     Davidson diagonalization with overlap
     ethr =  5.14E-06,  avg # of iterations = 11.0

     total cpu time spent up to now is        6.1 secs

     total energy              =    -501.65124260 Ry
     estimated scf accuracy    <       0.01956026 Ry

     iteration #  9     ecut=    30.00 Ry     beta= 0.50
     Davidson diagonalization with overlap
     ethr =  5.14E-06,  avg # of iterations =  2.0

     total cpu time spent up to now is        6.2 secs

     total energy              =    -501.65300988 Ry
     estimated scf accuracy    <       0.00102087 Ry

     iteration # 10     ecut=    30.00 Ry     beta= 0.50
     Davidson diagonalization with overlap
     ethr =  3.99E-07,  avg # of iterations =  4.0

     total cpu time spent up to now is        6.3 secs

     total energy              =    -501.65313698 Ry
     estimated scf accuracy    <       0.00087523 Ry

     iteration # 11     ecut=    30.00 Ry     beta= 0.50
     Davidson diagonalization with overlap
     ethr =  3.42E-07,  avg # of iterations =  3.0

     total cpu time spent up to now is        6.4 secs

     total energy              =    -501.65318912 Ry
     estimated scf accuracy    <       0.00052343 Ry

     iteration # 12     ecut=    30.00 Ry     beta= 0.50
     Davidson diagonalization with overlap
     ethr =  2.04E-07,  avg # of iterations =  2.0

     total cpu time spent up to now is        6.5 secs

     total energy              =    -501.65323838 Ry
     estimated scf accuracy    <       0.00023155 Ry

     iteration # 13     ecut=    30.00 Ry     beta= 0.50
     Davidson diagonalization with overlap
     ethr =  9.05E-08,  avg # of iterations =  2.0

     total cpu time spent up to now is        6.6 secs

     total energy              =    -501.65325655 Ry
     estimated scf accuracy    <       0.00003879 Ry

     iteration # 14     ecut=    30.00 Ry     beta= 0.50
     Davidson diagonalization with overlap
     ethr =  1.52E-08,  avg # of iterations =  2.0

     total cpu time spent up to now is        6.7 secs

     total energy              =    -501.65326140 Ry
     estimated scf accuracy    <       0.00001841 Ry

     iteration # 15     ecut=    30.00 Ry     beta= 0.50
     Davidson diagonalization with overlap
     ethr =  7.19E-09,  avg # of iterations =  2.0

     total cpu time spent up to now is        6.8 secs

     total energy              =    -501.65326230 Ry
     estimated scf accuracy    <       0.00000955 Ry

     iteration # 16     ecut=    30.00 Ry     beta= 0.50
     Davidson diagonalization with overlap
     ethr =  3.73E-09,  avg # of iterations =  3.0

     total cpu time spent up to now is        6.9 secs

     total energy              =    -501.65326239 Ry
     estimated scf accuracy    <       0.00002110 Ry

     iteration # 17     ecut=    30.00 Ry     beta= 0.50
     Davidson diagonalization with overlap
     ethr =  3.73E-09,  avg # of iterations =  2.0

     total cpu time spent up to now is        7.0 secs

     total energy              =    -501.65326362 Ry
     estimated scf accuracy    <       0.00000282 Ry

     iteration # 18     ecut=    30.00 Ry     beta= 0.50
     Davidson diagonalization with overlap
     ethr =  1.10E-09,  avg # of iterations =  2.0

     total cpu time spent up to now is        7.1 secs

     total energy              =    -501.65326396 Ry
     estimated scf accuracy    <       0.00000146 Ry

     iteration # 19     ecut=    30.00 Ry     beta= 0.50
     Davidson diagonalization with overlap
     ethr =  5.72E-10,  avg # of iterations =  1.0

     total cpu time spent up to now is        7.2 secs

     End of self-consistent calculation

          k = 0.0000 0.0000 0.0000 ( 11324 PWs)   bands (ev):

    -5.3333  -4.3960  -4.2560  -4.1479  -4.1363  -4.0690  -4.0119  -3.3520
    -3.2498  -3.2010  -3.1078  -3.0905  -3.0316  -2.8838  -2.8331  -2.7556
    -2.6947  -2.6134  -2.5162  -2.1009  -1.9494  -1.8965  -1.8666  -1.6156
    -1.5414  -1.5208  -1.2314  -0.9680  -0.7600  -0.7116  -0.6213  -0.4673
    -0.3389  -0.2204  -0.1573   0.0156   0.1313   0.1688   0.2108   0.4045
     0.4673   0.4895   0.5434   0.5930   0.6597   0.8008   0.8378   0.9732
     1.0509   1.0716   1.1601   1.2491   1.4127   1.5361   1.5600   1.5834
     1.7438   1.8646   1.9719   2.0516   2.0744   2.2049   2.4257   2.4757
     2.5383   2.6512   2.6742   2.7263   2.7953   2.8670   2.9182   3.0026
     3.1607   3.2087   3.2618   3.2952   3.3759   3.5435   3.5995   3.6841
     3.9420   4.1556   4.2939   4.3823   4.4803   4.5657   4.6236   4.7896
     4.8022   4.8581   4.9024   4.9384   5.0696   5.0955   5.1838   5.2222
     5.2678   5.3459   5.3629   5.3968   5.4663   5.4857   5.6010   5.6200
     5.6935   5.7299   5.7871   5.8819   5.9382   6.0324   6.0604   6.1612
     6.2138   6.2568   6.2809   6.3114   6.3793   6.4201   6.4818   6.4994
     6.5950   6.6783   6.7409   6.8462   6.8859   6.9637   6.9966   7.0822
     7.1312   7.2129   7.2457   7.3386   7.4187   7.5443   7.6489   7.6980
     7.7284   7.8084   7.8151   7.8832   7.9547   8.0113   8.0795   8.1751
     8.2331   8.2502   8.3265   8.4286   8.4931   8.5541   8.6026   8.6613
     8.7203   8.8375

     the Fermi energy is     7.1139 ev

!    total energy              =    -501.65326403 Ry
     estimated scf accuracy    <       0.00000009 Ry
     smearing contrib. (-TS)   =      -0.13241748 Ry
     internal energy E=F+TS    =    -501.52084655 Ry

     The total energy is F=E-TS. E is the sum of the following terms:
     one-electron contribution =     189.77471532 Ry
     hartree contribution      =      23.42718282 Ry
     xc contribution           =    -151.08454913 Ry
     ewald contribution        =    -563.63819555 Ry

     convergence has been achieved in  19 iterations

     Forces acting on atoms (cartesian axes, Ry/au):

     atom    1 type  1   force =    -0.03229062   -0.01610911   -0.00205389
     atom    2 type  1   force =    -0.00420147    0.02266848   -0.02497878
     atom    3 type  1   force =     0.02596520    0.03116534   -0.01017362
     atom    4 type  1   force =    -0.00922119    0.00061587   -0.01776168
     atom    5 type  1   force =     0.00423591    0.04192566   -0.00737247
     atom    6 type  1   force =    -0.00552532    0.00507921   -0.00449283
     atom    7 type  1   force =    -0.09747443   -0.03616437    0.03091575
     atom    8 type  1   force =    -0.03843240   -0.01262391    0.06989221
     atom    9 type  1   force =     0.04985348   -0.00007382   -0.00531509
     atom   10 type  1   force =     0.00672878    0.01996511    0.01391697
     atom   11 type  1   force =    -0.00071943   -0.02143520   -0.00457295
     atom   12 type  1   force =     0.00096089   -0.05975201   -0.00444819
     atom   13 type  1   force =     0.00229774   -0.00649837    0.00332605
     atom   14 type  1   force =     0.00398918    0.00543603   -0.03453169
     atom   15 type  1   force =    -0.00462092    0.00095345    0.01394233
     atom   16 type  1   force =     0.01418886    0.01802328   -0.00048483
     atom   17 type  1   force =    -0.01284151   -0.02264992    0.01736532
     atom   18 type  1   force =     0.02098682    0.00142244    0.01713741
     atom   19 type  1   force =    -0.01634437    0.03670603    0.02486296
     atom   20 type  1   force =    -0.01439782    0.02339558    0.00674530
     atom   21 type  1   force =     0.01116402   -0.01464892   -0.00478475
     atom   22 type  1   force =    -0.00561379    0.00951543   -0.00487996
     atom   23 type  1   force =     0.00782672   -0.02831266    0.01224626
     atom   24 type  1   force =     0.02462596   -0.04510463   -0.00123774
     atom   25 type  1   force =    -0.00274534   -0.00785372    0.00553291
     atom   26 type  1   force =     0.02516895   -0.00679869    0.01548815
     atom   27 type  1   force =     0.01512071   -0.00978874    0.03001842
     atom   28 type  1   force =    -0.01776436    0.03928078   -0.06118715
     atom   29 type  1   force =    -0.00804363   -0.01149528   -0.02046699
     atom   30 type  1   force =    -0.02273308    0.00315499    0.00174123
     atom   31 type  1   force =     0.00824336    0.04117514   -0.00689149
     atom   32 type  1   force =     0.00463958    0.02463510    0.00382595
     atom   33 type  1   force =    -0.01482841   -0.01632640   -0.02087144
     atom   34 type  1   force =     0.01184041    0.03476730    0.04467506
     atom   35 type  1   force =     0.01806742    0.01346866    0.00128248
     atom   36 type  1   force =    -0.00695448    0.01269531    0.01680423
     atom   37 type  1   force =     0.01788947   -0.03505595   -0.01589614
     atom   38 type  1   force =     0.05450154   -0.02179026    0.02583941
     atom   39 type  1   force =     0.04686272    0.03618162    0.01591797
     atom   40 type  1   force =    -0.06050018   -0.02618477   -0.03408984
     atom   41 type  1   force =     0.10187546   -0.09223531   -0.07936730
     atom   42 type  1   force =    -0.00993518   -0.01307908   -0.02065462
     atom   43 type  1   force =    -0.01699177    0.01425570   -0.03394945
     atom   44 type  1   force =     0.00405499   -0.00483071   -0.01048018
     atom   45 type  1   force =    -0.00228778    0.12179893    0.01650689
     atom   46 type  1   force =    -0.04713518   -0.00294566   -0.00969660
     atom   47 type  1   force =    -0.00080778    0.00415278    0.00417834
     atom   48 type  1   force =     0.00126649   -0.01538745   -0.01887542
     atom   49 type  1   force =     0.00443460    0.00907163    0.01804906
     atom   50 type  1   force =    -0.03286255    0.03661178    0.00707435
     atom   51 type  1   force =     0.01923348   -0.01844168   -0.02604699
     atom   52 type  1   force =    -0.00594042   -0.00074453    0.08042896
     atom   53 type  1   force =     0.01399122    0.00447299   -0.02318625
     atom   54 type  1   force =    -0.02369324   -0.00872707   -0.02030046
     atom   55 type  1   force =     0.04585300    0.01117403   -0.00183032
     atom   56 type  1   force =    -0.00954915    0.02180510    0.01469847
     atom   57 type  1   force =    -0.00690905   -0.00258916    0.02997920
     atom   58 type  1   force =     0.02478774   -0.02395680   -0.01332850
     atom   59 type  1   force =    -0.02228913   -0.00331095   -0.02355248
     atom   60 type  1   force =     0.00327587    0.00144053    0.04123654
     atom   61 type  1   force =    -0.02660885   -0.02833081   -0.02406476
     atom   62 type  1   force =     0.00562764    0.00546037   -0.01407329
     atom   63 type  1   force =    -0.00040690   -0.05631173    0.01114557
     atom   64 type  1   force =    -0.01888848    0.01708303    0.01112439

     Total force =     0.384366     Total SCF correction =     0.000516


     Computing stress (Cartesian axis) and pressure

          total   stress  (Ry/bohr**3)                   (kbar)     P=      -27.44
  -0.00022660  -0.00000300  -0.00000999          -33.33       -0.44       -1.47
  -0.00000300  -0.00011455  -0.00001697           -0.44      -16.85       -2.50
  -0.00000999  -0.00001697  -0.00021845           -1.47       -2.50      -32.14

 
     init_run     :      1.06s CPU      4.92s WALL (       1 calls)
     electrons    :      1.99s CPU      2.16s WALL (       1 calls)
     forces       :      0.04s CPU      0.04s WALL (       1 calls)
     stress       :      0.15s CPU      0.16s WALL (       1 calls)

     Called by init_run:
     wfcinit      :      0.52s CPU      4.20s WALL (       1 calls)
                                        4.20s GPU  (       1 calls)
     potinit      :      0.05s CPU      0.15s WALL (       1 calls)
     hinit0       :      0.47s CPU      0.50s WALL (       1 calls)

     Called by electrons:
     c_bands      :      1.18s CPU      1.26s WALL (      20 calls)
     sum_band     :      0.40s CPU      0.45s WALL (      20 calls)
     v_of_rho     :      0.20s CPU      0.30s WALL (      20 calls)
     mix_rho      :      0.19s CPU      0.20s WALL (      20 calls)

     Called by c_bands:
     init_us_2    :      0.07s CPU      0.08s WALL (      41 calls)
     init_us_2:gp :      0.07s CPU      0.07s WALL (      41 calls)
     regterg      :      1.00s CPU      1.08s WALL (      20 calls)

     Called by *egterg:
     rdiaghg      :      0.40s CPU      1.16s WALL (      80 calls)
                                        1.14s GPU  (      80 calls)
     h_psi        :      0.93s CPU      3.91s WALL (      82 calls)
                                        3.90s GPU  (      82 calls)
     g_psi        :      0.00s CPU      0.00s WALL (      61 calls)
                                        0.00s GPU  (      61 calls)

     Called by h_psi:
     h_psi:calbec :      0.49s CPU      3.37s WALL (      82 calls)
                                        3.37s GPU  (      82 calls)
     vloc_psi     :      0.40s CPU      0.47s WALL (      82 calls)
                                        0.47s GPU  (      82 calls)
     add_vuspsi   :      0.03s CPU      0.05s WALL (      82 calls)
                                        0.05s GPU  (      82 calls)

     General routines
     calbec       :      0.49s CPU      3.38s WALL (      87 calls)
     fft          :      0.63s CPU      0.76s WALL (     167 calls)
                                        0.13s GPU  (     106 calls)
     ffts         :      0.05s CPU      0.05s WALL (      20 calls)
     fftw         :      0.49s CPU      0.63s WALL (    2086 calls)
                                        0.56s GPU  (    2086 calls)
 
     Parallel routines
 
     PWSCF        :      3.29s CPU      7.37s WALL

 
   This run was terminated on:  10:41:21  10May2023            

=------------------------------------------------------------------------------=
   JOB DONE.
=------------------------------------------------------------------------------=
