An instance of this daemon is already running
An instance of this daemon is already running

     Program PWSCF v.7.1 starts on 10May2023 at 10:51:36 

     This program is part of the open-source Quantum ESPRESSO suite
     for quantum simulation of materials; please cite
         "P. Giannozzi et al., J. Phys.:Condens. Matter 21 395502 (2009);
         "P. Giannozzi et al., J. Phys.:Condens. Matter 29 465901 (2017);
         "P. Giannozzi et al., J. Chem. Phys. 152 154105 (2020);
          URL http://www.quantum-espresso.org", 
     in publications or presentations arising from this work. More details at
     http://www.quantum-espresso.org/quote

     Parallel version (MPI & OpenMP), running on       4 processor cores
     Number of MPI processes:                 4
     Threads/MPI process:                     1

     MPI processes distributed on     1 nodes
     753544 MiB available memory on the printing compute node when the environment starts
 
     Reading input from pw-si-87.in
Warning: card &CELL ignored
Warning: card / ignored

     Current dimensions of program PWSCF are:
     Max number of different atomic species (ntypx) = 10
     Max number of k-points (npk) =  40000
     Max angular momentum in pseudopotentials (lmaxx) =  4

     IMPORTANT: XC functional enforced from input :
     Exchange-correlation= PBE
                           (   1   4   3   4   0   0   0)
     Any further DFT definition will be discarded
     Please, verify this is what you really want


     gamma-point specific algorithms are used
 
     K-points division:     npool     =       2
     R & G space division:  proc/nbgrp/npool/nimage =       2
     Subspace diagonalization in iterative solution of the eigenvalue problem:
     a serial algorithm will be used

     Message from routine divide_et_impera:
     suboptimal parallelization: some nodes have no k-points
 
     Parallelization info
     --------------------
     sticks:   dense  smooth     PW     G-vecs:    dense   smooth      PW
     Min        1942    1942    516                90833    90833   12416
     Max        1943    1943    517                90834    90834   12421
     Sum        3885    3885   1033               181667   181667   24837
 
     Using Slab Decomposition
 


     bravais-lattice index     =            0
     lattice parameter (alat)  =      20.1511  a.u.
     unit-cell volume          =    8182.6706 (a.u.)^3
     number of atoms/cell      =           64
     number of atomic types    =            1
     number of electrons       =       256.00
     number of Kohn-Sham states=          154
     kinetic-energy cutoff     =      30.0000  Ry
     charge density cutoff     =     120.0000  Ry
     scf convergence threshold =      1.0E-06
     mixing beta               =       0.5000
     number of iterations used =            8  plain     mixing
     Exchange-correlation= PBE
                           (   1   4   3   4   0   0   0)

     GPU acceleration is ACTIVE.
     GPU-aware MPI enabled

     Message from routine print_cuda_info:
     High GPU oversubscription detected. Are you sure this is what you want?

     celldm(1)=  20.151081  celldm(2)=   0.000000  celldm(3)=   0.000000
     celldm(4)=   0.000000  celldm(5)=   0.000000  celldm(6)=   0.000000

     crystal axes: (cart. coord. in units of alat)
               a(1) = (   1.000000   0.000000   0.000000 )  
               a(2) = (   0.000000   1.000000   0.000000 )  
               a(3) = (   0.000000   0.000000   1.000000 )  

     reciprocal axes: (cart. coord. in units 2 pi/alat)
               b(1) = (  1.000000  0.000000  0.000000 )  
               b(2) = (  0.000000  1.000000  0.000000 )  
               b(3) = (  0.000000  0.000000  1.000000 )  


     PseudoPot. # 1 for Si read from file:
     /home/ppiaggi/pseudos/Si_ONCV_PBE_sr.upf
     MD5 check sum: 8553c464762ac42b85b1eed164b4d029
     Pseudo is Norm-conserving, Zval =  4.0
     Generated using ONCVPSP code by D. R. Hamann
     Using radial grid of 1510 points,  4 beta functions with: 
                l(1) =   0
                l(2) =   0
                l(3) =   1
                l(4) =   1

     atomic species   valence    mass     pseudopotential
        Si             4.00    28.08500     Si( 1.00)

     No symmetry found



   Cartesian axes

     site n.     atom                  positions (alat units)
         1           Si  tau(   1) = (   0.5097580   0.0060565   0.5736540  )
         2           Si  tau(   2) = (   0.9593200   0.1025530   0.0570023  )
         3           Si  tau(   3) = (   0.0429245   0.6909150   0.3314280  )
         4           Si  tau(   4) = (   0.3388070   0.5529350   0.6247720  )
         5           Si  tau(   5) = (   0.0393333   0.1562490   0.2734880  )
         6           Si  tau(   6) = (   0.1204810   0.2700220   0.6406640  )
         7           Si  tau(   7) = (   0.5125020   0.6479360   0.0776807  )
         8           Si  tau(   8) = (   0.5793460   0.1732380   0.4089720  )
         9           Si  tau(   9) = (   0.4863090   0.2133810   0.6775270  )
        10           Si  tau(  10) = (   0.7759680   0.7977280   0.7228430  )
        11           Si  tau(  11) = (   0.4936940   0.4316310   0.7272290  )
        12           Si  tau(  12) = (   0.0436999   0.9815880   0.7512980  )
        13           Si  tau(  13) = (   0.8594780   0.0520721   0.8441890  )
        14           Si  tau(  14) = (   0.8009560   0.6047300   0.0218403  )
        15           Si  tau(  15) = (   0.2023770   0.0536183   0.0809291  )
        16           Si  tau(  16) = (   0.2427500   0.9887630   0.8402140  )
        17           Si  tau(  17) = (   0.2518150   0.6993400   0.4532770  )
        18           Si  tau(  18) = (   0.7091130   0.0676585   0.2689650  )
        19           Si  tau(  19) = (   0.8003660   0.2645060   0.1844340  )
        20           Si  tau(  20) = (   0.9666350   0.3078860   0.9440920  )
        21           Si  tau(  21) = (   0.3077290   0.9000900   0.6192240  )
        22           Si  tau(  22) = (   0.0656479   0.7828180   0.6080090  )
        23           Si  tau(  23) = (   0.6439230   0.6013070   0.8504280  )
        24           Si  tau(  24) = (   0.4799560   0.7542630   0.7338640  )
        25           Si  tau(  25) = (   0.5802340   0.4434630   0.1335210  )
        26           Si  tau(  26) = (   0.4670800   0.5118390   0.3841670  )
        27           Si  tau(  27) = (   0.8289740   0.5894710   0.3466850  )
        28           Si  tau(  28) = (   0.7572250   0.3910230   0.8444490  )
        29           Si  tau(  29) = (   0.9364270   0.7770030   0.8696210  )
        30           Si  tau(  30) = (   0.2101920   0.4329750   0.4544410  )
        31           Si  tau(  31) = (   0.0883785   0.8474790   0.0443022  )
        32           Si  tau(  32) = (   0.6714940   0.2829490   0.0003436  )
        33           Si  tau(  33) = (   0.4326130   0.3946860   0.9572830  )
        34           Si  tau(  34) = (   0.7663460   0.9163700   0.0626507  )
        35           Si  tau(  35) = (   0.9939650   0.4243270   0.3591250  )
        36           Si  tau(  36) = (   0.4064940   0.3002670   0.2736390  )
        37           Si  tau(  37) = (   0.6289470   0.5774310   0.5664770  )
        38           Si  tau(  38) = (   0.4231560   0.0463265   0.1752800  )
        39           Si  tau(  39) = (   0.3230050   0.7716650   0.8995380  )
        40           Si  tau(  40) = (   0.2192850   0.2783880   0.1657020  )
        41           Si  tau(  41) = (   0.5739350   0.0778040   0.0233016  )
        42           Si  tau(  42) = (   0.6197720   0.9697320   0.8023470  )
        43           Si  tau(  43) = (   0.3650310   0.6343060   0.2237360  )
        44           Si  tau(  44) = (   0.2247900   0.0391706   0.4206560  )
        45           Si  tau(  45) = (   0.1850570   0.6546230   0.7520470  )
        46           Si  tau(  46) = (   0.8502130   0.6177530   0.6028370  )
        47           Si  tau(  47) = (   0.3805190   0.8935770   0.3440720  )
        48           Si  tau(  48) = (   0.0183652   0.5353340   0.8531430  )
        49           Si  tau(  49) = (   0.1401190   0.6493540   0.1309010  )
        50           Si  tau(  50) = (   0.1831860   0.2414000   0.8571350  )
        51           Si  tau(  51) = (   0.4141580   0.1730840   0.8753630  )
        52           Si  tau(  52) = (   0.9856420   0.4646590   0.1299510  )
        53           Si  tau(  53) = (   0.8600470   0.0634328   0.4326600  )
        54           Si  tau(  54) = (   0.3144400   0.2253040   0.5168110  )
        55           Si  tau(  55) = (   0.7158520   0.2034650   0.7099050  )
        56           Si  tau(  56) = (   0.7058600   0.7410600   0.1877140  )
        57           Si  tau(  57) = (   0.2099910   0.4223720   0.0044493  )
        58           Si  tau(  58) = (   0.9438050   0.4144730   0.6741300  )
        59           Si  tau(  59) = (   0.5771630   0.7738150   0.4006260  )
        60           Si  tau(  60) = (   0.0326672   0.0856463   0.5667820  )
        61           Si  tau(  61) = (   0.7131350   0.9065700   0.5154770  )
        62           Si  tau(  62) = (   0.8120350   0.2730690   0.5399570  )
        63           Si  tau(  63) = (   0.7018590   0.4071510   0.3556800  )
        64           Si  tau(  64) = (   0.9378840   0.9048180   0.2449660  )

     number of k points=     1  Fermi-Dirac smearing, width (Ry)=  0.0100
                       cart. coord. in units 2pi/alat
        k(    1) = (   0.0000000   0.0000000   0.0000000), wk =   2.0000000

     Dense  grid:    90834 G-vectors     FFT dimensions: (  72,  72,  72)

     Estimated max dynamical RAM per process >     145.76 MB

     Estimated total dynamical RAM >     560.85 MB

     Initial potential from superposition of free atoms

     starting charge     255.9608, renormalised to     256.0000
     Starting wfcs are  256 randomized atomic wfcs

     total cpu time spent up to now is        5.0 secs

     Self-consistent Calculation

     iteration #  1     ecut=    30.00 Ry     beta= 0.50
     Davidson diagonalization with overlap
     ethr =  1.00E-02,  avg # of iterations =  3.0

     Threshold (ethr) on eigenvalues was too large:
     Diagonalizing with lowered threshold

     Davidson diagonalization with overlap
     ethr =  4.12E-04,  avg # of iterations =  4.0

     total cpu time spent up to now is        5.3 secs

     total energy              =    -501.23989361 Ry
     estimated scf accuracy    <       1.26741115 Ry

     iteration #  2     ecut=    30.00 Ry     beta= 0.50
     Davidson diagonalization with overlap
     ethr =  4.95E-04,  avg # of iterations =  5.0

     total cpu time spent up to now is        5.4 secs

     total energy              =    -500.66150817 Ry
     estimated scf accuracy    <       7.27039134 Ry

     iteration #  3     ecut=    30.00 Ry     beta= 0.50
     Davidson diagonalization with overlap
     ethr =  4.95E-04,  avg # of iterations =  4.0

     total cpu time spent up to now is        5.5 secs

     total energy              =    -501.33945630 Ry
     estimated scf accuracy    <       1.88312640 Ry

     iteration #  4     ecut=    30.00 Ry     beta= 0.50
     Davidson diagonalization with overlap
     ethr =  4.95E-04,  avg # of iterations =  2.0

     total cpu time spent up to now is        5.6 secs

     total energy              =    -501.43931086 Ry
     estimated scf accuracy    <       0.80459730 Ry

     iteration #  5     ecut=    30.00 Ry     beta= 0.50
     Davidson diagonalization with overlap
     ethr =  3.14E-04,  avg # of iterations =  2.0

     total cpu time spent up to now is        5.7 secs

     total energy              =    -501.48022344 Ry
     estimated scf accuracy    <       0.61004127 Ry

     iteration #  6     ecut=    30.00 Ry     beta= 0.50
     Davidson diagonalization with overlap
     ethr =  2.38E-04,  avg # of iterations =  2.0

     total cpu time spent up to now is        5.8 secs

     total energy              =    -501.53414011 Ry
     estimated scf accuracy    <       0.05714249 Ry

     iteration #  7     ecut=    30.00 Ry     beta= 0.50
     Davidson diagonalization with overlap
     ethr =  2.23E-05,  avg # of iterations =  9.0

     total cpu time spent up to now is        6.0 secs

     total energy              =    -501.54185860 Ry
     estimated scf accuracy    <       0.02551008 Ry

     iteration #  8     ecut=    30.00 Ry     beta= 0.50
     Davidson diagonalization with overlap
     ethr =  9.96E-06,  avg # of iterations =  7.0

     total cpu time spent up to now is        6.1 secs

     total energy              =    -501.54478419 Ry
     estimated scf accuracy    <       0.01812071 Ry

     iteration #  9     ecut=    30.00 Ry     beta= 0.50
     Davidson diagonalization with overlap
     ethr =  7.08E-06,  avg # of iterations =  2.0

     total cpu time spent up to now is        6.2 secs

     total energy              =    -501.54610058 Ry
     estimated scf accuracy    <       0.00196485 Ry

     iteration # 10     ecut=    30.00 Ry     beta= 0.50
     Davidson diagonalization with overlap
     ethr =  7.68E-07,  avg # of iterations = 11.0

     total cpu time spent up to now is        6.3 secs

     total energy              =    -501.54629519 Ry
     estimated scf accuracy    <       0.00232524 Ry

     iteration # 11     ecut=    30.00 Ry     beta= 0.50
     Davidson diagonalization with overlap
     ethr =  7.68E-07,  avg # of iterations =  2.0

     total cpu time spent up to now is        6.4 secs

     total energy              =    -501.54648402 Ry
     estimated scf accuracy    <       0.00031108 Ry

     iteration # 12     ecut=    30.00 Ry     beta= 0.50
     Davidson diagonalization with overlap
     ethr =  1.22E-07,  avg # of iterations =  3.0

     total cpu time spent up to now is        6.6 secs

     total energy              =    -501.54652866 Ry
     estimated scf accuracy    <       0.00018007 Ry

     iteration # 13     ecut=    30.00 Ry     beta= 0.50
     Davidson diagonalization with overlap
     ethr =  7.03E-08,  avg # of iterations =  2.0

     total cpu time spent up to now is        6.6 secs

     total energy              =    -501.54654299 Ry
     estimated scf accuracy    <       0.00009188 Ry

     iteration # 14     ecut=    30.00 Ry     beta= 0.50
     Davidson diagonalization with overlap
     ethr =  3.59E-08,  avg # of iterations =  2.0

     total cpu time spent up to now is        6.7 secs

     total energy              =    -501.54654949 Ry
     estimated scf accuracy    <       0.00002193 Ry

     iteration # 15     ecut=    30.00 Ry     beta= 0.50
     Davidson diagonalization with overlap
     ethr =  8.57E-09,  avg # of iterations =  3.0

     total cpu time spent up to now is        6.8 secs

     total energy              =    -501.54655129 Ry
     estimated scf accuracy    <       0.00002152 Ry

     iteration # 16     ecut=    30.00 Ry     beta= 0.50
     Davidson diagonalization with overlap
     ethr =  8.41E-09,  avg # of iterations =  2.0

     total cpu time spent up to now is        6.9 secs

     total energy              =    -501.54655320 Ry
     estimated scf accuracy    <       0.00000453 Ry

     iteration # 17     ecut=    30.00 Ry     beta= 0.50
     Davidson diagonalization with overlap
     ethr =  1.77E-09,  avg # of iterations =  2.0

     total cpu time spent up to now is        7.0 secs

     End of self-consistent calculation

          k = 0.0000 0.0000 0.0000 ( 11372 PWs)   bands (ev):

    -5.3988  -4.3969  -4.3160  -4.2547  -4.2205  -4.1395  -3.9497  -3.5271
    -3.2976  -3.2572  -3.1890  -3.0752  -3.0435  -2.9345  -2.8580  -2.7957
    -2.7432  -2.7010  -2.4121  -2.2000  -2.1394  -1.9113  -1.7833  -1.7032
    -1.6314  -1.4428  -1.2703  -1.1211  -0.9875  -0.7170  -0.5589  -0.4618
    -0.2947  -0.2220  -0.0778  -0.0140   0.0647   0.1054   0.2127   0.2305
     0.2555   0.4051   0.4794   0.5576   0.6164   0.6915   0.7397   0.8539
     0.9388   1.0327   1.1257   1.2772   1.3311   1.4577   1.5973   1.6369
     1.7637   1.8109   1.8600   1.9623   2.0712   2.1662   2.3516   2.4219
     2.5155   2.5763   2.6573   2.7156   2.7897   2.8249   2.9456   3.0141
     3.0896   3.1780   3.2204   3.3255   3.3711   3.4325   3.5471   3.7036
     3.7621   4.0031   4.2103   4.3318   4.3693   4.4981   4.5455   4.5643
     4.6979   4.7395   4.8005   4.8712   4.8947   4.9957   5.1417   5.1753
     5.2081   5.3124   5.3567   5.3779   5.4500   5.4873   5.5800   5.6123
     5.6675   5.7313   5.7596   5.8365   5.8607   5.9355   5.9983   6.0828
     6.1259   6.2142   6.2438   6.2822   6.3345   6.4256   6.4461   6.5143
     6.6218   6.6517   6.8023   6.8182   6.8594   6.8937   6.9516   7.0282
     7.0875   7.1044   7.1833   7.2502   7.2688   7.3917   7.4136   7.5536
     7.5864   7.6200   7.6506   7.7532   7.8215   7.9348   7.9575   7.9884
     8.0654   8.1352   8.2673   8.3126   8.3395   8.4789   8.5019   8.5554
     8.6007   8.6787

     the Fermi energy is     7.0491 ev

!    total energy              =    -501.54655331 Ry
     estimated scf accuracy    <       0.00000073 Ry
     smearing contrib. (-TS)   =      -0.15479307 Ry
     internal energy E=F+TS    =    -501.39176024 Ry

     The total energy is F=E-TS. E is the sum of the following terms:
     one-electron contribution =     184.21946002 Ry
     hartree contribution      =      25.54496623 Ry
     xc contribution           =    -150.76582249 Ry
     ewald contribution        =    -560.39036401 Ry

     convergence has been achieved in  17 iterations

     Forces acting on atoms (cartesian axes, Ry/au):

     atom    1 type  1   force =     0.01118371   -0.00937702   -0.00908809
     atom    2 type  1   force =    -0.01011061    0.02339527    0.00198533
     atom    3 type  1   force =     0.00264375    0.00964434    0.01175588
     atom    4 type  1   force =    -0.02135483    0.01139958   -0.04020987
     atom    5 type  1   force =     0.02065282   -0.00141799   -0.00765129
     atom    6 type  1   force =     0.01815863    0.02747960   -0.00449724
     atom    7 type  1   force =     0.05699429    0.01666523   -0.06667673
     atom    8 type  1   force =    -0.02198429    0.02359883    0.01423763
     atom    9 type  1   force =     0.00415474    0.00057208   -0.03128267
     atom   10 type  1   force =    -0.02990035    0.00168099   -0.01688359
     atom   11 type  1   force =     0.02059190    0.01973897    0.01795708
     atom   12 type  1   force =     0.00556417   -0.05744455    0.00565708
     atom   13 type  1   force =    -0.03666785    0.01949655    0.02543755
     atom   14 type  1   force =     0.02081840    0.00239443   -0.01389175
     atom   15 type  1   force =     0.00010514   -0.00312956   -0.02052839
     atom   16 type  1   force =     0.03046955    0.01058169    0.00778414
     atom   17 type  1   force =    -0.00178162    0.01467947    0.00182047
     atom   18 type  1   force =     0.02324161    0.00491602   -0.04505708
     atom   19 type  1   force =     0.01105036   -0.01202233   -0.00311400
     atom   20 type  1   force =     0.00063711   -0.00429293    0.01754762
     atom   21 type  1   force =     0.00588145   -0.00856850    0.00380953
     atom   22 type  1   force =    -0.00151534   -0.00362263    0.00673930
     atom   23 type  1   force =    -0.00195551   -0.00533844    0.00995861
     atom   24 type  1   force =     0.00372840    0.01033610   -0.02102771
     atom   25 type  1   force =    -0.01070137   -0.03091647    0.01478639
     atom   26 type  1   force =    -0.00677002    0.00682622    0.01950336
     atom   27 type  1   force =     0.02230158    0.03037207    0.02691140
     atom   28 type  1   force =     0.03191554    0.01778808   -0.05175643
     atom   29 type  1   force =     0.02470562   -0.01368731    0.04801316
     atom   30 type  1   force =     0.01186745   -0.01136077    0.03047707
     atom   31 type  1   force =    -0.03004671    0.01046719    0.00546765
     atom   32 type  1   force =    -0.02633652   -0.03286906    0.06836594
     atom   33 type  1   force =     0.00053248    0.00431468   -0.00876471
     atom   34 type  1   force =     0.02492290    0.02620388    0.01963919
     atom   35 type  1   force =     0.01789858   -0.00705500   -0.01408825
     atom   36 type  1   force =     0.03896386   -0.01279876    0.01962402
     atom   37 type  1   force =    -0.03488463    0.01477473   -0.01216092
     atom   38 type  1   force =    -0.04366889    0.01634676    0.02583082
     atom   39 type  1   force =    -0.00132726   -0.00952603   -0.00548439
     atom   40 type  1   force =    -0.03072674   -0.04627058    0.00942146
     atom   41 type  1   force =     0.02146051    0.00145565   -0.04365778
     atom   42 type  1   force =     0.01364535   -0.02274972   -0.01288240
     atom   43 type  1   force =    -0.07433438    0.01061650    0.05090838
     atom   44 type  1   force =    -0.03481152    0.02942280    0.02238085
     atom   45 type  1   force =    -0.00076017   -0.00893659    0.02225601
     atom   46 type  1   force =     0.01188061    0.00690587   -0.03065601
     atom   47 type  1   force =     0.01356875   -0.03101387    0.00504531
     atom   48 type  1   force =     0.02108337    0.02025614    0.00728602
     atom   49 type  1   force =     0.02493617   -0.03190731    0.01482582
     atom   50 type  1   force =    -0.00478129   -0.00927518    0.00228629
     atom   51 type  1   force =    -0.04091588   -0.00290566    0.02902279
     atom   52 type  1   force =    -0.01644057    0.00396390   -0.01540865
     atom   53 type  1   force =    -0.00244659    0.00849597   -0.00080542
     atom   54 type  1   force =    -0.00192840    0.00879416   -0.01421743
     atom   55 type  1   force =    -0.02438957   -0.02221821    0.06313997
     atom   56 type  1   force =    -0.02200143   -0.00708477    0.01629056
     atom   57 type  1   force =    -0.00813336    0.03272459   -0.02506107
     atom   58 type  1   force =    -0.02826938    0.00789871    0.00462406
     atom   59 type  1   force =     0.00981209   -0.02183331   -0.01278463
     atom   60 type  1   force =     0.02755655   -0.00453409   -0.04894443
     atom   61 type  1   force =     0.00075778    0.00894861    0.03905811
     atom   62 type  1   force =     0.02272923    0.00794598   -0.07573469
     atom   63 type  1   force =    -0.01388567   -0.03374716   -0.00026620
     atom   64 type  1   force =     0.00641632   -0.00519786   -0.03727304

     Total force =     0.328520     Total SCF correction =     0.001525


     Computing stress (Cartesian axis) and pressure

          total   stress  (Ry/bohr**3)                   (kbar)     P=      -32.83
  -0.00018561   0.00004480  -0.00007702          -27.30        6.59      -11.33
   0.00004480  -0.00026513  -0.00006655            6.59      -39.00       -9.79
  -0.00007702  -0.00006655  -0.00021878          -11.33       -9.79      -32.18

 
     init_run     :      1.07s CPU      4.93s WALL (       1 calls)
     electrons    :      1.88s CPU      2.03s WALL (       1 calls)
     forces       :      0.03s CPU      0.04s WALL (       1 calls)
     stress       :      0.15s CPU      0.15s WALL (       1 calls)

     Called by init_run:
     wfcinit      :      0.53s CPU      4.21s WALL (       1 calls)
                                        4.21s GPU  (       1 calls)
     potinit      :      0.05s CPU      0.15s WALL (       1 calls)
     hinit0       :      0.47s CPU      0.50s WALL (       1 calls)

     Called by electrons:
     c_bands      :      1.13s CPU      1.20s WALL (      18 calls)
     sum_band     :      0.37s CPU      0.41s WALL (      18 calls)
     v_of_rho     :      0.17s CPU      0.28s WALL (      18 calls)
     mix_rho      :      0.17s CPU      0.18s WALL (      18 calls)

     Called by c_bands:
     init_us_2    :      0.07s CPU      0.07s WALL (      37 calls)
     init_us_2:gp :      0.07s CPU      0.07s WALL (      37 calls)
     regterg      :      0.97s CPU      1.03s WALL (      18 calls)

     Called by *egterg:
     rdiaghg      :      0.41s CPU      1.17s WALL (      84 calls)
                                        1.15s GPU  (      84 calls)
     h_psi        :      0.92s CPU      3.88s WALL (      86 calls)
                                        3.87s GPU  (      86 calls)
     g_psi        :      0.00s CPU      0.00s WALL (      67 calls)
                                        0.00s GPU  (      67 calls)

     Called by h_psi:
     h_psi:calbec :      0.50s CPU      3.38s WALL (      86 calls)
                                        3.38s GPU  (      86 calls)
     vloc_psi     :      0.36s CPU      0.44s WALL (      86 calls)
                                        0.43s GPU  (      86 calls)
     add_vuspsi   :      0.04s CPU      0.05s WALL (      86 calls)
                                        0.05s GPU  (      86 calls)

     General routines
     calbec       :      0.50s CPU      3.38s WALL (      91 calls)
     fft          :      0.61s CPU      0.75s WALL (     151 calls)
                                        0.13s GPU  (      96 calls)
     ffts         :      0.04s CPU      0.05s WALL (      18 calls)
     fftw         :      0.45s CPU      0.59s WALL (    1906 calls)
                                        0.51s GPU  (    1906 calls)
 
     Parallel routines
 
     PWSCF        :      3.17s CPU      7.24s WALL

 
   This run was terminated on:  10:51:43  10May2023            

=------------------------------------------------------------------------------=
   JOB DONE.
=------------------------------------------------------------------------------=
