An instance of this daemon is already running
An instance of this daemon is already running

     Program PWSCF v.7.1 starts on 10May2023 at 10:42:12 

     This program is part of the open-source Quantum ESPRESSO suite
     for quantum simulation of materials; please cite
         "P. Giannozzi et al., J. Phys.:Condens. Matter 21 395502 (2009);
         "P. Giannozzi et al., J. Phys.:Condens. Matter 29 465901 (2017);
         "P. Giannozzi et al., J. Chem. Phys. 152 154105 (2020);
          URL http://www.quantum-espresso.org", 
     in publications or presentations arising from this work. More details at
     http://www.quantum-espresso.org/quote

     Parallel version (MPI & OpenMP), running on       4 processor cores
     Number of MPI processes:                 4
     Threads/MPI process:                     1

     MPI processes distributed on     1 nodes
     753565 MiB available memory on the printing compute node when the environment starts
 
     Reading input from pw-si-29.in
Warning: card &CELL ignored
Warning: card / ignored

     Current dimensions of program PWSCF are:
     Max number of different atomic species (ntypx) = 10
     Max number of k-points (npk) =  40000
     Max angular momentum in pseudopotentials (lmaxx) =  4

     IMPORTANT: XC functional enforced from input :
     Exchange-correlation= PBE
                           (   1   4   3   4   0   0   0)
     Any further DFT definition will be discarded
     Please, verify this is what you really want


     gamma-point specific algorithms are used
 
     K-points division:     npool     =       2
     R & G space division:  proc/nbgrp/npool/nimage =       2
     Subspace diagonalization in iterative solution of the eigenvalue problem:
     a serial algorithm will be used

     Message from routine divide_et_impera:
     suboptimal parallelization: some nodes have no k-points
 
     Parallelization info
     --------------------
     sticks:   dense  smooth     PW     G-vecs:    dense   smooth      PW
     Min        1880    1880    493                86768    86768   11791
     Max        1881    1881    496                86773    86773   11792
     Sum        3761    3761    989               173541   173541   23583
 
     Using Slab Decomposition
 


     bravais-lattice index     =            0
     lattice parameter (alat)  =      19.8364  a.u.
     unit-cell volume          =    7805.2333 (a.u.)^3
     number of atoms/cell      =           64
     number of atomic types    =            1
     number of electrons       =       256.00
     number of Kohn-Sham states=          154
     kinetic-energy cutoff     =      30.0000  Ry
     charge density cutoff     =     120.0000  Ry
     scf convergence threshold =      1.0E-06
     mixing beta               =       0.5000
     number of iterations used =            8  plain     mixing
     Exchange-correlation= PBE
                           (   1   4   3   4   0   0   0)

     GPU acceleration is ACTIVE.
     GPU-aware MPI enabled

     Message from routine print_cuda_info:
     High GPU oversubscription detected. Are you sure this is what you want?

     celldm(1)=  19.836359  celldm(2)=   0.000000  celldm(3)=   0.000000
     celldm(4)=   0.000000  celldm(5)=   0.000000  celldm(6)=   0.000000

     crystal axes: (cart. coord. in units of alat)
               a(1) = (   1.000000   0.000000   0.000000 )  
               a(2) = (   0.000000   1.000000   0.000000 )  
               a(3) = (   0.000000   0.000000   1.000000 )  

     reciprocal axes: (cart. coord. in units 2 pi/alat)
               b(1) = (  1.000000  0.000000  0.000000 )  
               b(2) = (  0.000000  1.000000  0.000000 )  
               b(3) = (  0.000000  0.000000  1.000000 )  


     PseudoPot. # 1 for Si read from file:
     /home/ppiaggi/pseudos/Si_ONCV_PBE_sr.upf
     MD5 check sum: 8553c464762ac42b85b1eed164b4d029
     Pseudo is Norm-conserving, Zval =  4.0
     Generated using ONCVPSP code by D. R. Hamann
     Using radial grid of 1510 points,  4 beta functions with: 
                l(1) =   0
                l(2) =   0
                l(3) =   1
                l(4) =   1

     atomic species   valence    mass     pseudopotential
        Si             4.00    28.08500     Si( 1.00)

     No symmetry found



   Cartesian axes

     site n.     atom                  positions (alat units)
         1           Si  tau(   1) = (   0.8863200   0.5781160   0.9932490  )
         2           Si  tau(   2) = (   0.9158720   0.3941860   0.2741300  )
         3           Si  tau(   3) = (   0.2130450   0.3398650   0.8575160  )
         4           Si  tau(   4) = (   0.7075080   0.5807970   0.4571710  )
         5           Si  tau(   5) = (   0.1484800   0.5414560   0.5292550  )
         6           Si  tau(   6) = (   0.4722740   0.9849170   0.3990400  )
         7           Si  tau(   7) = (   0.6209360   0.9293660   0.1312620  )
         8           Si  tau(   8) = (   0.2896430   0.3544260   0.2601730  )
         9           Si  tau(   9) = (   0.1388010   0.9307280   0.7421510  )
        10           Si  tau(  10) = (   0.1594020   0.6274390   0.2862690  )
        11           Si  tau(  11) = (   0.3115050   0.0984228   0.1641330  )
        12           Si  tau(  12) = (   0.8149060   0.8655140   0.5489220  )
        13           Si  tau(  13) = (   0.2547470   0.9390400   0.3390760  )
        14           Si  tau(  14) = (   0.7420900   0.3055890   0.8055680  )
        15           Si  tau(  15) = (   0.5630570   0.3446580   0.3069100  )
        16           Si  tau(  16) = (   0.3434040   0.8841240   0.7334120  )
        17           Si  tau(  17) = (   0.3817770   0.2234420   0.6912150  )
        18           Si  tau(  18) = (   0.5729150   0.4404020   0.8602550  )
        19           Si  tau(  19) = (   0.6339780   0.7864590   0.6491460  )
        20           Si  tau(  20) = (   0.8148590   0.1457540   0.1418610  )
        21           Si  tau(  21) = (   0.9978840   0.3778320   0.6041450  )
        22           Si  tau(  22) = (   0.4612270   0.6120600   0.6515920  )
        23           Si  tau(  23) = (   0.7178670   0.6362020   0.8329760  )
        24           Si  tau(  24) = (   0.8186730   0.5339630   0.6636410  )
        25           Si  tau(  25) = (   0.3550810   0.6980340   0.8665940  )
        26           Si  tau(  26) = (   0.7198580   0.3942880   0.1345490  )
        27           Si  tau(  27) = (   0.6758010   0.8202850   0.3421550  )
        28           Si  tau(  28) = (   0.6560770   0.3541190   0.5019220  )
        29           Si  tau(  29) = (   0.9034660   0.0382863   0.3903250  )
        30           Si  tau(  30) = (   0.2643430   0.7799850   0.5337140  )
        31           Si  tau(  31) = (   0.5139380   0.9983070   0.6221840  )
        32           Si  tau(  32) = (   0.1419780   0.7961850   0.1375790  )
        33           Si  tau(  33) = (   0.5249430   0.6578280   0.0026532  )
        34           Si  tau(  34) = (   0.0815225   0.1731470   0.3006270  )
        35           Si  tau(  35) = (   0.5022090   0.4021620   0.6615810  )
        36           Si  tau(  36) = (   0.9313100   0.6142700   0.3438190  )
        37           Si  tau(  37) = (   0.4092270   0.0689310   0.8841810  )
        38           Si  tau(  38) = (   0.8684360   0.2553420   0.4477000  )
        39           Si  tau(  39) = (   0.6317390   0.9126500   0.8738990  )
        40           Si  tau(  40) = (   0.0955961   0.9815510   0.5103200  )
        41           Si  tau(  41) = (   0.6943500   0.1595450   0.9623720  )
        42           Si  tau(  42) = (   0.2084600   0.2323740   0.5283790  )
        43           Si  tau(  43) = (   0.6382450   0.5867150   0.1882900  )
        44           Si  tau(  44) = (   0.3699940   0.8567170   0.0772896  )
        45           Si  tau(  45) = (   0.1091350   0.4339950   0.1374860  )
        46           Si  tau(  46) = (   0.0180659   0.2129220   0.0403920  )
        47           Si  tau(  47) = (   0.4853640   0.2419640   0.0472329  )
        48           Si  tau(  48) = (   0.8412740   0.0416524   0.6745990  )
        49           Si  tau(  49) = (   0.0519629   0.1630900   0.7177400  )
        50           Si  tau(  50) = (   0.8475140   0.9267030   0.8799670  )
        51           Si  tau(  51) = (   0.1462440   0.0257420   0.0039375  )
        52           Si  tau(  52) = (   0.9056910   0.9302300   0.1071980  )
        53           Si  tau(  53) = (   0.9558370   0.3695840   0.8681840  )
        54           Si  tau(  54) = (   0.9915960   0.7701060   0.7952380  )
        55           Si  tau(  55) = (   0.9802620   0.7045850   0.5849480  )
        56           Si  tau(  56) = (   0.1151330   0.6227730   0.9597490  )
        57           Si  tau(  57) = (   0.4677430   0.7132900   0.4275570  )
        58           Si  tau(  58) = (   0.2156660   0.5419220   0.7546300  )
        59           Si  tau(  59) = (   0.5709970   0.1213950   0.2490040  )
        60           Si  tau(  60) = (   0.6619250   0.1423390   0.6562470  )
        61           Si  tau(  61) = (   0.3725410   0.6473840   0.2288190  )
        62           Si  tau(  62) = (   0.3596740   0.4593860   0.0072011  )
        63           Si  tau(  63) = (   0.3517900   0.4355460   0.4532530  )
        64           Si  tau(  64) = (   0.8160670   0.7188290   0.1913140  )

     number of k points=     1  Fermi-Dirac smearing, width (Ry)=  0.0100
                       cart. coord. in units 2pi/alat
        k(    1) = (   0.0000000   0.0000000   0.0000000), wk =   2.0000000

     Dense  grid:    86771 G-vectors     FFT dimensions: (  72,  72,  72)

     Estimated max dynamical RAM per process >     139.79 MB

     Estimated total dynamical RAM >     537.96 MB

     Initial potential from superposition of free atoms

     starting charge     255.9608, renormalised to     256.0000
     Starting wfcs are  256 randomized atomic wfcs

     total cpu time spent up to now is        5.0 secs

     Self-consistent Calculation

     iteration #  1     ecut=    30.00 Ry     beta= 0.50
     Davidson diagonalization with overlap
     ethr =  1.00E-02,  avg # of iterations =  3.0

     Threshold (ethr) on eigenvalues was too large:
     Diagonalizing with lowered threshold

     Davidson diagonalization with overlap
     ethr =  4.70E-04,  avg # of iterations =  4.0

     total cpu time spent up to now is        5.3 secs

     total energy              =    -501.16567424 Ry
     estimated scf accuracy    <       1.43369581 Ry

     iteration #  2     ecut=    30.00 Ry     beta= 0.50
     Davidson diagonalization with overlap
     ethr =  5.60E-04,  avg # of iterations =  6.0

     total cpu time spent up to now is        5.4 secs

     total energy              =    -500.34121563 Ry
     estimated scf accuracy    <      11.79971622 Ry

     iteration #  3     ecut=    30.00 Ry     beta= 0.50
     Davidson diagonalization with overlap
     ethr =  5.60E-04,  avg # of iterations =  5.0

     total cpu time spent up to now is        5.5 secs

     total energy              =    -501.39647963 Ry
     estimated scf accuracy    <       1.47728808 Ry

     iteration #  4     ecut=    30.00 Ry     beta= 0.50
     Davidson diagonalization with overlap
     ethr =  5.60E-04,  avg # of iterations =  2.0

     total cpu time spent up to now is        5.6 secs

     total energy              =    -501.49387027 Ry
     estimated scf accuracy    <       0.41696567 Ry

     iteration #  5     ecut=    30.00 Ry     beta= 0.50
     Davidson diagonalization with overlap
     ethr =  1.63E-04,  avg # of iterations =  2.0

     total cpu time spent up to now is        5.7 secs

     total energy              =    -501.52714615 Ry
     estimated scf accuracy    <       0.19260953 Ry

     iteration #  6     ecut=    30.00 Ry     beta= 0.50
     Davidson diagonalization with overlap
     ethr =  7.52E-05,  avg # of iterations =  2.0

     total cpu time spent up to now is        5.8 secs

     total energy              =    -501.54501829 Ry
     estimated scf accuracy    <       0.14443277 Ry

     iteration #  7     ecut=    30.00 Ry     beta= 0.50
     Davidson diagonalization with overlap
     ethr =  5.64E-05,  avg # of iterations =  1.0

     total cpu time spent up to now is        5.9 secs

     total energy              =    -501.55721822 Ry
     estimated scf accuracy    <       0.00747397 Ry

     iteration #  8     ecut=    30.00 Ry     beta= 0.50
     Davidson diagonalization with overlap
     ethr =  2.92E-06,  avg # of iterations = 16.0

     total cpu time spent up to now is        6.1 secs

     total energy              =    -501.55788732 Ry
     estimated scf accuracy    <       0.02107456 Ry

     iteration #  9     ecut=    30.00 Ry     beta= 0.50
     Davidson diagonalization with overlap
     ethr =  2.92E-06,  avg # of iterations =  3.0

     total cpu time spent up to now is        6.2 secs

     total energy              =    -501.55959684 Ry
     estimated scf accuracy    <       0.00288544 Ry

     iteration # 10     ecut=    30.00 Ry     beta= 0.50
     Davidson diagonalization with overlap
     ethr =  1.13E-06,  avg # of iterations =  2.0

     total cpu time spent up to now is        6.3 secs

     total energy              =    -501.55981214 Ry
     estimated scf accuracy    <       0.00082779 Ry

     iteration # 11     ecut=    30.00 Ry     beta= 0.50
     Davidson diagonalization with overlap
     ethr =  3.23E-07,  avg # of iterations =  2.0

     total cpu time spent up to now is        6.4 secs

     total energy              =    -501.55985087 Ry
     estimated scf accuracy    <       0.00061458 Ry

     iteration # 12     ecut=    30.00 Ry     beta= 0.50
     Davidson diagonalization with overlap
     ethr =  2.40E-07,  avg # of iterations =  2.0

     total cpu time spent up to now is        6.5 secs

     total energy              =    -501.55990764 Ry
     estimated scf accuracy    <       0.00041435 Ry

     iteration # 13     ecut=    30.00 Ry     beta= 0.50
     Davidson diagonalization with overlap
     ethr =  1.62E-07,  avg # of iterations =  1.0

     total cpu time spent up to now is        6.6 secs

     total energy              =    -501.55993844 Ry
     estimated scf accuracy    <       0.00003205 Ry

     iteration # 14     ecut=    30.00 Ry     beta= 0.50
     Davidson diagonalization with overlap
     ethr =  1.25E-08,  avg # of iterations =  4.0

     total cpu time spent up to now is        6.7 secs

     total energy              =    -501.55994203 Ry
     estimated scf accuracy    <       0.00003262 Ry

     iteration # 15     ecut=    30.00 Ry     beta= 0.50
     Davidson diagonalization with overlap
     ethr =  1.25E-08,  avg # of iterations =  2.0

     total cpu time spent up to now is        6.8 secs

     total energy              =    -501.55994358 Ry
     estimated scf accuracy    <       0.00000738 Ry

     iteration # 16     ecut=    30.00 Ry     beta= 0.50
     Davidson diagonalization with overlap
     ethr =  2.88E-09,  avg # of iterations =  3.0

     total cpu time spent up to now is        6.9 secs

     total energy              =    -501.55994450 Ry
     estimated scf accuracy    <       0.00001159 Ry

     iteration # 17     ecut=    30.00 Ry     beta= 0.50
     Davidson diagonalization with overlap
     ethr =  2.88E-09,  avg # of iterations =  2.0

     total cpu time spent up to now is        7.0 secs

     total energy              =    -501.55994502 Ry
     estimated scf accuracy    <       0.00000545 Ry

     iteration # 18     ecut=    30.00 Ry     beta= 0.50
     Davidson diagonalization with overlap
     ethr =  2.13E-09,  avg # of iterations =  1.0

     total cpu time spent up to now is        7.0 secs

     End of self-consistent calculation

          k = 0.0000 0.0000 0.0000 ( 10912 PWs)   bands (ev):

    -5.1332  -4.0977  -4.0440  -3.9828  -3.8401  -3.8002  -3.6400  -3.0591
    -2.9762  -2.8702  -2.7658  -2.7305  -2.7024  -2.6511  -2.5468  -2.4605
    -2.3594  -2.3187  -2.1241  -1.7473  -1.5875  -1.5595  -1.4492  -1.3816
    -1.2648  -1.1383  -0.9852  -0.5209  -0.4053  -0.2780  -0.2568  -0.2136
    -0.0274   0.1936   0.3004   0.5498   0.6126   0.6438   0.7240   0.7745
     0.8696   0.9138   0.9596   1.0949   1.1410   1.2132   1.2943   1.3611
     1.4908   1.5378   1.6573   1.6796   1.7875   1.7965   1.9380   2.0190
     2.0543   2.1478   2.2975   2.3874   2.5718   2.6021   2.6792   2.6927
     2.8139   2.8948   2.9867   3.0685   3.1123   3.1984   3.2927   3.3225
     3.3747   3.4520   3.6025   3.7013   3.8056   3.9124   3.9850   4.0672
     4.1925   4.6983   4.7549   4.8065   4.9118   4.9824   5.0488   5.1334
     5.1627   5.2013   5.2786   5.3636   5.4373   5.5488   5.6358   5.6738
     5.7752   5.9093   5.9503   5.9903   6.0391   6.1095   6.1939   6.2452
     6.2489   6.3023   6.3690   6.3857   6.4485   6.4765   6.5453   6.5648
     6.6638   6.6878   6.6966   6.7414   6.8259   6.9250   6.9508   6.9985
     7.0733   7.1241   7.1899   7.2511   7.2714   7.3310   7.4216   7.4789
     7.6072   7.6681   7.7360   7.7534   7.8112   7.8446   7.9928   8.0476
     8.0791   8.1857   8.3038   8.3567   8.3793   8.4234   8.4891   8.5933
     8.6395   8.7409   8.7914   8.8474   8.9124   8.9713   9.0195   9.1262
     9.1549   9.2881

     the Fermi energy is     7.5373 ev

!    total energy              =    -501.55994498 Ry
     estimated scf accuracy    <       0.00000059 Ry
     smearing contrib. (-TS)   =      -0.13501517 Ry
     internal energy E=F+TS    =    -501.42492981 Ry

     The total energy is F=E-TS. E is the sum of the following terms:
     one-electron contribution =     204.08012084 Ry
     hartree contribution      =      20.58476832 Ry
     xc contribution           =    -151.96849831 Ry
     ewald contribution        =    -574.12132066 Ry

     convergence has been achieved in  18 iterations

     Forces acting on atoms (cartesian axes, Ry/au):

     atom    1 type  1   force =    -0.00847478   -0.01712766   -0.00748546
     atom    2 type  1   force =    -0.01733950    0.00931761   -0.01945849
     atom    3 type  1   force =     0.01056590   -0.00096952   -0.01440718
     atom    4 type  1   force =     0.00366397    0.00838022    0.00199799
     atom    5 type  1   force =     0.00875728    0.00626907    0.00362400
     atom    6 type  1   force =    -0.00109460   -0.03010977    0.00685057
     atom    7 type  1   force =    -0.00318535    0.01462468   -0.02170826
     atom    8 type  1   force =    -0.00279471   -0.03148566   -0.04284795
     atom    9 type  1   force =    -0.04830313    0.04503468    0.01310025
     atom   10 type  1   force =    -0.03167794   -0.02720073    0.01795150
     atom   11 type  1   force =    -0.00048994    0.00158381    0.00676921
     atom   12 type  1   force =     0.02341287   -0.03632777   -0.05622349
     atom   13 type  1   force =     0.00467239    0.00137122   -0.00118821
     atom   14 type  1   force =     0.00234096   -0.00556322   -0.02547970
     atom   15 type  1   force =    -0.02282960   -0.00804157   -0.03594456
     atom   16 type  1   force =     0.05036930   -0.01275902   -0.00526251
     atom   17 type  1   force =    -0.05960634   -0.03840015    0.02340383
     atom   18 type  1   force =     0.01128541    0.02953559    0.05265337
     atom   19 type  1   force =    -0.02833355   -0.02306529    0.04446730
     atom   20 type  1   force =     0.03058985   -0.00798795    0.04170955
     atom   21 type  1   force =    -0.00844887   -0.00543856    0.00382486
     atom   22 type  1   force =    -0.02824371    0.05987015   -0.01141994
     atom   23 type  1   force =    -0.01919283    0.00344279    0.01007481
     atom   24 type  1   force =     0.02803812   -0.01493839   -0.03797390
     atom   25 type  1   force =    -0.02742054    0.01143915   -0.02503749
     atom   26 type  1   force =     0.03083891   -0.02677266    0.00639185
     atom   27 type  1   force =    -0.01317070   -0.00402824    0.03676607
     atom   28 type  1   force =     0.03749339   -0.01461456    0.02430535
     atom   29 type  1   force =     0.02141238    0.01519982   -0.00638493
     atom   30 type  1   force =     0.00905677    0.00498187   -0.01146729
     atom   31 type  1   force =    -0.05552514   -0.04799764   -0.00564592
     atom   32 type  1   force =     0.01263126    0.02352738   -0.02870705
     atom   33 type  1   force =     0.00582401   -0.01101910    0.01008450
     atom   34 type  1   force =     0.01901004    0.00525020    0.00606017
     atom   35 type  1   force =     0.00337695   -0.00954974   -0.04907424
     atom   36 type  1   force =     0.01519449   -0.03244392    0.05446300
     atom   37 type  1   force =    -0.00206525    0.01000165   -0.00222967
     atom   38 type  1   force =    -0.00298545    0.00814838    0.01911530
     atom   39 type  1   force =    -0.03351180    0.01627318    0.01772836
     atom   40 type  1   force =     0.00701998    0.01607575   -0.00002302
     atom   41 type  1   force =    -0.05356912   -0.02905353   -0.00569545
     atom   42 type  1   force =    -0.01238529   -0.00153995    0.00550446
     atom   43 type  1   force =    -0.03961457    0.00706810    0.00178444
     atom   44 type  1   force =     0.00135504   -0.01622966    0.01274036
     atom   45 type  1   force =    -0.00398416    0.00132257    0.00493169
     atom   46 type  1   force =    -0.00213621    0.03433964    0.00416807
     atom   47 type  1   force =    -0.00242486   -0.00564207    0.00379797
     atom   48 type  1   force =     0.10668781   -0.00700955    0.04612276
     atom   49 type  1   force =    -0.00582649   -0.01111256   -0.00009815
     atom   50 type  1   force =     0.03494026   -0.00051195   -0.00842731
     atom   51 type  1   force =     0.02432195   -0.00350348   -0.01446112
     atom   52 type  1   force =    -0.00621507   -0.01506973   -0.00775957
     atom   53 type  1   force =     0.00621817   -0.00517543   -0.00655879
     atom   54 type  1   force =     0.00757955   -0.00188537    0.03525713
     atom   55 type  1   force =    -0.04438426   -0.00500461   -0.02200540
     atom   56 type  1   force =    -0.00940490    0.00982372   -0.01161308
     atom   57 type  1   force =     0.01361517    0.01126718    0.01048325
     atom   58 type  1   force =     0.01311902    0.00154957    0.01072615
     atom   59 type  1   force =    -0.01477942    0.00997391   -0.03098662
     atom   60 type  1   force =     0.00241334    0.11010784    0.00011674
     atom   61 type  1   force =     0.02743770    0.00485362   -0.00958838
     atom   62 type  1   force =     0.02760545   -0.02486375    0.00979536
     atom   63 type  1   force =    -0.00538075    0.00661749    0.02076956
     atom   64 type  1   force =     0.01395115    0.04519193   -0.04237666

     Total force =     0.345971     Total SCF correction =     0.001572


     Computing stress (Cartesian axis) and pressure

          total   stress  (Ry/bohr**3)                   (kbar)     P=      -10.92
  -0.00002172  -0.00006981   0.00004136           -3.20      -10.27        6.08
  -0.00006981  -0.00012874   0.00002553          -10.27      -18.94        3.76
   0.00004136   0.00002553  -0.00007225            6.08        3.76      -10.63

 
     init_run     :      1.09s CPU      4.93s WALL (       1 calls)
     electrons    :      1.88s CPU      2.03s WALL (       1 calls)
     forces       :      0.03s CPU      0.04s WALL (       1 calls)
     stress       :      0.15s CPU      0.15s WALL (       1 calls)

     Called by init_run:
     wfcinit      :      0.55s CPU      4.21s WALL (       1 calls)
                                        4.21s GPU  (       1 calls)
     potinit      :      0.06s CPU      0.15s WALL (       1 calls)
     hinit0       :      0.47s CPU      0.49s WALL (       1 calls)

     Called by electrons:
     c_bands      :      1.12s CPU      1.19s WALL (      19 calls)
     sum_band     :      0.38s CPU      0.42s WALL (      19 calls)
     v_of_rho     :      0.18s CPU      0.29s WALL (      19 calls)
     mix_rho      :      0.17s CPU      0.19s WALL (      19 calls)

     Called by c_bands:
     init_us_2    :      0.07s CPU      0.07s WALL (      39 calls)
     init_us_2:gp :      0.07s CPU      0.07s WALL (      39 calls)
     regterg      :      0.96s CPU      1.02s WALL (      19 calls)

     Called by *egterg:
     rdiaghg      :      0.39s CPU      1.15s WALL (      81 calls)
                                        1.13s GPU  (      81 calls)
     h_psi        :      0.94s CPU      3.89s WALL (      83 calls)
                                        3.89s GPU  (      83 calls)
     g_psi        :      0.00s CPU      0.00s WALL (      63 calls)
                                        0.00s GPU  (      63 calls)

     Called by h_psi:
     h_psi:calbec :      0.51s CPU      3.38s WALL (      83 calls)
                                        3.38s GPU  (      83 calls)
     vloc_psi     :      0.38s CPU      0.45s WALL (      83 calls)
                                        0.44s GPU  (      83 calls)
     add_vuspsi   :      0.03s CPU      0.05s WALL (      83 calls)
                                        0.05s GPU  (      83 calls)

     General routines
     calbec       :      0.52s CPU      3.39s WALL (      88 calls)
     fft          :      0.62s CPU      0.75s WALL (     159 calls)
                                        0.14s GPU  (     101 calls)
     ffts         :      0.05s CPU      0.05s WALL (      19 calls)
     fftw         :      0.45s CPU      0.60s WALL (    2007 calls)
                                        0.52s GPU  (    2007 calls)
 
     Parallel routines
 
     PWSCF        :      3.20s CPU      7.24s WALL

 
   This run was terminated on:  10:42:19  10May2023            

=------------------------------------------------------------------------------=
   JOB DONE.
=------------------------------------------------------------------------------=
