An instance of this daemon is already running
An instance of this daemon is already running

     Program PWSCF v.7.1 starts on 10May2023 at 10:37:40 

     This program is part of the open-source Quantum ESPRESSO suite
     for quantum simulation of materials; please cite
         "P. Giannozzi et al., J. Phys.:Condens. Matter 21 395502 (2009);
         "P. Giannozzi et al., J. Phys.:Condens. Matter 29 465901 (2017);
         "P. Giannozzi et al., J. Chem. Phys. 152 154105 (2020);
          URL http://www.quantum-espresso.org", 
     in publications or presentations arising from this work. More details at
     http://www.quantum-espresso.org/quote

     Parallel version (MPI & OpenMP), running on       4 processor cores
     Number of MPI processes:                 4
     Threads/MPI process:                     1

     MPI processes distributed on     1 nodes
     753587 MiB available memory on the printing compute node when the environment starts
 
     Reading input from pw-si-1.in
Warning: card &CELL ignored
Warning: card / ignored

     Current dimensions of program PWSCF are:
     Max number of different atomic species (ntypx) = 10
     Max number of k-points (npk) =  40000
     Max angular momentum in pseudopotentials (lmaxx) =  4

     IMPORTANT: XC functional enforced from input :
     Exchange-correlation= PBE
                           (   1   4   3   4   0   0   0)
     Any further DFT definition will be discarded
     Please, verify this is what you really want


     gamma-point specific algorithms are used
 
     K-points division:     npool     =       2
     R & G space division:  proc/nbgrp/npool/nimage =       2
     Subspace diagonalization in iterative solution of the eigenvalue problem:
     a serial algorithm will be used

     Message from routine divide_et_impera:
     suboptimal parallelization: some nodes have no k-points
 
     Parallelization info
     --------------------
     sticks:   dense  smooth     PW     G-vecs:    dense   smooth      PW
     Min        1933    1933    515                90543    90543   12286
     Max        1936    1936    518                90548    90548   12287
     Sum        3869    3869   1033               181091   181091   24573
 
     Using Slab Decomposition
 


     bravais-lattice index     =            0
     lattice parameter (alat)  =      20.1355  a.u.
     unit-cell volume          =    8163.7111 (a.u.)^3
     number of atoms/cell      =           64
     number of atomic types    =            1
     number of electrons       =       256.00
     number of Kohn-Sham states=          154
     kinetic-energy cutoff     =      30.0000  Ry
     charge density cutoff     =     120.0000  Ry
     scf convergence threshold =      1.0E-06
     mixing beta               =       0.5000
     number of iterations used =            8  plain     mixing
     Exchange-correlation= PBE
                           (   1   4   3   4   0   0   0)

     GPU acceleration is ACTIVE.
     GPU-aware MPI enabled

     Message from routine print_cuda_info:
     High GPU oversubscription detected. Are you sure this is what you want?

     celldm(1)=  20.135506  celldm(2)=   0.000000  celldm(3)=   0.000000
     celldm(4)=   0.000000  celldm(5)=   0.000000  celldm(6)=   0.000000

     crystal axes: (cart. coord. in units of alat)
               a(1) = (   1.000000   0.000000   0.000000 )  
               a(2) = (   0.000000   1.000000   0.000000 )  
               a(3) = (   0.000000   0.000000   1.000000 )  

     reciprocal axes: (cart. coord. in units 2 pi/alat)
               b(1) = (  1.000000  0.000000  0.000000 )  
               b(2) = (  0.000000  1.000000  0.000000 )  
               b(3) = (  0.000000  0.000000  1.000000 )  


     PseudoPot. # 1 for Si read from file:
     /home/ppiaggi/pseudos/Si_ONCV_PBE_sr.upf
     MD5 check sum: 8553c464762ac42b85b1eed164b4d029
     Pseudo is Norm-conserving, Zval =  4.0
     Generated using ONCVPSP code by D. R. Hamann
     Using radial grid of 1510 points,  4 beta functions with: 
                l(1) =   0
                l(2) =   0
                l(3) =   1
                l(4) =   1

     atomic species   valence    mass     pseudopotential
        Si             4.00    28.08500     Si( 1.00)

     No symmetry found



   Cartesian axes

     site n.     atom                  positions (alat units)
         1           Si  tau(   1) = (   0.9828380   0.5623640   0.9542270  )
         2           Si  tau(   2) = (   0.0819718   0.4467560   0.4279740  )
         3           Si  tau(   3) = (   0.1395160   0.5669350   0.7976670  )
         4           Si  tau(   4) = (   0.4469770   0.4598340   0.9721580  )
         5           Si  tau(   5) = (   0.7905140   0.9615640   0.5292060  )
         6           Si  tau(   6) = (   0.3044700   0.7950540   0.3407610  )
         7           Si  tau(   7) = (   0.6564720   0.0915480   0.3535580  )
         8           Si  tau(   8) = (   0.5893400   0.8136030   0.5071880  )
         9           Si  tau(   9) = (   0.4927770   0.3212680   0.3237310  )
        10           Si  tau(  10) = (   0.9728420   0.3803160   0.0965418  )
        11           Si  tau(  11) = (   0.8382240   0.7617070   0.9570330  )
        12           Si  tau(  12) = (   0.5071240   0.0610461   0.7701500  )
        13           Si  tau(  13) = (   0.9560780   0.2251470   0.3645050  )
        14           Si  tau(  14) = (   0.0543048   0.1679000   0.6416740  )
        15           Si  tau(  15) = (   0.4974280   0.3749310   0.7249090  )
        16           Si  tau(  16) = (   0.0039868   0.9655160   0.7532290  )
        17           Si  tau(  17) = (   0.5377370   0.5929890   0.6860320  )
        18           Si  tau(  18) = (   0.9978920   0.0480844   0.0855909  )
        19           Si  tau(  19) = (   0.8080570   0.8226140   0.7037940  )
        20           Si  tau(  20) = (   0.0725528   0.6747740   0.1383980  )
        21           Si  tau(  21) = (   0.1521550   0.9770360   0.2493470  )
        22           Si  tau(  22) = (   0.1370080   0.9844990   0.9219620  )
        23           Si  tau(  23) = (   0.3854820   0.1065600   0.2969010  )
        24           Si  tau(  24) = (   0.3230160   0.6947200   0.8760220  )
        25           Si  tau(  25) = (   0.6221130   0.3056810   0.1266200  )
        26           Si  tau(  26) = (   0.5500190   0.6650000   0.9983320  )
        27           Si  tau(  27) = (   0.2664740   0.2386210   0.5851420  )
        28           Si  tau(  28) = (   0.3868010   0.7932750   0.6922920  )
        29           Si  tau(  29) = (   0.9929130   0.3447980   0.7730610  )
        30           Si  tau(  30) = (   0.7006360   0.2681220   0.8033330  )
        31           Si  tau(  31) = (   0.7479090   0.9683110   0.1206100  )
        32           Si  tau(  32) = (   0.7396850   0.3620820   0.4255030  )
        33           Si  tau(  33) = (   0.6246660   0.5458020   0.4746510  )
        34           Si  tau(  34) = (   0.3590670   0.4496160   0.5268120  )
        35           Si  tau(  35) = (   0.2385510   0.8200800   0.0530544  )
        36           Si  tau(  36) = (   0.7652950   0.0216557   0.8896050  )
        37           Si  tau(  37) = (   0.8612480   0.5144990   0.2808230  )
        38           Si  tau(  38) = (   0.8953710   0.2034650   0.9611930  )
        39           Si  tau(  39) = (   0.7470430   0.5908160   0.7602670  )
        40           Si  tau(  40) = (   0.9918070   0.6756560   0.6252890  )
        41           Si  tau(  41) = (   0.2199110   0.6435560   0.5039850  )
        42           Si  tau(  42) = (   0.7043550   0.6675420   0.1677590  )
        43           Si  tau(  43) = (   0.8002790   0.1929780   0.2083730  )
        44           Si  tau(  44) = (   0.5181440   0.0206946   0.1353210  )
        45           Si  tau(  45) = (   0.2599670   0.1943600   0.9514370  )
        46           Si  tau(  46) = (   0.9876230   0.0095398   0.4214630  )
        47           Si  tau(  47) = (   0.4386190   0.8071130   0.1309450  )
        48           Si  tau(  48) = (   0.1853390   0.2115160   0.3102290  )
        49           Si  tau(  49) = (   0.5990570   0.8609520   0.8209350  )
        50           Si  tau(  50) = (   0.1845520   0.3477700   0.1216020  )
        51           Si  tau(  51) = (   0.8770560   0.4509370   0.6181550  )
        52           Si  tau(  52) = (   0.8423710   0.6799780   0.4454790  )
        53           Si  tau(  53) = (   0.7339260   0.4729330   0.9555180  )
        54           Si  tau(  54) = (   0.1926540   0.5389650   0.2521990  )
        55           Si  tau(  55) = (   0.4765120   0.1771600   0.9615210  )
        56           Si  tau(  56) = (   0.7800070   0.1963970   0.5875480  )
        57           Si  tau(  57) = (   0.5034690   0.1666090   0.5534230  )
        58           Si  tau(  58) = (   0.2997100   0.0181405   0.7320080  )
        59           Si  tau(  59) = (   0.5186750   0.6699620   0.3045330  )
        60           Si  tau(  60) = (   0.9159100   0.8184560   0.2411090  )
        61           Si  tau(  61) = (   0.2527730   0.3536970   0.7781760  )
        62           Si  tau(  62) = (   0.4115810   0.5070090   0.2105860  )
        63           Si  tau(  63) = (   0.1270180   0.8777550   0.5667680  )
        64           Si  tau(  64) = (   0.3843560   0.9506490   0.4696820  )

     number of k points=     1  Fermi-Dirac smearing, width (Ry)=  0.0100
                       cart. coord. in units 2pi/alat
        k(    1) = (   0.0000000   0.0000000   0.0000000), wk =   2.0000000

     Dense  grid:    90546 G-vectors     FFT dimensions: (  72,  72,  72)

     Estimated max dynamical RAM per process >     145.44 MB

     Estimated total dynamical RAM >     559.66 MB

     Initial potential from superposition of free atoms

     starting charge     255.9608, renormalised to     256.0000
     Starting wfcs are  256 randomized atomic wfcs

     total cpu time spent up to now is        5.0 secs

     Self-consistent Calculation

     iteration #  1     ecut=    30.00 Ry     beta= 0.50
     Davidson diagonalization with overlap
     ethr =  1.00E-02,  avg # of iterations =  3.0

     Threshold (ethr) on eigenvalues was too large:
     Diagonalizing with lowered threshold

     Davidson diagonalization with overlap
     ethr =  3.74E-04,  avg # of iterations =  4.0

     total cpu time spent up to now is        5.3 secs

     total energy              =    -501.32274959 Ry
     estimated scf accuracy    <       1.14799068 Ry

     iteration #  2     ecut=    30.00 Ry     beta= 0.50
     Davidson diagonalization with overlap
     ethr =  4.48E-04,  avg # of iterations =  4.0

     total cpu time spent up to now is        5.4 secs

     total energy              =    -501.01873428 Ry
     estimated scf accuracy    <       3.23307148 Ry

     iteration #  3     ecut=    30.00 Ry     beta= 0.50
     Davidson diagonalization with overlap
     ethr =  4.48E-04,  avg # of iterations =  4.0

     total cpu time spent up to now is        5.6 secs

     total energy              =    -501.32367850 Ry
     estimated scf accuracy    <       2.47072920 Ry

     iteration #  4     ecut=    30.00 Ry     beta= 0.50
     Davidson diagonalization with overlap
     ethr =  4.48E-04,  avg # of iterations =  2.0

     total cpu time spent up to now is        5.6 secs

     total energy              =    -501.50201105 Ry
     estimated scf accuracy    <       0.39298383 Ry

     iteration #  5     ecut=    30.00 Ry     beta= 0.50
     Davidson diagonalization with overlap
     ethr =  1.54E-04,  avg # of iterations =  2.0

     total cpu time spent up to now is        5.7 secs

     total energy              =    -501.52590007 Ry
     estimated scf accuracy    <       0.24070117 Ry

     iteration #  6     ecut=    30.00 Ry     beta= 0.50
     Davidson diagonalization with overlap
     ethr =  9.40E-05,  avg # of iterations =  2.0

     total cpu time spent up to now is        5.8 secs

     total energy              =    -501.54776029 Ry
     estimated scf accuracy    <       0.15511621 Ry

     iteration #  7     ecut=    30.00 Ry     beta= 0.50
     Davidson diagonalization with overlap
     ethr =  6.06E-05,  avg # of iterations =  1.0

     total cpu time spent up to now is        5.9 secs

     total energy              =    -501.56077261 Ry
     estimated scf accuracy    <       0.00788949 Ry

     iteration #  8     ecut=    30.00 Ry     beta= 0.50
     Davidson diagonalization with overlap
     c_bands:  1 eigenvalues not converged
     ethr =  3.08E-06,  avg # of iterations = 20.0

     total cpu time spent up to now is        6.1 secs

     total energy              =    -501.56170819 Ry
     estimated scf accuracy    <       0.01375313 Ry

     iteration #  9     ecut=    30.00 Ry     beta= 0.50
     Davidson diagonalization with overlap
     ethr =  3.08E-06,  avg # of iterations =  3.0

     total cpu time spent up to now is        6.2 secs

     total energy              =    -501.56294638 Ry
     estimated scf accuracy    <       0.00378105 Ry

     iteration # 10     ecut=    30.00 Ry     beta= 0.50
     Davidson diagonalization with overlap
     ethr =  1.48E-06,  avg # of iterations =  2.0

     total cpu time spent up to now is        6.3 secs

     total energy              =    -501.56322513 Ry
     estimated scf accuracy    <       0.00077434 Ry

     iteration # 11     ecut=    30.00 Ry     beta= 0.50
     Davidson diagonalization with overlap
     ethr =  3.02E-07,  avg # of iterations =  2.0

     total cpu time spent up to now is        6.4 secs

     total energy              =    -501.56327081 Ry
     estimated scf accuracy    <       0.00058547 Ry

     iteration # 12     ecut=    30.00 Ry     beta= 0.50
     Davidson diagonalization with overlap
     ethr =  2.29E-07,  avg # of iterations =  2.0

     total cpu time spent up to now is        6.5 secs

     total energy              =    -501.56332849 Ry
     estimated scf accuracy    <       0.00018941 Ry

     iteration # 13     ecut=    30.00 Ry     beta= 0.50
     Davidson diagonalization with overlap
     ethr =  7.40E-08,  avg # of iterations =  2.0

     total cpu time spent up to now is        6.6 secs

     total energy              =    -501.56334303 Ry
     estimated scf accuracy    <       0.00010525 Ry

     iteration # 14     ecut=    30.00 Ry     beta= 0.50
     Davidson diagonalization with overlap
     ethr =  4.11E-08,  avg # of iterations =  2.0

     total cpu time spent up to now is        6.7 secs

     total energy              =    -501.56335105 Ry
     estimated scf accuracy    <       0.00001709 Ry

     iteration # 15     ecut=    30.00 Ry     beta= 0.50
     Davidson diagonalization with overlap
     ethr =  6.68E-09,  avg # of iterations =  2.0

     total cpu time spent up to now is        6.8 secs

     total energy              =    -501.56335172 Ry
     estimated scf accuracy    <       0.00000927 Ry

     iteration # 16     ecut=    30.00 Ry     beta= 0.50
     Davidson diagonalization with overlap
     ethr =  3.62E-09,  avg # of iterations =  3.0

     total cpu time spent up to now is        6.9 secs

     total energy              =    -501.56335298 Ry
     estimated scf accuracy    <       0.00001288 Ry

     iteration # 17     ecut=    30.00 Ry     beta= 0.50
     Davidson diagonalization with overlap
     ethr =  3.62E-09,  avg # of iterations =  2.0

     total cpu time spent up to now is        7.0 secs

     total energy              =    -501.56335358 Ry
     estimated scf accuracy    <       0.00000115 Ry

     iteration # 18     ecut=    30.00 Ry     beta= 0.50
     Davidson diagonalization with overlap
     ethr =  4.50E-10,  avg # of iterations =  4.0

     total cpu time spent up to now is        7.1 secs

     total energy              =    -501.56335369 Ry
     estimated scf accuracy    <       0.00000204 Ry

     iteration # 19     ecut=    30.00 Ry     beta= 0.50
     Davidson diagonalization with overlap
     ethr =  4.50E-10,  avg # of iterations =  2.0

     total cpu time spent up to now is        7.2 secs

     End of self-consistent calculation

          k = 0.0000 0.0000 0.0000 ( 11372 PWs)   bands (ev):

    -5.2781  -4.3415  -4.2542  -4.1540  -4.0332  -3.9991  -3.9171  -3.3146
    -3.1683  -3.0689  -3.0465  -3.0276  -2.9134  -2.8612  -2.8396  -2.7262
    -2.6268  -2.5555  -2.4781  -2.0865  -1.9844  -1.9208  -1.8097  -1.7009
    -1.6214  -1.3804  -1.1131  -0.8097  -0.7596  -0.5686  -0.5344  -0.4927
    -0.2437  -0.0758  -0.0185   0.0122   0.1648   0.1973   0.3100   0.3694
     0.4210   0.5425   0.5937   0.6352   0.7249   0.7901   0.8283   0.9381
     0.9637   1.0986   1.1930   1.2752   1.3251   1.3714   1.4824   1.5158
     1.6889   1.7571   1.9333   2.0834   2.2405   2.2707   2.3896   2.4522
     2.5332   2.6289   2.7722   2.7792   2.8459   2.9384   2.9930   3.0370
     3.2035   3.2309   3.2780   3.3431   3.4165   3.4569   3.5351   3.6070
     3.8069   4.1365   4.2583   4.4122   4.4262   4.5372   4.6287   4.6676
     4.7037   4.7915   4.8931   4.9776   5.0497   5.0601   5.1837   5.3073
     5.3166   5.3372   5.3914   5.4915   5.5286   5.6249   5.6415   5.6787
     5.7720   5.7885   5.8121   5.8496   5.8802   5.9427   6.0611   6.1096
     6.1144   6.2123   6.2283   6.3690   6.3901   6.4246   6.4870   6.5309
     6.5900   6.6588   6.7556   6.8401   6.8980   6.9691   7.0667   7.0926
     7.1573   7.1829   7.2457   7.3312   7.3333   7.4069   7.5024   7.5696
     7.6181   7.6862   7.7591   7.8419   7.8760   7.9372   7.9568   8.1004
     8.1383   8.1950   8.2260   8.3225   8.4008   8.4545   8.5543   8.5957
     8.6564   8.7333

     the Fermi energy is     7.1094 ev

!    total energy              =    -501.56335379 Ry
     estimated scf accuracy    <       0.00000009 Ry
     smearing contrib. (-TS)   =      -0.14762176 Ry
     internal energy E=F+TS    =    -501.41573202 Ry

     The total energy is F=E-TS. E is the sum of the following terms:
     one-electron contribution =     194.53160256 Ry
     hartree contribution      =      20.77757043 Ry
     xc contribution           =    -150.43855449 Ry
     ewald contribution        =    -566.28635052 Ry

     convergence has been achieved in  19 iterations

     Forces acting on atoms (cartesian axes, Ry/au):

     atom    1 type  1   force =    -0.01890269   -0.00134006    0.03233770
     atom    2 type  1   force =    -0.00787372   -0.00406719    0.00178659
     atom    3 type  1   force =     0.00731205   -0.01270597   -0.03025184
     atom    4 type  1   force =     0.00795177    0.01386076    0.00886372
     atom    5 type  1   force =    -0.01541114    0.03885725   -0.02796070
     atom    6 type  1   force =    -0.01273734   -0.01992365    0.00132367
     atom    7 type  1   force =    -0.02438755   -0.00435276    0.02333427
     atom    8 type  1   force =    -0.01845738    0.00297155   -0.01589652
     atom    9 type  1   force =     0.01255592   -0.00752941    0.00798190
     atom   10 type  1   force =    -0.04546139    0.02640230   -0.00261337
     atom   11 type  1   force =    -0.01326546   -0.02196891    0.00126315
     atom   12 type  1   force =     0.02302910    0.01355074    0.00778750
     atom   13 type  1   force =     0.04079356    0.01902127    0.01053769
     atom   14 type  1   force =    -0.01065883   -0.02520980   -0.01598399
     atom   15 type  1   force =    -0.01281687    0.00947674    0.00552751
     atom   16 type  1   force =    -0.02939065   -0.00220978   -0.02954733
     atom   17 type  1   force =    -0.00257269    0.00312641   -0.03614536
     atom   18 type  1   force =    -0.01682403   -0.01030099    0.02307433
     atom   19 type  1   force =     0.00516162   -0.02143711    0.04037414
     atom   20 type  1   force =    -0.01491847    0.05753351   -0.04013341
     atom   21 type  1   force =    -0.01019936    0.00099519    0.00767229
     atom   22 type  1   force =     0.05799890    0.00338185    0.02003339
     atom   23 type  1   force =     0.00571899    0.00220263    0.02131963
     atom   24 type  1   force =    -0.00389450   -0.02200640    0.02842887
     atom   25 type  1   force =    -0.01820216    0.01712699   -0.01764239
     atom   26 type  1   force =    -0.00200876    0.01223127   -0.02647403
     atom   27 type  1   force =     0.01008241   -0.01679659   -0.02021695
     atom   28 type  1   force =     0.02342914   -0.00719222   -0.02223300
     atom   29 type  1   force =     0.00043565   -0.01936132    0.01863028
     atom   30 type  1   force =    -0.01272379    0.00430468   -0.00242543
     atom   31 type  1   force =     0.03434830    0.01778289   -0.01154107
     atom   32 type  1   force =     0.01931635   -0.00597344   -0.01082792
     atom   33 type  1   force =     0.00377331    0.03637828    0.01462131
     atom   34 type  1   force =     0.00136576   -0.00834652   -0.00294959
     atom   35 type  1   force =    -0.05952611   -0.00544840   -0.03026038
     atom   36 type  1   force =     0.01607433   -0.02040112    0.01854251
     atom   37 type  1   force =    -0.00657488   -0.02379900   -0.00156497
     atom   38 type  1   force =     0.00472729    0.03115388   -0.00177236
     atom   39 type  1   force =     0.02215018    0.01430463   -0.01232236
     atom   40 type  1   force =     0.01043359   -0.00933041   -0.00210023
     atom   41 type  1   force =     0.00214227    0.00673053   -0.00597550
     atom   42 type  1   force =     0.04264124   -0.01193191   -0.01253263
     atom   43 type  1   force =     0.00332146   -0.02172521   -0.03212052
     atom   44 type  1   force =    -0.00374889   -0.01495203    0.00576039
     atom   45 type  1   force =    -0.03189534    0.01833393    0.00203532
     atom   46 type  1   force =     0.01592488   -0.03161746    0.00860694
     atom   47 type  1   force =     0.01442663    0.01963666    0.01783876
     atom   48 type  1   force =    -0.03122634    0.00123768   -0.01200487
     atom   49 type  1   force =     0.02597491   -0.02077886    0.00556340
     atom   50 type  1   force =     0.02066462   -0.02890238    0.01479242
     atom   51 type  1   force =    -0.00824717    0.04538751    0.00200292
     atom   52 type  1   force =    -0.01108904   -0.00269908   -0.02054465
     atom   53 type  1   force =    -0.01656772   -0.01484821    0.02478251
     atom   54 type  1   force =     0.02427649   -0.03046010    0.02080357
     atom   55 type  1   force =     0.03324317    0.00398574    0.01975165
     atom   56 type  1   force =    -0.00767561   -0.00992930    0.01012708
     atom   57 type  1   force =    -0.01450623    0.00339047    0.00085282
     atom   58 type  1   force =    -0.04893939   -0.01216746   -0.03421895
     atom   59 type  1   force =     0.02496271    0.04154429    0.03594347
     atom   60 type  1   force =    -0.00116729    0.00110644    0.00887919
     atom   61 type  1   force =     0.01095502    0.00776838    0.00378702
     atom   62 type  1   force =    -0.01872719   -0.01904190   -0.02289104
     atom   63 type  1   force =     0.00886831   -0.00752610    0.00741412
     atom   64 type  1   force =     0.01653806    0.02249660    0.01876935

     Total force =     0.280153     Total SCF correction =     0.000569


     Computing stress (Cartesian axis) and pressure

          total   stress  (Ry/bohr**3)                   (kbar)     P=      -41.99
  -0.00026231  -0.00000494   0.00008676          -38.59       -0.73       12.76
  -0.00000494  -0.00030308   0.00003318           -0.73      -44.58        4.88
   0.00008676   0.00003318  -0.00029099           12.76        4.88      -42.81

 
     init_run     :      1.07s CPU      4.94s WALL (       1 calls)
     electrons    :      2.05s CPU      2.20s WALL (       1 calls)
     forces       :      0.03s CPU      0.04s WALL (       1 calls)
     stress       :      0.15s CPU      0.16s WALL (       1 calls)

     Called by init_run:
     wfcinit      :      0.52s CPU      4.23s WALL (       1 calls)
                                        4.23s GPU  (       1 calls)
     potinit      :      0.06s CPU      0.15s WALL (       1 calls)
     hinit0       :      0.47s CPU      0.50s WALL (       1 calls)

     Called by electrons:
     c_bands      :      1.22s CPU      1.29s WALL (      20 calls)
     sum_band     :      0.40s CPU      0.45s WALL (      20 calls)
     v_of_rho     :      0.19s CPU      0.30s WALL (      20 calls)
     mix_rho      :      0.19s CPU      0.21s WALL (      20 calls)

     Called by c_bands:
     init_us_2    :      0.07s CPU      0.08s WALL (      41 calls)
     init_us_2:gp :      0.07s CPU      0.08s WALL (      41 calls)
     regterg      :      1.04s CPU      1.11s WALL (      20 calls)

     Called by *egterg:
     rdiaghg      :      0.42s CPU      1.18s WALL (      87 calls)
                                        1.16s GPU  (      87 calls)
     h_psi        :      0.95s CPU      3.94s WALL (      89 calls)
                                        3.94s GPU  (      89 calls)
     g_psi        :      0.00s CPU      0.00s WALL (      68 calls)
                                        0.00s GPU  (      68 calls)

     Called by h_psi:
     h_psi:calbec :      0.48s CPU      3.40s WALL (      89 calls)
                                        3.40s GPU  (      89 calls)
     vloc_psi     :      0.41s CPU      0.48s WALL (      89 calls)
                                        0.47s GPU  (      89 calls)
     add_vuspsi   :      0.04s CPU      0.05s WALL (      89 calls)
                                        0.05s GPU  (      89 calls)

     General routines
     calbec       :      0.49s CPU      3.40s WALL (      94 calls)
     fft          :      0.63s CPU      0.77s WALL (     167 calls)
                                        0.14s GPU  (     106 calls)
     ffts         :      0.05s CPU      0.05s WALL (      20 calls)
     fftw         :      0.49s CPU      0.64s WALL (    2100 calls)
                                        0.56s GPU  (    2100 calls)
 
     Parallel routines
 
     PWSCF        :      3.35s CPU      7.43s WALL

 
   This run was terminated on:  10:37:47  10May2023            

=------------------------------------------------------------------------------=
   JOB DONE.
=------------------------------------------------------------------------------=
