An instance of this daemon is already running
An instance of this daemon is already running

     Program PWSCF v.7.1 starts on 10May2023 at 10:40:25 

     This program is part of the open-source Quantum ESPRESSO suite
     for quantum simulation of materials; please cite
         "P. Giannozzi et al., J. Phys.:Condens. Matter 21 395502 (2009);
         "P. Giannozzi et al., J. Phys.:Condens. Matter 29 465901 (2017);
         "P. Giannozzi et al., J. Chem. Phys. 152 154105 (2020);
          URL http://www.quantum-espresso.org", 
     in publications or presentations arising from this work. More details at
     http://www.quantum-espresso.org/quote

     Parallel version (MPI & OpenMP), running on       4 processor cores
     Number of MPI processes:                 4
     Threads/MPI process:                     1

     MPI processes distributed on     1 nodes
     753585 MiB available memory on the printing compute node when the environment starts
 
     Reading input from pw-si-18.in
Warning: card &CELL ignored
Warning: card / ignored

     Current dimensions of program PWSCF are:
     Max number of different atomic species (ntypx) = 10
     Max number of k-points (npk) =  40000
     Max angular momentum in pseudopotentials (lmaxx) =  4

     IMPORTANT: XC functional enforced from input :
     Exchange-correlation= PBE
                           (   1   4   3   4   0   0   0)
     Any further DFT definition will be discarded
     Please, verify this is what you really want


     gamma-point specific algorithms are used
 
     K-points division:     npool     =       2
     R & G space division:  proc/nbgrp/npool/nimage =       2
     Subspace diagonalization in iterative solution of the eigenvalue problem:
     a serial algorithm will be used

     Message from routine divide_et_impera:
     suboptimal parallelization: some nodes have no k-points
 
     Parallelization info
     --------------------
     sticks:   dense  smooth     PW     G-vecs:    dense   smooth      PW
     Min        1920    1920    502                89653    89653   12150
     Max        1921    1921    503                89656    89656   12153
     Sum        3841    3841   1005               179309   179309   24303
 
     Using Slab Decomposition
 


     bravais-lattice index     =            0
     lattice parameter (alat)  =      20.0736  a.u.
     unit-cell volume          =    8088.6375 (a.u.)^3
     number of atoms/cell      =           64
     number of atomic types    =            1
     number of electrons       =       256.00
     number of Kohn-Sham states=          154
     kinetic-energy cutoff     =      30.0000  Ry
     charge density cutoff     =     120.0000  Ry
     scf convergence threshold =      1.0E-06
     mixing beta               =       0.5000
     number of iterations used =            8  plain     mixing
     Exchange-correlation= PBE
                           (   1   4   3   4   0   0   0)

     GPU acceleration is ACTIVE.
     GPU-aware MPI enabled

     Message from routine print_cuda_info:
     High GPU oversubscription detected. Are you sure this is what you want?

     celldm(1)=  20.073593  celldm(2)=   0.000000  celldm(3)=   0.000000
     celldm(4)=   0.000000  celldm(5)=   0.000000  celldm(6)=   0.000000

     crystal axes: (cart. coord. in units of alat)
               a(1) = (   1.000000   0.000000   0.000000 )  
               a(2) = (   0.000000   1.000000   0.000000 )  
               a(3) = (   0.000000   0.000000   1.000000 )  

     reciprocal axes: (cart. coord. in units 2 pi/alat)
               b(1) = (  1.000000  0.000000  0.000000 )  
               b(2) = (  0.000000  1.000000  0.000000 )  
               b(3) = (  0.000000  0.000000  1.000000 )  


     PseudoPot. # 1 for Si read from file:
     /home/ppiaggi/pseudos/Si_ONCV_PBE_sr.upf
     MD5 check sum: 8553c464762ac42b85b1eed164b4d029
     Pseudo is Norm-conserving, Zval =  4.0
     Generated using ONCVPSP code by D. R. Hamann
     Using radial grid of 1510 points,  4 beta functions with: 
                l(1) =   0
                l(2) =   0
                l(3) =   1
                l(4) =   1

     atomic species   valence    mass     pseudopotential
        Si             4.00    28.08500     Si( 1.00)

     No symmetry found



   Cartesian axes

     site n.     atom                  positions (alat units)
         1           Si  tau(   1) = (   0.3134030   0.9712830   0.0520568  )
         2           Si  tau(   2) = (   0.6288650   0.9026850   0.6190330  )
         3           Si  tau(   3) = (   0.7429330   0.7929310   0.7784690  )
         4           Si  tau(   4) = (   0.6633030   0.3447450   0.9209070  )
         5           Si  tau(   5) = (   0.5052640   0.8381210   0.0265573  )
         6           Si  tau(   6) = (   0.2959230   0.6135090   0.3883860  )
         7           Si  tau(   7) = (   0.7497730   0.4081620   0.7222730  )
         8           Si  tau(   8) = (   0.6339060   0.5858680   0.4260030  )
         9           Si  tau(   9) = (   0.3371530   0.3117010   0.7874300  )
        10           Si  tau(  10) = (   0.0550703   0.1376990   0.5786550  )
        11           Si  tau(  11) = (   0.0512312   0.2453030   0.3039700  )
        12           Si  tau(  12) = (   0.8101100   0.9479730   0.4402710  )
        13           Si  tau(  13) = (   0.8823570   0.4131340   0.2971090  )
        14           Si  tau(  14) = (   0.2925350   0.3835130   0.4004050  )
        15           Si  tau(  15) = (   0.1748110   0.7557900   0.1330600  )
        16           Si  tau(  16) = (   0.3875630   0.9402470   0.7415190  )
        17           Si  tau(  17) = (   0.4170910   0.2584140   0.5762800  )
        18           Si  tau(  18) = (   0.2645640   0.7866170   0.8796640  )
        19           Si  tau(  19) = (   0.3745210   0.7552750   0.5741930  )
        20           Si  tau(  20) = (   0.9715190   0.3068660   0.9310130  )
        21           Si  tau(  21) = (   0.4373600   0.6192190   0.7176310  )
        22           Si  tau(  22) = (   0.7552970   0.6099150   0.2154800  )
        23           Si  tau(  23) = (   0.7792690   0.2496190   0.0957750  )
        24           Si  tau(  24) = (   0.0671291   0.9418190   0.2487520  )
        25           Si  tau(  25) = (   0.2842510   0.5477180   0.8081090  )
        26           Si  tau(  26) = (   0.5586330   0.4494790   0.6344380  )
        27           Si  tau(  27) = (   0.5220260   0.1343220   0.2837330  )
        28           Si  tau(  28) = (   0.5628630   0.7969990   0.3943360  )
        29           Si  tau(  29) = (   0.9813910   0.1150200   0.1262820  )
        30           Si  tau(  30) = (   0.7497280   0.8380160   0.2381730  )
        31           Si  tau(  31) = (   0.4229090   0.7292120   0.2336020  )
        32           Si  tau(  32) = (   0.4617650   0.2574990   0.9532380  )
        33           Si  tau(  33) = (   0.6641300   0.0205716   0.1144380  )
        34           Si  tau(  34) = (   0.6726540   0.5512040   0.0006183  )
        35           Si  tau(  35) = (   0.8490580   0.1584970   0.7807320  )
        36           Si  tau(  36) = (   0.9733170   0.7711410   0.3819660  )
        37           Si  tau(  37) = (   0.2752520   0.1370190   0.2356130  )
        38           Si  tau(  38) = (   0.0924108   0.5969800   0.3077270  )
        39           Si  tau(  39) = (   0.4284390   0.0277890   0.4710660  )
        40           Si  tau(  40) = (   0.7752940   0.1750720   0.3365610  )
        41           Si  tau(  41) = (   0.8253380   0.6065670   0.6933770  )
        42           Si  tau(  42) = (   0.5324780   0.0496356   0.8926380  )
        43           Si  tau(  43) = (   0.9713270   0.9214310   0.6480320  )
        44           Si  tau(  44) = (   0.9316970   0.8998060   0.0035053  )
        45           Si  tau(  45) = (   0.2623270   0.5517600   0.0412016  )
        46           Si  tau(  46) = (   0.8522060   0.2580480   0.5391380  )
        47           Si  tau(  47) = (   0.0952192   0.3521940   0.7460100  )
        48           Si  tau(  48) = (   0.8504090   0.6086670   0.4906490  )
        49           Si  tau(  49) = (   0.1019450   0.9596630   0.8425580  )
        50           Si  tau(  50) = (   0.9418850   0.7004800   0.1131440  )
        51           Si  tau(  51) = (   0.0724042   0.4333700   0.1024690  )
        52           Si  tau(  52) = (   0.7694090   0.9854200   0.8981210  )
        53           Si  tau(  53) = (   0.0770638   0.6002490   0.7176550  )
        54           Si  tau(  54) = (   0.0389950   0.4465840   0.4983470  )
        55           Si  tau(  55) = (   0.2426190   0.1097160   0.6815100  )
        56           Si  tau(  56) = (   0.1347430   0.7807450   0.5387000  )
        57           Si  tau(  57) = (   0.6126580   0.1404210   0.6331060  )
        58           Si  tau(  58) = (   0.5689050   0.7023960   0.8839560  )
        59           Si  tau(  59) = (   0.5138580   0.5391580   0.1521870  )
        60           Si  tau(  60) = (   0.1932420   0.9875410   0.4330440  )
        61           Si  tau(  61) = (   0.1840740   0.1532220   0.9422890  )
        62           Si  tau(  62) = (   0.5197800   0.3576420   0.3373660  )
        63           Si  tau(  63) = (   0.3481520   0.3106880   0.1129150  )
        64           Si  tau(  64) = (   0.9264210   0.5765690   0.9204530  )

     number of k points=     1  Fermi-Dirac smearing, width (Ry)=  0.0100
                       cart. coord. in units 2pi/alat
        k(    1) = (   0.0000000   0.0000000   0.0000000), wk =   2.0000000

     Dense  grid:    89655 G-vectors     FFT dimensions: (  72,  72,  72)

     Estimated max dynamical RAM per process >     144.24 MB

     Estimated total dynamical RAM >     555.07 MB

     Initial potential from superposition of free atoms

     starting charge     255.9608, renormalised to     256.0000
     Starting wfcs are  256 randomized atomic wfcs

     total cpu time spent up to now is        5.0 secs

     Self-consistent Calculation

     iteration #  1     ecut=    30.00 Ry     beta= 0.50
     Davidson diagonalization with overlap
     ethr =  1.00E-02,  avg # of iterations =  3.0

     Threshold (ethr) on eigenvalues was too large:
     Diagonalizing with lowered threshold

     Davidson diagonalization with overlap
     ethr =  4.57E-04,  avg # of iterations =  4.0

     total cpu time spent up to now is        5.3 secs

     total energy              =    -501.14334718 Ry
     estimated scf accuracy    <       1.41000737 Ry

     iteration #  2     ecut=    30.00 Ry     beta= 0.50
     Davidson diagonalization with overlap
     ethr =  5.51E-04,  avg # of iterations =  5.0

     total cpu time spent up to now is        5.4 secs

     total energy              =    -500.39253165 Ry
     estimated scf accuracy    <      10.61720180 Ry

     iteration #  3     ecut=    30.00 Ry     beta= 0.50
     Davidson diagonalization with overlap
     ethr =  5.51E-04,  avg # of iterations =  5.0

     total cpu time spent up to now is        5.6 secs

     total energy              =    -501.34760568 Ry
     estimated scf accuracy    <       1.51023185 Ry

     iteration #  4     ecut=    30.00 Ry     beta= 0.50
     Davidson diagonalization with overlap
     ethr =  5.51E-04,  avg # of iterations =  2.0

     total cpu time spent up to now is        5.7 secs

     total energy              =    -501.45923860 Ry
     estimated scf accuracy    <       0.45766006 Ry

     iteration #  5     ecut=    30.00 Ry     beta= 0.50
     Davidson diagonalization with overlap
     ethr =  1.79E-04,  avg # of iterations =  2.0

     total cpu time spent up to now is        5.8 secs

     total energy              =    -501.48411205 Ry
     estimated scf accuracy    <       0.28057027 Ry

     iteration #  6     ecut=    30.00 Ry     beta= 0.50
     Davidson diagonalization with overlap
     ethr =  1.10E-04,  avg # of iterations =  2.0

     total cpu time spent up to now is        5.9 secs

     total energy              =    -501.51301271 Ry
     estimated scf accuracy    <       0.12208867 Ry

     iteration #  7     ecut=    30.00 Ry     beta= 0.50
     Davidson diagonalization with overlap
     ethr =  4.77E-05,  avg # of iterations =  2.0

     total cpu time spent up to now is        5.9 secs

     total energy              =    -501.52279045 Ry
     estimated scf accuracy    <       0.01282544 Ry

     iteration #  8     ecut=    30.00 Ry     beta= 0.50
     Davidson diagonalization with overlap
     ethr =  5.01E-06,  avg # of iterations = 14.0

     total cpu time spent up to now is        6.1 secs

     total energy              =    -501.52440023 Ry
     estimated scf accuracy    <       0.01645907 Ry

     iteration #  9     ecut=    30.00 Ry     beta= 0.50
     Davidson diagonalization with overlap
     ethr =  5.01E-06,  avg # of iterations =  2.0

     total cpu time spent up to now is        6.2 secs

     total energy              =    -501.52590133 Ry
     estimated scf accuracy    <       0.00225104 Ry

     iteration # 10     ecut=    30.00 Ry     beta= 0.50
     Davidson diagonalization with overlap
     ethr =  8.79E-07,  avg # of iterations =  2.0

     total cpu time spent up to now is        6.3 secs

     total energy              =    -501.52611065 Ry
     estimated scf accuracy    <       0.00086719 Ry

     iteration # 11     ecut=    30.00 Ry     beta= 0.50
     Davidson diagonalization with overlap
     ethr =  3.39E-07,  avg # of iterations =  2.0

     total cpu time spent up to now is        6.4 secs

     total energy              =    -501.52614919 Ry
     estimated scf accuracy    <       0.00074343 Ry

     iteration # 12     ecut=    30.00 Ry     beta= 0.50
     Davidson diagonalization with overlap
     ethr =  2.90E-07,  avg # of iterations =  2.0

     total cpu time spent up to now is        6.5 secs

     total energy              =    -501.52621818 Ry
     estimated scf accuracy    <       0.00021477 Ry

     iteration # 13     ecut=    30.00 Ry     beta= 0.50
     Davidson diagonalization with overlap
     ethr =  8.39E-08,  avg # of iterations =  2.0

     total cpu time spent up to now is        6.6 secs

     total energy              =    -501.52623894 Ry
     estimated scf accuracy    <       0.00004318 Ry

     iteration # 14     ecut=    30.00 Ry     beta= 0.50
     Davidson diagonalization with overlap
     ethr =  1.69E-08,  avg # of iterations =  2.0

     total cpu time spent up to now is        6.7 secs

     total energy              =    -501.52624421 Ry
     estimated scf accuracy    <       0.00001712 Ry

     iteration # 15     ecut=    30.00 Ry     beta= 0.50
     Davidson diagonalization with overlap
     ethr =  6.69E-09,  avg # of iterations =  2.0

     total cpu time spent up to now is        6.8 secs

     total energy              =    -501.52624486 Ry
     estimated scf accuracy    <       0.00000550 Ry

     iteration # 16     ecut=    30.00 Ry     beta= 0.50
     Davidson diagonalization with overlap
     ethr =  2.15E-09,  avg # of iterations =  3.0

     total cpu time spent up to now is        6.9 secs

     total energy              =    -501.52624555 Ry
     estimated scf accuracy    <       0.00001296 Ry

     iteration # 17     ecut=    30.00 Ry     beta= 0.50
     Davidson diagonalization with overlap
     ethr =  2.15E-09,  avg # of iterations =  2.0

     total cpu time spent up to now is        7.0 secs

     End of self-consistent calculation

          k = 0.0000 0.0000 0.0000 ( 11288 PWs)   bands (ev):

    -5.3198  -4.5154  -4.2777  -4.1432  -4.0796  -3.9282  -3.8558  -3.4805
    -3.2991  -3.1999  -3.0988  -3.0536  -2.9929  -2.9281  -2.7717  -2.6561
    -2.5973  -2.4611  -2.4051  -2.0784  -2.0362  -1.8987  -1.8225  -1.5149
    -1.4041  -1.2920  -1.1792  -0.9257  -0.7698  -0.6722  -0.4647  -0.4353
    -0.3827  -0.2133  -0.0428   0.0166   0.1800   0.2878   0.3338   0.3927
     0.4332   0.5415   0.6116   0.7020   0.7312   0.9489   0.9823   1.0426
     1.1124   1.1824   1.2551   1.3084   1.3662   1.5338   1.6301   1.7240
     1.7771   1.8744   2.0111   2.0442   2.1373   2.2574   2.3853   2.4861
     2.5674   2.6708   2.7186   2.8121   2.8710   2.9129   2.9715   3.0038
     3.1488   3.1586   3.2394   3.3554   3.4319   3.5419   3.6010   3.6790
     3.8411   4.2548   4.3634   4.4440   4.5280   4.5620   4.6310   4.7650
     4.8243   4.8610   4.9346   4.9671   5.0277   5.1082   5.2370   5.3096
     5.3872   5.3998   5.4722   5.5375   5.6136   5.6738   5.6926   5.7664
     5.8073   5.8779   5.9316   5.9908   6.0127   6.0893   6.1254   6.2163
     6.2489   6.2916   6.3074   6.3930   6.4463   6.4961   6.5560   6.6167
     6.7091   6.7570   6.8389   6.8720   6.9240   6.9880   7.1057   7.1140
     7.2233   7.2781   7.3256   7.4057   7.4822   7.5037   7.6275   7.7175
     7.7798   7.8434   7.9030   7.9821   8.0422   8.1066   8.1329   8.1998
     8.2434   8.2958   8.3396   8.3900   8.4514   8.5477   8.5767   8.6228
     8.7178   8.7961

     the Fermi energy is     7.1754 ev

!    total energy              =    -501.52624569 Ry
     estimated scf accuracy    <       0.00000091 Ry
     smearing contrib. (-TS)   =      -0.13530395 Ry
     internal energy E=F+TS    =    -501.39094174 Ry

     The total energy is F=E-TS. E is the sum of the following terms:
     one-electron contribution =     193.37734370 Ry
     hartree contribution      =      22.11912179 Ry
     xc contribution           =    -151.09770990 Ry
     ewald contribution        =    -565.78969732 Ry

     convergence has been achieved in  17 iterations

     Forces acting on atoms (cartesian axes, Ry/au):

     atom    1 type  1   force =    -0.01566935   -0.02115130    0.00479293
     atom    2 type  1   force =    -0.01881238    0.01870604   -0.04083086
     atom    3 type  1   force =    -0.01034104    0.03275765   -0.00799330
     atom    4 type  1   force =     0.00952069    0.01207367    0.01212751
     atom    5 type  1   force =    -0.04879141    0.08069659    0.07422904
     atom    6 type  1   force =     0.01329028    0.01438359    0.01257216
     atom    7 type  1   force =     0.01517208   -0.05776645   -0.00754683
     atom    8 type  1   force =     0.00925875   -0.02387101    0.00978562
     atom    9 type  1   force =    -0.05396592    0.00526827   -0.03233511
     atom   10 type  1   force =    -0.04765110   -0.01681552   -0.02681735
     atom   11 type  1   force =     0.01849605    0.01503892    0.00088539
     atom   12 type  1   force =    -0.00843124    0.00719068    0.00027512
     atom   13 type  1   force =     0.02105868    0.01092208   -0.03053761
     atom   14 type  1   force =     0.01171136   -0.00922393    0.01919399
     atom   15 type  1   force =     0.01403237    0.02152622   -0.00650287
     atom   16 type  1   force =     0.00984152   -0.00961844   -0.01580805
     atom   17 type  1   force =    -0.00310319    0.01309924   -0.01577015
     atom   18 type  1   force =    -0.00955927    0.04301869    0.02353770
     atom   19 type  1   force =    -0.03518249    0.05848274   -0.06360181
     atom   20 type  1   force =     0.01181196    0.00585248   -0.00663076
     atom   21 type  1   force =     0.17872740    0.01496258   -0.03229027
     atom   22 type  1   force =     0.00668389   -0.00596729   -0.00678813
     atom   23 type  1   force =     0.01815976   -0.01471140    0.01287505
     atom   24 type  1   force =     0.02234626   -0.01878734    0.00313881
     atom   25 type  1   force =    -0.16972788   -0.07863299    0.12141978
     atom   26 type  1   force =    -0.02798942    0.00369318   -0.05538227
     atom   27 type  1   force =     0.01760511   -0.00999886   -0.00243685
     atom   28 type  1   force =     0.00902233    0.01849388    0.03764131
     atom   29 type  1   force =     0.00523076   -0.02294326   -0.01878569
     atom   30 type  1   force =    -0.01267636    0.02018107    0.01620541
     atom   31 type  1   force =    -0.01843560   -0.00155600   -0.02607161
     atom   32 type  1   force =     0.07603134   -0.04381780   -0.06432097
     atom   33 type  1   force =    -0.00582040    0.00472813    0.00828154
     atom   34 type  1   force =     0.03187995   -0.01086984    0.01879532
     atom   35 type  1   force =     0.02056312    0.00717242   -0.01603881
     atom   36 type  1   force =    -0.03359862    0.00705519   -0.00593984
     atom   37 type  1   force =    -0.00385800   -0.03050755   -0.00013271
     atom   38 type  1   force =    -0.01888156   -0.02799026   -0.00983446
     atom   39 type  1   force =    -0.00321881    0.01860093    0.01377636
     atom   40 type  1   force =    -0.01151279   -0.03056756    0.01559389
     atom   41 type  1   force =     0.03715676    0.01749113    0.07207421
     atom   42 type  1   force =     0.00612612   -0.01890114   -0.00978507
     atom   43 type  1   force =     0.00868528    0.03152135    0.00668453
     atom   44 type  1   force =     0.04480342    0.01061862    0.02658408
     atom   45 type  1   force =     0.00926525   -0.02542407   -0.01196884
     atom   46 type  1   force =     0.00314584    0.01193774    0.03359978
     atom   47 type  1   force =     0.01615048    0.01324901   -0.01337866
     atom   48 type  1   force =     0.01545400   -0.00792267   -0.07274937
     atom   49 type  1   force =    -0.01558930   -0.01848532    0.00767612
     atom   50 type  1   force =     0.01665367    0.01778518   -0.00798860
     atom   51 type  1   force =     0.00057194   -0.00589201    0.02484737
     atom   52 type  1   force =    -0.05509908    0.01663055   -0.01570340
     atom   53 type  1   force =    -0.00542640   -0.01100065   -0.01084343
     atom   54 type  1   force =    -0.01930744    0.01213933   -0.01160952
     atom   55 type  1   force =     0.04910613   -0.01281039    0.03207642
     atom   56 type  1   force =     0.03375476   -0.00900428    0.02537819
     atom   57 type  1   force =     0.01321240   -0.02718823    0.00899985
     atom   58 type  1   force =     0.01295922   -0.02733757   -0.05988823
     atom   59 type  1   force =    -0.04243532   -0.03575025    0.03306258
     atom   60 type  1   force =     0.00400304    0.00881620    0.01386060
     atom   61 type  1   force =    -0.02022199   -0.00371616    0.00019112
     atom   62 type  1   force =    -0.03233276    0.03692444   -0.03724896
     atom   63 type  1   force =    -0.05438457    0.05762027    0.07456310
     atom   64 type  1   force =     0.01053167   -0.03040853   -0.02116449

     Total force =     0.468075     Total SCF correction =     0.001949


     Computing stress (Cartesian axis) and pressure

          total   stress  (Ry/bohr**3)                   (kbar)     P=      -22.45
  -0.00014123  -0.00000747  -0.00001932          -20.78       -1.10       -2.84
  -0.00000747  -0.00026706  -0.00000782           -1.10      -39.29       -1.15
  -0.00001932  -0.00000782  -0.00004957           -2.84       -1.15       -7.29

 
     init_run     :      1.08s CPU      4.96s WALL (       1 calls)
     electrons    :      1.81s CPU      1.96s WALL (       1 calls)
     forces       :      0.04s CPU      0.04s WALL (       1 calls)
     stress       :      0.15s CPU      0.15s WALL (       1 calls)

     Called by init_run:
     wfcinit      :      0.54s CPU      4.24s WALL (       1 calls)
                                        4.24s GPU  (       1 calls)
     potinit      :      0.05s CPU      0.15s WALL (       1 calls)
     hinit0       :      0.47s CPU      0.50s WALL (       1 calls)

     Called by electrons:
     c_bands      :      1.08s CPU      1.15s WALL (      18 calls)
     sum_band     :      0.35s CPU      0.40s WALL (      18 calls)
     v_of_rho     :      0.18s CPU      0.28s WALL (      18 calls)
     mix_rho      :      0.17s CPU      0.18s WALL (      18 calls)

     Called by c_bands:
     init_us_2    :      0.07s CPU      0.07s WALL (      37 calls)
     init_us_2:gp :      0.07s CPU      0.07s WALL (      37 calls)
     regterg      :      0.93s CPU      0.99s WALL (      18 calls)

     Called by *egterg:
     rdiaghg      :      0.38s CPU      1.14s WALL (      75 calls)
                                        1.12s GPU  (      75 calls)
     h_psi        :      0.91s CPU      3.89s WALL (      77 calls)
                                        3.89s GPU  (      77 calls)
     g_psi        :      0.00s CPU      0.00s WALL (      58 calls)
                                        0.00s GPU  (      58 calls)

     Called by h_psi:
     h_psi:calbec :      0.49s CPU      3.40s WALL (      77 calls)
                                        3.40s GPU  (      77 calls)
     vloc_psi     :      0.37s CPU      0.44s WALL (      77 calls)
                                        0.44s GPU  (      77 calls)
     add_vuspsi   :      0.03s CPU      0.04s WALL (      77 calls)
                                        0.04s GPU  (      77 calls)

     General routines
     calbec       :      0.50s CPU      3.41s WALL (      82 calls)
     fft          :      0.62s CPU      0.75s WALL (     151 calls)
                                        0.14s GPU  (      96 calls)
     ffts         :      0.04s CPU      0.05s WALL (      18 calls)
     fftw         :      0.45s CPU      0.59s WALL (    1892 calls)
                                        0.51s GPU  (    1892 calls)
 
     Parallel routines
 
     PWSCF        :      3.12s CPU      7.25s WALL

 
   This run was terminated on:  10:40:32  10May2023            

=------------------------------------------------------------------------------=
   JOB DONE.
=------------------------------------------------------------------------------=
