An instance of this daemon is already running
An instance of this daemon is already running

     Program PWSCF v.7.1 starts on 10May2023 at 10:48:50 

     This program is part of the open-source Quantum ESPRESSO suite
     for quantum simulation of materials; please cite
         "P. Giannozzi et al., J. Phys.:Condens. Matter 21 395502 (2009);
         "P. Giannozzi et al., J. Phys.:Condens. Matter 29 465901 (2017);
         "P. Giannozzi et al., J. Chem. Phys. 152 154105 (2020);
          URL http://www.quantum-espresso.org", 
     in publications or presentations arising from this work. More details at
     http://www.quantum-espresso.org/quote

     Parallel version (MPI & OpenMP), running on       4 processor cores
     Number of MPI processes:                 4
     Threads/MPI process:                     1

     MPI processes distributed on     1 nodes
     753541 MiB available memory on the printing compute node when the environment starts
 
     Reading input from pw-si-70.in
Warning: card &CELL ignored
Warning: card / ignored

     Current dimensions of program PWSCF are:
     Max number of different atomic species (ntypx) = 10
     Max number of k-points (npk) =  40000
     Max angular momentum in pseudopotentials (lmaxx) =  4

     IMPORTANT: XC functional enforced from input :
     Exchange-correlation= PBE
                           (   1   4   3   4   0   0   0)
     Any further DFT definition will be discarded
     Please, verify this is what you really want


     gamma-point specific algorithms are used
 
     K-points division:     npool     =       2
     R & G space division:  proc/nbgrp/npool/nimage =       2
     Subspace diagonalization in iterative solution of the eigenvalue problem:
     a serial algorithm will be used

     Message from routine divide_et_impera:
     suboptimal parallelization: some nodes have no k-points
 
     Parallelization info
     --------------------
     sticks:   dense  smooth     PW     G-vecs:    dense   smooth      PW
     Min        1926    1926    504                89789    89789   12201
     Max        1927    1927    505                89790    89790   12204
     Sum        3853    3853   1009               179579   179579   24405
 
     Using Slab Decomposition
 


     bravais-lattice index     =            0
     lattice parameter (alat)  =      20.0799  a.u.
     unit-cell volume          =    8096.2189 (a.u.)^3
     number of atoms/cell      =           64
     number of atomic types    =            1
     number of electrons       =       256.00
     number of Kohn-Sham states=          154
     kinetic-energy cutoff     =      30.0000  Ry
     charge density cutoff     =     120.0000  Ry
     scf convergence threshold =      1.0E-06
     mixing beta               =       0.5000
     number of iterations used =            8  plain     mixing
     Exchange-correlation= PBE
                           (   1   4   3   4   0   0   0)

     GPU acceleration is ACTIVE.
     GPU-aware MPI enabled

     Message from routine print_cuda_info:
     High GPU oversubscription detected. Are you sure this is what you want?

     celldm(1)=  20.079863  celldm(2)=   0.000000  celldm(3)=   0.000000
     celldm(4)=   0.000000  celldm(5)=   0.000000  celldm(6)=   0.000000

     crystal axes: (cart. coord. in units of alat)
               a(1) = (   1.000000   0.000000   0.000000 )  
               a(2) = (   0.000000   1.000000   0.000000 )  
               a(3) = (   0.000000   0.000000   1.000000 )  

     reciprocal axes: (cart. coord. in units 2 pi/alat)
               b(1) = (  1.000000  0.000000  0.000000 )  
               b(2) = (  0.000000  1.000000  0.000000 )  
               b(3) = (  0.000000  0.000000  1.000000 )  


     PseudoPot. # 1 for Si read from file:
     /home/ppiaggi/pseudos/Si_ONCV_PBE_sr.upf
     MD5 check sum: 8553c464762ac42b85b1eed164b4d029
     Pseudo is Norm-conserving, Zval =  4.0
     Generated using ONCVPSP code by D. R. Hamann
     Using radial grid of 1510 points,  4 beta functions with: 
                l(1) =   0
                l(2) =   0
                l(3) =   1
                l(4) =   1

     atomic species   valence    mass     pseudopotential
        Si             4.00    28.08500     Si( 1.00)

     No symmetry found



   Cartesian axes

     site n.     atom                  positions (alat units)
         1           Si  tau(   1) = (   0.3208750   0.2463730   0.0696383  )
         2           Si  tau(   2) = (   0.5120820   0.3964120   0.9839010  )
         3           Si  tau(   3) = (   0.3480140   0.3922430   0.8142470  )
         4           Si  tau(   4) = (   0.8780440   0.6765070   0.5067370  )
         5           Si  tau(   5) = (   0.2269990   0.9056680   0.2080040  )
         6           Si  tau(   6) = (   0.1303140   0.0827106   0.9681930  )
         7           Si  tau(   7) = (   0.3442540   0.3750990   0.2978070  )
         8           Si  tau(   8) = (   0.1623080   0.7487060   0.0606946  )
         9           Si  tau(   9) = (   0.4012720   0.6371760   0.2790570  )
        10           Si  tau(  10) = (   0.6970230   0.5264550   0.4158740  )
        11           Si  tau(  11) = (   0.5198980   0.4025530   0.6489620  )
        12           Si  tau(  12) = (   0.9151720   0.5209020   0.3023950  )
        13           Si  tau(  13) = (   0.1210110   0.3860620   0.4535500  )
        14           Si  tau(  14) = (   0.4385520   0.8439780   0.6442610  )
        15           Si  tau(  15) = (   0.6031570   0.7999920   0.8649760  )
        16           Si  tau(  16) = (   0.3939300   0.2217600   0.5696520  )
        17           Si  tau(  17) = (   0.1720930   0.2551170   0.6542810  )
        18           Si  tau(  18) = (   0.6535760   0.5878690   0.0156244  )
        19           Si  tau(  19) = (   0.3854400   0.8428420   0.3587530  )
        20           Si  tau(  20) = (   0.7591820   0.8530010   0.6796760  )
        21           Si  tau(  21) = (   0.8777090   0.2714390   0.1722140  )
        22           Si  tau(  22) = (   0.5760580   0.6748750   0.5540750  )
        23           Si  tau(  23) = (   0.9453710   0.7833280   0.9777540  )
        24           Si  tau(  24) = (   0.2475870   0.0348073   0.7527690  )
        25           Si  tau(  25) = (   0.5688100   0.0650517   0.5885770  )
        26           Si  tau(  26) = (   0.9825620   0.8872200   0.7496220  )
        27           Si  tau(  27) = (   0.9703620   0.4917460   0.5754770  )
        28           Si  tau(  28) = (   0.3192100   0.5405340   0.5256240  )
        29           Si  tau(  29) = (   0.6639700   0.8345220   0.4318920  )
        30           Si  tau(  30) = (   0.9771580   0.1857330   0.7896680  )
        31           Si  tau(  31) = (   0.5749230   0.3108970   0.3894530  )
        32           Si  tau(  32) = (   0.7778420   0.2047030   0.3830230  )
        33           Si  tau(  33) = (   0.6161430   0.2508950   0.1529320  )
        34           Si  tau(  34) = (   0.6824760   0.5739620   0.7664750  )
        35           Si  tau(  35) = (   0.0408680   0.0618418   0.1910860  )
        36           Si  tau(  36) = (   0.1088330   0.1506890   0.3941840  )
        37           Si  tau(  37) = (   0.5310900   0.0261787   0.3628880  )
        38           Si  tau(  38) = (   0.8645810   0.6367450   0.7757530  )
        39           Si  tau(  39) = (   0.6856830   0.3247510   0.8269320  )
        40           Si  tau(  40) = (   0.6186560   0.6839390   0.2484180  )
        41           Si  tau(  41) = (   0.3736470   0.5940760   0.0371907  )
        42           Si  tau(  42) = (   0.8783900   0.3246780   0.9426160  )
        43           Si  tau(  43) = (   0.2430770   0.7592320   0.5199200  )
        44           Si  tau(  44) = (   0.7366840   0.8401440   0.1015130  )
        45           Si  tau(  45) = (   0.1635870   0.5262960   0.7229340  )
        46           Si  tau(  46) = (   0.6339030   0.0789168   0.8779510  )
        47           Si  tau(  47) = (   0.8502800   0.0291082   0.9807740  )
        48           Si  tau(  48) = (   0.7662190   0.3355660   0.5807530  )
        49           Si  tau(  49) = (   0.1360160   0.6214730   0.2958610  )
        50           Si  tau(  50) = (   0.0864676   0.3757850   0.2000030  )
        51           Si  tau(  51) = (   0.3735120   0.0003585   0.0456049  )
        52           Si  tau(  52) = (   0.8569710   0.0274658   0.4731710  )
        53           Si  tau(  53) = (   0.8693310   0.9238740   0.2764060  )
        54           Si  tau(  54) = (   0.5795120   0.0244370   0.1178190  )
        55           Si  tau(  55) = (   0.0092570   0.4865040   0.8913510  )
        56           Si  tau(  56) = (   0.3419280   0.1304330   0.3161960  )
        57           Si  tau(  57) = (   0.7921410   0.1300660   0.6720170  )
        58           Si  tau(  58) = (   0.0614835   0.8048920   0.3922900  )
        59           Si  tau(  59) = (   0.3734870   0.8195420   0.8689750  )
        60           Si  tau(  60) = (   0.8640560   0.5879850   0.0848871  )
        61           Si  tau(  61) = (   0.4182980   0.1406220   0.8545970  )
        62           Si  tau(  62) = (   0.1977910   0.4630840   0.0229347  )
        63           Si  tau(  63) = (   0.1642980   0.7452850   0.7778440  )
        64           Si  tau(  64) = (   0.0488063   0.9938120   0.5591890  )

     number of k points=     1  Fermi-Dirac smearing, width (Ry)=  0.0100
                       cart. coord. in units 2pi/alat
        k(    1) = (   0.0000000   0.0000000   0.0000000), wk =   2.0000000

     Dense  grid:    89790 G-vectors     FFT dimensions: (  72,  72,  72)

     Estimated max dynamical RAM per process >     144.37 MB

     Estimated total dynamical RAM >     555.54 MB

     Initial potential from superposition of free atoms

     starting charge     255.9608, renormalised to     256.0000
     Starting wfcs are  256 randomized atomic wfcs

     total cpu time spent up to now is        5.0 secs

     Self-consistent Calculation

     iteration #  1     ecut=    30.00 Ry     beta= 0.50
     Davidson diagonalization with overlap
     ethr =  1.00E-02,  avg # of iterations =  3.0

     Threshold (ethr) on eigenvalues was too large:
     Diagonalizing with lowered threshold

     Davidson diagonalization with overlap
     ethr =  3.89E-04,  avg # of iterations =  5.0

     total cpu time spent up to now is        5.3 secs

     total energy              =    -501.06231917 Ry
     estimated scf accuracy    <       1.20187450 Ry

     iteration #  2     ecut=    30.00 Ry     beta= 0.50
     Davidson diagonalization with overlap
     ethr =  4.69E-04,  avg # of iterations =  4.0

     total cpu time spent up to now is        5.4 secs

     total energy              =    -500.51027519 Ry
     estimated scf accuracy    <       7.28023870 Ry

     iteration #  3     ecut=    30.00 Ry     beta= 0.50
     Davidson diagonalization with overlap
     ethr =  4.69E-04,  avg # of iterations =  4.0

     total cpu time spent up to now is        5.5 secs

     total energy              =    -501.13330988 Ry
     estimated scf accuracy    <       2.18307430 Ry

     iteration #  4     ecut=    30.00 Ry     beta= 0.50
     Davidson diagonalization with overlap
     ethr =  4.69E-04,  avg # of iterations =  2.0

     total cpu time spent up to now is        5.6 secs

     total energy              =    -501.29702731 Ry
     estimated scf accuracy    <       0.57824439 Ry

     iteration #  5     ecut=    30.00 Ry     beta= 0.50
     Davidson diagonalization with overlap
     ethr =  2.26E-04,  avg # of iterations =  2.0

     total cpu time spent up to now is        5.7 secs

     total energy              =    -501.31900919 Ry
     estimated scf accuracy    <       0.37059985 Ry

     iteration #  6     ecut=    30.00 Ry     beta= 0.50
     Davidson diagonalization with overlap
     ethr =  1.45E-04,  avg # of iterations =  2.0

     total cpu time spent up to now is        5.8 secs

     total energy              =    -501.35744471 Ry
     estimated scf accuracy    <       0.09784359 Ry

     iteration #  7     ecut=    30.00 Ry     beta= 0.50
     Davidson diagonalization with overlap
     ethr =  3.82E-05,  avg # of iterations = 10.0

     total cpu time spent up to now is        6.0 secs

     total energy              =    -501.36539595 Ry
     estimated scf accuracy    <       0.01504288 Ry

     iteration #  8     ecut=    30.00 Ry     beta= 0.50
     Davidson diagonalization with overlap
     ethr =  5.88E-06,  avg # of iterations = 12.0

     total cpu time spent up to now is        6.1 secs

     total energy              =    -501.36657718 Ry
     estimated scf accuracy    <       0.02703740 Ry

     iteration #  9     ecut=    30.00 Ry     beta= 0.50
     Davidson diagonalization with overlap
     ethr =  5.88E-06,  avg # of iterations =  2.0

     total cpu time spent up to now is        6.2 secs

     total energy              =    -501.36863445 Ry
     estimated scf accuracy    <       0.00191640 Ry

     iteration # 10     ecut=    30.00 Ry     beta= 0.50
     Davidson diagonalization with overlap
     ethr =  7.49E-07,  avg # of iterations =  3.0

     total cpu time spent up to now is        6.3 secs

     total energy              =    -501.36883664 Ry
     estimated scf accuracy    <       0.00148494 Ry

     iteration # 11     ecut=    30.00 Ry     beta= 0.50
     Davidson diagonalization with overlap
     ethr =  5.80E-07,  avg # of iterations =  2.0

     total cpu time spent up to now is        6.4 secs

     total energy              =    -501.36893154 Ry
     estimated scf accuracy    <       0.00076212 Ry

     iteration # 12     ecut=    30.00 Ry     beta= 0.50
     Davidson diagonalization with overlap
     ethr =  2.98E-07,  avg # of iterations =  2.0

     total cpu time spent up to now is        6.5 secs

     total energy              =    -501.36899896 Ry
     estimated scf accuracy    <       0.00028664 Ry

     iteration # 13     ecut=    30.00 Ry     beta= 0.50
     Davidson diagonalization with overlap
     ethr =  1.12E-07,  avg # of iterations =  2.0

     total cpu time spent up to now is        6.6 secs

     total energy              =    -501.36901791 Ry
     estimated scf accuracy    <       0.00020522 Ry

     iteration # 14     ecut=    30.00 Ry     beta= 0.50
     Davidson diagonalization with overlap
     ethr =  8.02E-08,  avg # of iterations =  1.0

     total cpu time spent up to now is        6.7 secs

     total energy              =    -501.36903118 Ry
     estimated scf accuracy    <       0.00002795 Ry

     iteration # 15     ecut=    30.00 Ry     beta= 0.50
     Davidson diagonalization with overlap
     ethr =  1.09E-08,  avg # of iterations =  3.0

     total cpu time spent up to now is        6.8 secs

     total energy              =    -501.36903396 Ry
     estimated scf accuracy    <       0.00003707 Ry

     iteration # 16     ecut=    30.00 Ry     beta= 0.50
     Davidson diagonalization with overlap
     ethr =  1.09E-08,  avg # of iterations =  2.0

     total cpu time spent up to now is        6.9 secs

     total energy              =    -501.36903673 Ry
     estimated scf accuracy    <       0.00001033 Ry

     iteration # 17     ecut=    30.00 Ry     beta= 0.50
     Davidson diagonalization with overlap
     ethr =  4.04E-09,  avg # of iterations =  2.0

     total cpu time spent up to now is        7.0 secs

     total energy              =    -501.36903749 Ry
     estimated scf accuracy    <       0.00000199 Ry

     iteration # 18     ecut=    30.00 Ry     beta= 0.50
     Davidson diagonalization with overlap
     ethr =  7.79E-10,  avg # of iterations =  3.0

     total cpu time spent up to now is        7.1 secs

     total energy              =    -501.36903775 Ry
     estimated scf accuracy    <       0.00000222 Ry

     iteration # 19     ecut=    30.00 Ry     beta= 0.50
     Davidson diagonalization with overlap
     ethr =  7.79E-10,  avg # of iterations =  2.0

     total cpu time spent up to now is        7.2 secs

     End of self-consistent calculation

          k = 0.0000 0.0000 0.0000 ( 11288 PWs)   bands (ev):

    -5.2778  -4.3100  -4.2511  -4.2331  -4.0624  -3.9393  -3.7644  -3.3183
    -3.2102  -3.1734  -3.0418  -2.9666  -2.9439  -2.8034  -2.7434  -2.6151
    -2.5041  -2.4358  -2.4139  -1.9822  -1.8202  -1.7653  -1.6983  -1.4857
    -1.4502  -1.4181  -1.2815  -0.8670  -0.7457  -0.6238  -0.5179  -0.3184
    -0.2242  -0.0161   0.0798   0.1875   0.2265   0.2968   0.3133   0.4145
     0.4550   0.5845   0.6432   0.7153   0.8456   0.8853   0.9770   1.0504
     1.1722   1.1942   1.3240   1.3912   1.4828   1.5751   1.6250   1.7110
     1.7475   1.8804   2.0116   2.0762   2.2057   2.3160   2.4012   2.4633
     2.5611   2.5819   2.6922   2.7530   2.9078   3.0190   3.0377   3.0812
     3.1076   3.2020   3.3028   3.3577   3.4349   3.5646   3.7300   3.7621
     3.9306   4.2761   4.4113   4.4555   4.5499   4.5726   4.7088   4.7618
     4.8181   4.8361   4.9589   5.1430   5.1826   5.2260   5.3046   5.3176
     5.3519   5.3851   5.4814   5.5623   5.5930   5.6049   5.7135   5.8269
     5.8733   5.9047   5.9230   5.9854   6.0115   6.0893   6.1657   6.2583
     6.3320   6.4139   6.4385   6.4787   6.5831   6.6342   6.6843   6.7452
     6.8220   6.8397   6.8952   6.9341   7.0394   7.0676   7.1171   7.1275
     7.2027   7.2145   7.3233   7.4017   7.4428   7.5068   7.5642   7.5978
     7.7034   7.8182   7.8671   7.8893   7.9193   8.0078   8.0572   8.1978
     8.2467   8.2779   8.3068   8.3236   8.3733   8.4432   8.5398   8.6178
     8.6787   8.7061

     the Fermi energy is     7.1901 ev

!    total energy              =    -501.36903778 Ry
     estimated scf accuracy    <       0.00000020 Ry
     smearing contrib. (-TS)   =      -0.16191155 Ry
     internal energy E=F+TS    =    -501.20712624 Ry

     The total energy is F=E-TS. E is the sum of the following terms:
     one-electron contribution =     195.76823649 Ry
     hartree contribution      =      21.00050692 Ry
     xc contribution           =    -150.55056550 Ry
     ewald contribution        =    -567.42530415 Ry

     convergence has been achieved in  19 iterations

     Forces acting on atoms (cartesian axes, Ry/au):

     atom    1 type  1   force =    -0.00282424   -0.00359645   -0.00062192
     atom    2 type  1   force =     0.01638021   -0.00007918    0.01534160
     atom    3 type  1   force =    -0.00033089   -0.01168460   -0.00949545
     atom    4 type  1   force =    -0.01621970    0.03290385   -0.01951801
     atom    5 type  1   force =    -0.01772172    0.03196404   -0.01809424
     atom    6 type  1   force =     0.00534598    0.02158958   -0.01476619
     atom    7 type  1   force =    -0.01686427   -0.00085769    0.00450788
     atom    8 type  1   force =    -0.02058737   -0.02660547    0.00601857
     atom    9 type  1   force =    -0.01623647   -0.04058168   -0.03734600
     atom   10 type  1   force =     0.00095416   -0.00275582   -0.00880719
     atom   11 type  1   force =    -0.01259712    0.01206471    0.00274818
     atom   12 type  1   force =     0.00571425   -0.01045471   -0.02518473
     atom   13 type  1   force =     0.03809899   -0.03861126   -0.02692384
     atom   14 type  1   force =    -0.00250063    0.01509717   -0.00830085
     atom   15 type  1   force =     0.02053999   -0.00621296    0.00333314
     atom   16 type  1   force =     0.01338226   -0.00063006   -0.01176910
     atom   17 type  1   force =     0.01045768   -0.00093554   -0.00492786
     atom   18 type  1   force =    -0.03293466    0.00282295   -0.00400828
     atom   19 type  1   force =    -0.00649141    0.00700963    0.01754808
     atom   20 type  1   force =     0.01515202    0.00358413   -0.01783046
     atom   21 type  1   force =     0.00440503   -0.00582181   -0.00712523
     atom   22 type  1   force =    -0.02337703   -0.03652195    0.04323797
     atom   23 type  1   force =     0.00671618    0.00116052   -0.00563440
     atom   24 type  1   force =     0.00543923   -0.00148394    0.00070886
     atom   25 type  1   force =    -0.01211373   -0.02489230   -0.00037311
     atom   26 type  1   force =    -0.02044831   -0.00735439    0.02387425
     atom   27 type  1   force =    -0.00819770   -0.02462318    0.03630641
     atom   28 type  1   force =     0.00483766   -0.00570806   -0.00751383
     atom   29 type  1   force =     0.03548186    0.03393825   -0.00599684
     atom   30 type  1   force =     0.02786805   -0.01992005    0.02350478
     atom   31 type  1   force =     0.00015943    0.01643660   -0.00653686
     atom   32 type  1   force =    -0.00465658    0.04142463   -0.01329392
     atom   33 type  1   force =     0.00493343    0.00422584    0.00017922
     atom   34 type  1   force =    -0.17441977   -0.04976426   -0.00603867
     atom   35 type  1   force =    -0.01388788   -0.00567724   -0.00684905
     atom   36 type  1   force =     0.02977219    0.01650837    0.00569508
     atom   37 type  1   force =     0.01477965   -0.03597948   -0.00763455
     atom   38 type  1   force =     0.17660871    0.07780409   -0.00268337
     atom   39 type  1   force =    -0.02149965    0.00784933    0.00381066
     atom   40 type  1   force =     0.01507203   -0.00692556   -0.01932554
     atom   41 type  1   force =     0.01085026    0.01944614    0.03338873
     atom   42 type  1   force =    -0.01440455   -0.02978925    0.01155450
     atom   43 type  1   force =     0.03174277   -0.00044065    0.02565554
     atom   44 type  1   force =    -0.00593012    0.02142722    0.01937007
     atom   45 type  1   force =    -0.01127633   -0.01210851   -0.02815335
     atom   46 type  1   force =     0.02510923    0.00006867   -0.00917353
     atom   47 type  1   force =    -0.00921176   -0.01672963    0.00719230
     atom   48 type  1   force =     0.01095140    0.03146300   -0.01154048
     atom   49 type  1   force =     0.00712579   -0.02537140   -0.04199428
     atom   50 type  1   force =     0.00712168    0.01734162    0.03768064
     atom   51 type  1   force =    -0.03508467   -0.01317804   -0.01248834
     atom   52 type  1   force =    -0.04262426   -0.03139652    0.00601173
     atom   53 type  1   force =     0.02570767   -0.02108090   -0.01563243
     atom   54 type  1   force =     0.03110125   -0.00075289    0.02803821
     atom   55 type  1   force =     0.02558717    0.04105965    0.00766164
     atom   56 type  1   force =    -0.04251776    0.02930032    0.00082226
     atom   57 type  1   force =    -0.02941426   -0.03013164    0.00844552
     atom   58 type  1   force =    -0.04747661    0.03052609    0.02477116
     atom   59 type  1   force =    -0.00461316    0.01125475    0.00874495
     atom   60 type  1   force =     0.01849320    0.01660717    0.00184779
     atom   61 type  1   force =    -0.01007889    0.02401475    0.00977958
     atom   62 type  1   force =    -0.02427465   -0.01443834   -0.00061254
     atom   63 type  1   force =     0.00224710    0.00736014    0.00491261
     atom   64 type  1   force =     0.05267964   -0.01315777   -0.00649747

     Total force =     0.378479     Total SCF correction =     0.000861


     Computing stress (Cartesian axis) and pressure

          total   stress  (Ry/bohr**3)                   (kbar)     P=      -39.63
  -0.00022182  -0.00001344   0.00001821          -32.63       -1.98        2.68
  -0.00001344  -0.00026611  -0.00000211           -1.98      -39.15       -0.31
   0.00001821  -0.00000211  -0.00032032            2.68       -0.31      -47.12

 
     init_run     :      1.09s CPU      4.95s WALL (       1 calls)
     electrons    :      2.00s CPU      2.15s WALL (       1 calls)
     forces       :      0.03s CPU      0.04s WALL (       1 calls)
     stress       :      0.15s CPU      0.16s WALL (       1 calls)

     Called by init_run:
     wfcinit      :      0.54s CPU      4.23s WALL (       1 calls)
                                        4.23s GPU  (       1 calls)
     potinit      :      0.05s CPU      0.15s WALL (       1 calls)
     hinit0       :      0.47s CPU      0.50s WALL (       1 calls)

     Called by electrons:
     c_bands      :      1.18s CPU      1.25s WALL (      20 calls)
     sum_band     :      0.40s CPU      0.44s WALL (      20 calls)
     v_of_rho     :      0.19s CPU      0.30s WALL (      20 calls)
     mix_rho      :      0.19s CPU      0.20s WALL (      20 calls)

     Called by c_bands:
     init_us_2    :      0.07s CPU      0.08s WALL (      41 calls)
     init_us_2:gp :      0.07s CPU      0.08s WALL (      41 calls)
     regterg      :      1.00s CPU      1.07s WALL (      20 calls)

     Called by *egterg:
     rdiaghg      :      0.41s CPU      1.17s WALL (      87 calls)
                                        1.15s GPU  (      87 calls)
     h_psi        :      0.94s CPU      3.92s WALL (      89 calls)
                                        3.91s GPU  (      89 calls)
     g_psi        :      0.00s CPU      0.00s WALL (      68 calls)
                                        0.00s GPU  (      68 calls)

     Called by h_psi:
     h_psi:calbec :      0.50s CPU      3.39s WALL (      89 calls)
                                        3.39s GPU  (      89 calls)
     vloc_psi     :      0.39s CPU      0.46s WALL (      89 calls)
                                        0.46s GPU  (      89 calls)
     add_vuspsi   :      0.03s CPU      0.05s WALL (      89 calls)
                                        0.05s GPU  (      89 calls)

     General routines
     calbec       :      0.51s CPU      3.40s WALL (      94 calls)
     fft          :      0.63s CPU      0.77s WALL (     167 calls)
                                        0.13s GPU  (     106 calls)
     ffts         :      0.05s CPU      0.05s WALL (      20 calls)
     fftw         :      0.47s CPU      0.62s WALL (    2096 calls)
                                        0.54s GPU  (    2096 calls)
 
     Parallel routines
 
     PWSCF        :      3.31s CPU      7.38s WALL

 
   This run was terminated on:  10:48:57  10May2023            

=------------------------------------------------------------------------------=
   JOB DONE.
=------------------------------------------------------------------------------=
