An instance of this daemon is already running
An instance of this daemon is already running

     Program PWSCF v.7.1 starts on 10May2023 at 10:46:43 

     This program is part of the open-source Quantum ESPRESSO suite
     for quantum simulation of materials; please cite
         "P. Giannozzi et al., J. Phys.:Condens. Matter 21 395502 (2009);
         "P. Giannozzi et al., J. Phys.:Condens. Matter 29 465901 (2017);
         "P. Giannozzi et al., J. Chem. Phys. 152 154105 (2020);
          URL http://www.quantum-espresso.org", 
     in publications or presentations arising from this work. More details at
     http://www.quantum-espresso.org/quote

     Parallel version (MPI & OpenMP), running on       4 processor cores
     Number of MPI processes:                 4
     Threads/MPI process:                     1

     MPI processes distributed on     1 nodes
     753556 MiB available memory on the printing compute node when the environment starts
 
     Reading input from pw-si-57.in
Warning: card &CELL ignored
Warning: card / ignored

     Current dimensions of program PWSCF are:
     Max number of different atomic species (ntypx) = 10
     Max number of k-points (npk) =  40000
     Max angular momentum in pseudopotentials (lmaxx) =  4

     IMPORTANT: XC functional enforced from input :
     Exchange-correlation= PBE
                           (   1   4   3   4   0   0   0)
     Any further DFT definition will be discarded
     Please, verify this is what you really want


     gamma-point specific algorithms are used
 
     K-points division:     npool     =       2
     R & G space division:  proc/nbgrp/npool/nimage =       2
     Subspace diagonalization in iterative solution of the eigenvalue problem:
     a serial algorithm will be used

     Message from routine divide_et_impera:
     suboptimal parallelization: some nodes have no k-points
 
     Parallelization info
     --------------------
     sticks:   dense  smooth     PW     G-vecs:    dense   smooth      PW
     Min        1929    1929    504                90123    90123   12201
     Max        1932    1932    505                90128    90128   12204
     Sum        3861    3861   1009               180251   180251   24405
 
     Using Slab Decomposition
 


     bravais-lattice index     =            0
     lattice parameter (alat)  =      20.1050  a.u.
     unit-cell volume          =    8126.6476 (a.u.)^3
     number of atoms/cell      =           64
     number of atomic types    =            1
     number of electrons       =       256.00
     number of Kohn-Sham states=          154
     kinetic-energy cutoff     =      30.0000  Ry
     charge density cutoff     =     120.0000  Ry
     scf convergence threshold =      1.0E-06
     mixing beta               =       0.5000
     number of iterations used =            8  plain     mixing
     Exchange-correlation= PBE
                           (   1   4   3   4   0   0   0)

     GPU acceleration is ACTIVE.
     GPU-aware MPI enabled

     Message from routine print_cuda_info:
     High GPU oversubscription detected. Are you sure this is what you want?

     celldm(1)=  20.104988  celldm(2)=   0.000000  celldm(3)=   0.000000
     celldm(4)=   0.000000  celldm(5)=   0.000000  celldm(6)=   0.000000

     crystal axes: (cart. coord. in units of alat)
               a(1) = (   1.000000   0.000000   0.000000 )  
               a(2) = (   0.000000   1.000000   0.000000 )  
               a(3) = (   0.000000   0.000000   1.000000 )  

     reciprocal axes: (cart. coord. in units 2 pi/alat)
               b(1) = (  1.000000  0.000000  0.000000 )  
               b(2) = (  0.000000  1.000000  0.000000 )  
               b(3) = (  0.000000  0.000000  1.000000 )  


     PseudoPot. # 1 for Si read from file:
     /home/ppiaggi/pseudos/Si_ONCV_PBE_sr.upf
     MD5 check sum: 8553c464762ac42b85b1eed164b4d029
     Pseudo is Norm-conserving, Zval =  4.0
     Generated using ONCVPSP code by D. R. Hamann
     Using radial grid of 1510 points,  4 beta functions with: 
                l(1) =   0
                l(2) =   0
                l(3) =   1
                l(4) =   1

     atomic species   valence    mass     pseudopotential
        Si             4.00    28.08500     Si( 1.00)

     No symmetry found



   Cartesian axes

     site n.     atom                  positions (alat units)
         1           Si  tau(   1) = (   0.3711130   0.7420390   0.7792980  )
         2           Si  tau(   2) = (   0.7330290   0.3886620   0.4570210  )
         3           Si  tau(   3) = (   0.1628790   0.6395980   0.1716960  )
         4           Si  tau(   4) = (   0.9412860   0.0726854   0.5615710  )
         5           Si  tau(   5) = (   0.7131200   0.9421660   0.7821520  )
         6           Si  tau(   6) = (   0.2726380   0.9882970   0.7989800  )
         7           Si  tau(   7) = (   0.2832600   0.1909900   0.2731890  )
         8           Si  tau(   8) = (   0.8404380   0.7611220   0.4585810  )
         9           Si  tau(   9) = (   0.4342280   0.8771620   0.5622040  )
        10           Si  tau(  10) = (   0.1337290   0.7090850   0.3963010  )
        11           Si  tau(  11) = (   0.8496820   0.9409510   0.2975630  )
        12           Si  tau(  12) = (   0.1556410   0.5249780   0.6673310  )
        13           Si  tau(  13) = (   0.4278570   0.0167420   0.1230540  )
        14           Si  tau(  14) = (   0.6439190   0.4838660   0.8512920  )
        15           Si  tau(  15) = (   0.1755340   0.0160666   0.3402450  )
        16           Si  tau(  16) = (   0.1560800   0.0150607   0.9812590  )
        17           Si  tau(  17) = (   0.4870630   0.2507530   0.3987100  )
        18           Si  tau(  18) = (   0.6390170   0.5862580   0.4008760  )
        19           Si  tau(  19) = (   0.8887550   0.4814760   0.6854750  )
        20           Si  tau(  20) = (   0.7346120   0.0310276   0.0467828  )
        21           Si  tau(  21) = (   0.1484770   0.7279370   0.7799110  )
        22           Si  tau(  22) = (   0.7404000   0.1216070   0.5982930  )
        23           Si  tau(  23) = (   0.4520370   0.4035180   0.5761200  )
        24           Si  tau(  24) = (   0.2244040   0.4030810   0.8817290  )
        25           Si  tau(  25) = (   0.9639490   0.3633020   0.3724740  )
        26           Si  tau(  26) = (   0.4125500   0.2398900   0.0588743  )
        27           Si  tau(  27) = (   0.7031370   0.3257010   0.6664640  )
        28           Si  tau(  28) = (   0.5242000   0.2686150   0.8787790  )
        29           Si  tau(  29) = (   0.4993030   0.1009870   0.5922030  )
        30           Si  tau(  30) = (   0.3489570   0.4807700   0.0722595  )
        31           Si  tau(  31) = (   0.4225940   0.7187480   0.1839200  )
        32           Si  tau(  32) = (   0.6656410   0.7970650   0.2349220  )
        33           Si  tau(  33) = (   0.9318940   0.5616740   0.2205140  )
        34           Si  tau(  34) = (   0.8307350   0.6814970   0.7786810  )
        35           Si  tau(  35) = (   0.9299910   0.9689700   0.8228060  )
        36           Si  tau(  36) = (   0.7444130   0.1915660   0.8760760  )
        37           Si  tau(  37) = (   0.3620550   0.2993890   0.7393060  )
        38           Si  tau(  38) = (   0.9072080   0.4310750   0.9328300  )
        39           Si  tau(  39) = (   0.4402040   0.6572090   0.4160250  )
        40           Si  tau(  40) = (   0.6803370   0.7777300   0.6145310  )
        41           Si  tau(  41) = (   0.5210110   0.4254200   0.2139230  )
        42           Si  tau(  42) = (   0.8602230   0.7216770   0.0022752  )
        43           Si  tau(  43) = (   0.1738820   0.4117230   0.3186900  )
        44           Si  tau(  44) = (   0.9757960   0.5762740   0.4750190  )
        45           Si  tau(  45) = (   0.2267390   0.8988610   0.5174780  )
        46           Si  tau(  46) = (   0.2227030   0.1110550   0.6229290  )
        47           Si  tau(  47) = (   0.4975990   0.0352889   0.8204360  )
        48           Si  tau(  48) = (   0.0061853   0.8477430   0.6342620  )
        49           Si  tau(  49) = (   0.5404450   0.6129300   0.6591950  )
        50           Si  tau(  50) = (   0.9986010   0.1075450   0.3183110  )
        51           Si  tau(  51) = (   0.9368420   0.9279950   0.0584352  )
        52           Si  tau(  52) = (   0.7418270   0.3127840   0.0949378  )
        53           Si  tau(  53) = (   0.7202440   0.5518300   0.1112280  )
        54           Si  tau(  54) = (   0.2387650   0.8794410   0.1510500  )
        55           Si  tau(  55) = (   0.6980160   0.1204260   0.3373180  )
        56           Si  tau(  56) = (   0.5896800   0.8659410   0.0003675  )
        57           Si  tau(  57) = (   0.5124880   0.6695290   0.9447900  )
        58           Si  tau(  58) = (   0.0693621   0.6155590   0.9702860  )
        59           Si  tau(  59) = (   0.5148420   0.9613170   0.3380880  )
        60           Si  tau(  60) = (   0.1423870   0.2591660   0.0540216  )
        61           Si  tau(  61) = (   0.2760210   0.5327340   0.4572860  )
        62           Si  tau(  62) = (   0.0474965   0.2577160   0.6166080  )
        63           Si  tau(  63) = (   0.9694340   0.2381710   0.8278290  )
        64           Si  tau(  64) = (   0.9752750   0.3384770   0.1428330  )

     number of k points=     1  Fermi-Dirac smearing, width (Ry)=  0.0100
                       cart. coord. in units 2pi/alat
        k(    1) = (   0.0000000   0.0000000   0.0000000), wk =   2.0000000

     Dense  grid:    90126 G-vectors     FFT dimensions: (  72,  72,  72)

     Estimated max dynamical RAM per process >     144.85 MB

     Estimated total dynamical RAM >     557.38 MB

     Initial potential from superposition of free atoms

     starting charge     255.9608, renormalised to     256.0000
     Starting wfcs are  256 randomized atomic wfcs

     total cpu time spent up to now is        5.0 secs

     Self-consistent Calculation

     iteration #  1     ecut=    30.00 Ry     beta= 0.50
     Davidson diagonalization with overlap
     ethr =  1.00E-02,  avg # of iterations =  3.0

     Threshold (ethr) on eigenvalues was too large:
     Diagonalizing with lowered threshold

     Davidson diagonalization with overlap
     ethr =  4.02E-04,  avg # of iterations =  4.0

     total cpu time spent up to now is        5.3 secs

     total energy              =    -501.19724908 Ry
     estimated scf accuracy    <       1.24654915 Ry

     iteration #  2     ecut=    30.00 Ry     beta= 0.50
     Davidson diagonalization with overlap
     ethr =  4.87E-04,  avg # of iterations =  5.0

     total cpu time spent up to now is        5.4 secs

     total energy              =    -500.73236904 Ry
     estimated scf accuracy    <       5.17089876 Ry

     iteration #  3     ecut=    30.00 Ry     beta= 0.50
     Davidson diagonalization with overlap
     ethr =  4.87E-04,  avg # of iterations =  5.0

     total cpu time spent up to now is        5.5 secs

     total energy              =    -501.23825326 Ry
     estimated scf accuracy    <       2.35569272 Ry

     iteration #  4     ecut=    30.00 Ry     beta= 0.50
     Davidson diagonalization with overlap
     ethr =  4.87E-04,  avg # of iterations =  2.0

     total cpu time spent up to now is        5.6 secs

     total energy              =    -501.39826866 Ry
     estimated scf accuracy    <       0.46862573 Ry

     iteration #  5     ecut=    30.00 Ry     beta= 0.50
     Davidson diagonalization with overlap
     ethr =  1.83E-04,  avg # of iterations =  2.0

     total cpu time spent up to now is        5.7 secs

     total energy              =    -501.43064877 Ry
     estimated scf accuracy    <       0.21276373 Ry

     iteration #  6     ecut=    30.00 Ry     beta= 0.50
     Davidson diagonalization with overlap
     ethr =  8.31E-05,  avg # of iterations =  2.0

     total cpu time spent up to now is        5.8 secs

     total energy              =    -501.45108901 Ry
     estimated scf accuracy    <       0.16168863 Ry

     iteration #  7     ecut=    30.00 Ry     beta= 0.50
     Davidson diagonalization with overlap
     ethr =  6.32E-05,  avg # of iterations =  1.0

     total cpu time spent up to now is        5.9 secs

     total energy              =    -501.46326701 Ry
     estimated scf accuracy    <       0.01402889 Ry

     iteration #  8     ecut=    30.00 Ry     beta= 0.50
     Davidson diagonalization with overlap
     ethr =  5.48E-06,  avg # of iterations = 15.0

     total cpu time spent up to now is        6.1 secs

     total energy              =    -501.46431367 Ry
     estimated scf accuracy    <       0.03254311 Ry

     iteration #  9     ecut=    30.00 Ry     beta= 0.50
     Davidson diagonalization with overlap
     ethr =  5.48E-06,  avg # of iterations =  3.0

     total cpu time spent up to now is        6.2 secs

     total energy              =    -501.46673005 Ry
     estimated scf accuracy    <       0.00247153 Ry

     iteration # 10     ecut=    30.00 Ry     beta= 0.50
     Davidson diagonalization with overlap
     ethr =  9.65E-07,  avg # of iterations =  4.0

     total cpu time spent up to now is        6.3 secs

     total energy              =    -501.46694257 Ry
     estimated scf accuracy    <       0.00160708 Ry

     iteration # 11     ecut=    30.00 Ry     beta= 0.50
     Davidson diagonalization with overlap
     ethr =  6.28E-07,  avg # of iterations =  2.0

     total cpu time spent up to now is        6.4 secs

     total energy              =    -501.46705158 Ry
     estimated scf accuracy    <       0.00079197 Ry

     iteration # 12     ecut=    30.00 Ry     beta= 0.50
     Davidson diagonalization with overlap
     ethr =  3.09E-07,  avg # of iterations =  2.0

     total cpu time spent up to now is        6.5 secs

     total energy              =    -501.46713388 Ry
     estimated scf accuracy    <       0.00015550 Ry

     iteration # 13     ecut=    30.00 Ry     beta= 0.50
     Davidson diagonalization with overlap
     ethr =  6.07E-08,  avg # of iterations =  2.0

     total cpu time spent up to now is        6.6 secs

     total energy              =    -501.46714806 Ry
     estimated scf accuracy    <       0.00005824 Ry

     iteration # 14     ecut=    30.00 Ry     beta= 0.50
     Davidson diagonalization with overlap
     ethr =  2.27E-08,  avg # of iterations =  2.0

     total cpu time spent up to now is        6.7 secs

     total energy              =    -501.46715267 Ry
     estimated scf accuracy    <       0.00003491 Ry

     iteration # 15     ecut=    30.00 Ry     beta= 0.50
     Davidson diagonalization with overlap
     ethr =  1.36E-08,  avg # of iterations =  2.0

     total cpu time spent up to now is        6.8 secs

     total energy              =    -501.46715471 Ry
     estimated scf accuracy    <       0.00000748 Ry

     iteration # 16     ecut=    30.00 Ry     beta= 0.50
     Davidson diagonalization with overlap
     ethr =  2.92E-09,  avg # of iterations =  4.0

     total cpu time spent up to now is        6.9 secs

     total energy              =    -501.46715556 Ry
     estimated scf accuracy    <       0.00001680 Ry

     iteration # 17     ecut=    30.00 Ry     beta= 0.50
     Davidson diagonalization with overlap
     ethr =  2.92E-09,  avg # of iterations =  2.0

     total cpu time spent up to now is        7.0 secs

     End of self-consistent calculation

          k = 0.0000 0.0000 0.0000 ( 11324 PWs)   bands (ev):

    -5.3611  -4.5842  -4.3352  -4.1374  -4.1115  -4.0712  -3.7779  -3.4766
    -3.3416  -3.1117  -3.0773  -2.9895  -2.9205  -2.8910  -2.8481  -2.7579
    -2.6747  -2.5443  -2.4316  -2.1022  -2.0093  -1.9447  -1.8030  -1.7229
    -1.5579  -1.5251  -1.3663  -0.9850  -0.7744  -0.6660  -0.4595  -0.3887
    -0.3198  -0.1674  -0.0189   0.0310   0.0604   0.1045   0.2125   0.2787
     0.3562   0.4592   0.5162   0.6024   0.7625   0.7892   0.9203   0.9851
     1.0530   1.1638   1.2346   1.3492   1.3943   1.4998   1.6706   1.7200
     1.7936   1.8826   2.0644   2.0842   2.1483   2.3006   2.4470   2.4924
     2.5470   2.5686   2.6275   2.7225   2.7802   2.8804   2.9324   3.0139
     3.1235   3.1771   3.2652   3.3056   3.4199   3.4555   3.4969   3.6437
     3.7588   4.1671   4.2272   4.4356   4.4837   4.5270   4.5937   4.6603
     4.7682   4.8130   4.8512   4.9378   4.9928   5.0928   5.1284   5.2528
     5.3199   5.3285   5.4319   5.4869   5.5116   5.6522   5.6794   5.7056
     5.7880   5.8067   5.8362   5.9150   5.9650   6.0748   6.0892   6.1182
     6.2114   6.2645   6.3110   6.3698   6.4761   6.5573   6.5882   6.7133
     6.7316   6.7696   6.8096   6.8299   6.9148   6.9579   6.9730   7.0385
     7.1290   7.2073   7.2977   7.3301   7.3635   7.4474   7.4839   7.5872
     7.7023   7.7278   7.8498   7.8645   7.9096   7.9557   8.0666   8.1494
     8.1716   8.1981   8.2459   8.3936   8.4314   8.5499   8.5776   8.6111
     8.6941   8.7750

     the Fermi energy is     7.1122 ev

!    total energy              =    -501.46715621 Ry
     estimated scf accuracy    <       0.00000065 Ry
     smearing contrib. (-TS)   =      -0.15044723 Ry
     internal energy E=F+TS    =    -501.31670898 Ry

     The total energy is F=E-TS. E is the sum of the following terms:
     one-electron contribution =     190.19002903 Ry
     hartree contribution      =      23.26332338 Ry
     xc contribution           =    -150.93165451 Ry
     ewald contribution        =    -563.83840687 Ry

     convergence has been achieved in  17 iterations

     Forces acting on atoms (cartesian axes, Ry/au):

     atom    1 type  1   force =     0.01564906    0.01977355   -0.02288665
     atom    2 type  1   force =     0.00585103   -0.02354792   -0.01681241
     atom    3 type  1   force =     0.02025984   -0.00763298    0.02377384
     atom    4 type  1   force =     0.05171969   -0.02256233   -0.04752181
     atom    5 type  1   force =    -0.02912329   -0.00124181   -0.00868418
     atom    6 type  1   force =     0.03410608   -0.01725820   -0.00050812
     atom    7 type  1   force =     0.03652356    0.06428190   -0.01391663
     atom    8 type  1   force =    -0.00353747    0.00038833   -0.00212548
     atom    9 type  1   force =     0.05251958   -0.03323843   -0.02668753
     atom   10 type  1   force =     0.03040247    0.00968605    0.00181859
     atom   11 type  1   force =    -0.00854479   -0.03121695   -0.02240900
     atom   12 type  1   force =     0.00093153   -0.00309386   -0.01554300
     atom   13 type  1   force =     0.01032460   -0.00538933    0.01147057
     atom   14 type  1   force =     0.00741025    0.01346770   -0.02484563
     atom   15 type  1   force =     0.07903437   -0.07271653   -0.01760716
     atom   16 type  1   force =    -0.04345983    0.02399924    0.04702885
     atom   17 type  1   force =     0.00356976    0.01153820   -0.01426970
     atom   18 type  1   force =     0.04700367    0.00599030   -0.01993014
     atom   19 type  1   force =     0.00318002   -0.00071699    0.00323272
     atom   20 type  1   force =     0.01075342    0.01959901   -0.00879196
     atom   21 type  1   force =    -0.01045308   -0.01400683   -0.00094968
     atom   22 type  1   force =    -0.07078802   -0.01325162   -0.00705477
     atom   23 type  1   force =     0.03078509    0.03512576   -0.03936836
     atom   24 type  1   force =    -0.01272557    0.02014476    0.02825900
     atom   25 type  1   force =    -0.01873863   -0.00409435    0.01306662
     atom   26 type  1   force =    -0.03171579   -0.02246962    0.06149457
     atom   27 type  1   force =    -0.00110701    0.05248595    0.01198326
     atom   28 type  1   force =     0.05748813   -0.00517629   -0.01388725
     atom   29 type  1   force =     0.00536382    0.00674725   -0.00148169
     atom   30 type  1   force =    -0.01850254    0.02435362    0.00143786
     atom   31 type  1   force =    -0.00279366    0.01632340   -0.00497020
     atom   32 type  1   force =    -0.03627455    0.00326689   -0.00288555
     atom   33 type  1   force =    -0.00542583   -0.02244694    0.00784003
     atom   34 type  1   force =    -0.02109408   -0.00753202   -0.01142446
     atom   35 type  1   force =     0.01276525    0.00645439    0.00055920
     atom   36 type  1   force =    -0.00744153   -0.00575743    0.02886382
     atom   37 type  1   force =    -0.03850075   -0.04545250   -0.00897438
     atom   38 type  1   force =    -0.00231989    0.01834404    0.00421693
     atom   39 type  1   force =     0.00217791    0.05879954   -0.02186694
     atom   40 type  1   force =     0.00519183    0.00624005    0.02963697
     atom   41 type  1   force =     0.02549942   -0.02564248    0.00960302
     atom   42 type  1   force =     0.01598985   -0.01025288   -0.01397291
     atom   43 type  1   force =     0.00614564   -0.04036700   -0.05753023
     atom   44 type  1   force =    -0.01644275    0.01010536   -0.00516729
     atom   45 type  1   force =    -0.07817849   -0.01707827   -0.00747364
     atom   46 type  1   force =     0.03431269    0.02747488    0.02232058
     atom   47 type  1   force =    -0.01366116    0.00950548   -0.00236037
     atom   48 type  1   force =     0.02174718    0.00302599    0.00840488
     atom   49 type  1   force =    -0.01142921   -0.03490666    0.01357647
     atom   50 type  1   force =    -0.10454693    0.04184493    0.03236987
     atom   51 type  1   force =     0.00922736   -0.01018120    0.00280084
     atom   52 type  1   force =     0.01386701   -0.00816900   -0.00724328
     atom   53 type  1   force =     0.00967517    0.01744579    0.01260580
     atom   54 type  1   force =     0.00971854    0.00620902    0.01113142
     atom   55 type  1   force =    -0.03177828    0.01303950    0.01235572
     atom   56 type  1   force =     0.00552029    0.03060616    0.01500195
     atom   57 type  1   force =    -0.02504936   -0.02051393    0.02291862
     atom   58 type  1   force =    -0.03379274   -0.00330097   -0.03032338
     atom   59 type  1   force =     0.01993268   -0.00333209   -0.01147789
     atom   60 type  1   force =     0.09498187   -0.05996393   -0.06574447
     atom   61 type  1   force =    -0.01236902   -0.01637014    0.08088296
     atom   62 type  1   force =     0.00372329    0.01133003    0.01227500
     atom   63 type  1   force =    -0.00255525   -0.01834235    0.01136538
     atom   64 type  1   force =    -0.10100246    0.03962678    0.03440086

     Total force =     0.399932     Total SCF correction =     0.001629


     Computing stress (Cartesian axis) and pressure

          total   stress  (Ry/bohr**3)                   (kbar)     P=      -28.81
  -0.00003147  -0.00001917   0.00002366           -4.63       -2.82        3.48
  -0.00001917  -0.00030994  -0.00000550           -2.82      -45.59       -0.81
   0.00002366  -0.00000550  -0.00024611            3.48       -0.81      -36.20

 
     init_run     :      1.09s CPU      4.94s WALL (       1 calls)
     electrons    :      1.85s CPU      2.01s WALL (       1 calls)
     forces       :      0.04s CPU      0.04s WALL (       1 calls)
     stress       :      0.15s CPU      0.15s WALL (       1 calls)

     Called by init_run:
     wfcinit      :      0.54s CPU      4.22s WALL (       1 calls)
                                        4.22s GPU  (       1 calls)
     potinit      :      0.06s CPU      0.15s WALL (       1 calls)
     hinit0       :      0.47s CPU      0.50s WALL (       1 calls)

     Called by electrons:
     c_bands      :      1.12s CPU      1.19s WALL (      18 calls)
     sum_band     :      0.36s CPU      0.41s WALL (      18 calls)
     v_of_rho     :      0.18s CPU      0.28s WALL (      18 calls)
     mix_rho      :      0.16s CPU      0.18s WALL (      18 calls)

     Called by c_bands:
     init_us_2    :      0.07s CPU      0.07s WALL (      37 calls)
     init_us_2:gp :      0.07s CPU      0.07s WALL (      37 calls)
     regterg      :      0.95s CPU      1.02s WALL (      18 calls)

     Called by *egterg:
     rdiaghg      :      0.39s CPU      1.16s WALL (      79 calls)
                                        1.14s GPU  (      79 calls)
     h_psi        :      0.92s CPU      3.88s WALL (      81 calls)
                                        3.88s GPU  (      81 calls)
     g_psi        :      0.00s CPU      0.00s WALL (      62 calls)
                                        0.00s GPU  (      62 calls)

     Called by h_psi:
     h_psi:calbec :      0.50s CPU      3.38s WALL (      81 calls)
                                        3.38s GPU  (      81 calls)
     vloc_psi     :      0.37s CPU      0.44s WALL (      81 calls)
                                        0.44s GPU  (      81 calls)
     add_vuspsi   :      0.03s CPU      0.05s WALL (      81 calls)
                                        0.05s GPU  (      81 calls)

     General routines
     calbec       :      0.51s CPU      3.39s WALL (      86 calls)
     fft          :      0.62s CPU      0.75s WALL (     151 calls)
                                        0.13s GPU  (      96 calls)
     ffts         :      0.04s CPU      0.05s WALL (      18 calls)
     fftw         :      0.45s CPU      0.59s WALL (    1894 calls)
                                        0.52s GPU  (    1894 calls)
 
     Parallel routines
 
     PWSCF        :      3.17s CPU      7.23s WALL

 
   This run was terminated on:  10:46:51  10May2023            

=------------------------------------------------------------------------------=
   JOB DONE.
=------------------------------------------------------------------------------=
