An instance of this daemon is already running
An instance of this daemon is already running

     Program PWSCF v.7.1 starts on 10May2023 at 10:53:23 

     This program is part of the open-source Quantum ESPRESSO suite
     for quantum simulation of materials; please cite
         "P. Giannozzi et al., J. Phys.:Condens. Matter 21 395502 (2009);
         "P. Giannozzi et al., J. Phys.:Condens. Matter 29 465901 (2017);
         "P. Giannozzi et al., J. Chem. Phys. 152 154105 (2020);
          URL http://www.quantum-espresso.org", 
     in publications or presentations arising from this work. More details at
     http://www.quantum-espresso.org/quote

     Parallel version (MPI & OpenMP), running on       4 processor cores
     Number of MPI processes:                 4
     Threads/MPI process:                     1

     MPI processes distributed on     1 nodes
     753533 MiB available memory on the printing compute node when the environment starts
 
     Reading input from pw-si-98.in
Warning: card &CELL ignored
Warning: card / ignored

     Current dimensions of program PWSCF are:
     Max number of different atomic species (ntypx) = 10
     Max number of k-points (npk) =  40000
     Max angular momentum in pseudopotentials (lmaxx) =  4

     IMPORTANT: XC functional enforced from input :
     Exchange-correlation= PBE
                           (   1   4   3   4   0   0   0)
     Any further DFT definition will be discarded
     Please, verify this is what you really want


     gamma-point specific algorithms are used
 
     K-points division:     npool     =       2
     R & G space division:  proc/nbgrp/npool/nimage =       2
     Subspace diagonalization in iterative solution of the eigenvalue problem:
     a serial algorithm will be used

     Message from routine divide_et_impera:
     suboptimal parallelization: some nodes have no k-points
 
     Parallelization info
     --------------------
     sticks:   dense  smooth     PW     G-vecs:    dense   smooth      PW
     Min        1920    1920    502                89653    89653   12150
     Max        1921    1921    503                89656    89656   12153
     Sum        3841    3841   1005               179309   179309   24303
 
     Using Slab Decomposition
 


     bravais-lattice index     =            0
     lattice parameter (alat)  =      20.0742  a.u.
     unit-cell volume          =    8089.3132 (a.u.)^3
     number of atoms/cell      =           64
     number of atomic types    =            1
     number of electrons       =       256.00
     number of Kohn-Sham states=          154
     kinetic-energy cutoff     =      30.0000  Ry
     charge density cutoff     =     120.0000  Ry
     scf convergence threshold =      1.0E-06
     mixing beta               =       0.5000
     number of iterations used =            8  plain     mixing
     Exchange-correlation= PBE
                           (   1   4   3   4   0   0   0)

     GPU acceleration is ACTIVE.
     GPU-aware MPI enabled

     Message from routine print_cuda_info:
     High GPU oversubscription detected. Are you sure this is what you want?

     celldm(1)=  20.074152  celldm(2)=   0.000000  celldm(3)=   0.000000
     celldm(4)=   0.000000  celldm(5)=   0.000000  celldm(6)=   0.000000

     crystal axes: (cart. coord. in units of alat)
               a(1) = (   1.000000   0.000000   0.000000 )  
               a(2) = (   0.000000   1.000000   0.000000 )  
               a(3) = (   0.000000   0.000000   1.000000 )  

     reciprocal axes: (cart. coord. in units 2 pi/alat)
               b(1) = (  1.000000  0.000000  0.000000 )  
               b(2) = (  0.000000  1.000000  0.000000 )  
               b(3) = (  0.000000  0.000000  1.000000 )  


     PseudoPot. # 1 for Si read from file:
     /home/ppiaggi/pseudos/Si_ONCV_PBE_sr.upf
     MD5 check sum: 8553c464762ac42b85b1eed164b4d029
     Pseudo is Norm-conserving, Zval =  4.0
     Generated using ONCVPSP code by D. R. Hamann
     Using radial grid of 1510 points,  4 beta functions with: 
                l(1) =   0
                l(2) =   0
                l(3) =   1
                l(4) =   1

     atomic species   valence    mass     pseudopotential
        Si             4.00    28.08500     Si( 1.00)

     No symmetry found



   Cartesian axes

     site n.     atom                  positions (alat units)
         1           Si  tau(   1) = (   0.1894570   0.0752858   0.8106250  )
         2           Si  tau(   2) = (   0.7990020   0.8989700   0.3962390  )
         3           Si  tau(   3) = (   0.1837750   0.3225030   0.7745850  )
         4           Si  tau(   4) = (   0.7113820   0.7654000   0.6055950  )
         5           Si  tau(   5) = (   0.8106650   0.4740410   0.1963040  )
         6           Si  tau(   6) = (   0.7068260   0.3373870   0.5316710  )
         7           Si  tau(   7) = (   0.7622720   0.8474380   0.9432900  )
         8           Si  tau(   8) = (   0.1880880   0.5549750   0.1227480  )
         9           Si  tau(   9) = (   0.4419970   0.5143950   0.2596750  )
        10           Si  tau(  10) = (   0.2933490   0.4491020   0.9286290  )
        11           Si  tau(  11) = (   0.8855520   0.2784740   0.6709790  )
        12           Si  tau(  12) = (   0.1073310   0.0710658   0.4336960  )
        13           Si  tau(  13) = (   0.4762140   0.0291886   0.5748560  )
        14           Si  tau(  14) = (   0.7394550   0.1770600   0.3339700  )
        15           Si  tau(  15) = (   0.4890400   0.8620820   0.4139740  )
        16           Si  tau(  16) = (   0.4481040   0.7525450   0.7278110  )
        17           Si  tau(  17) = (   0.0467388   0.1913560   0.2053250  )
        18           Si  tau(  18) = (   0.9912250   0.4730920   0.7015090  )
        19           Si  tau(  19) = (   0.7534010   0.3889440   0.8592530  )
        20           Si  tau(  20) = (   0.3049910   0.0184583   0.0000953  )
        21           Si  tau(  21) = (   0.0615026   0.2542750   0.9795720  )
        22           Si  tau(  22) = (   0.1245920   0.8361680   0.8413150  )
        23           Si  tau(  23) = (   0.5048030   0.4297080   0.9403940  )
        24           Si  tau(  24) = (   0.2949620   0.7103430   0.3516260  )
        25           Si  tau(  25) = (   0.7485530   0.5187700   0.4032160  )
        26           Si  tau(  26) = (   0.1998890   0.8361990   0.1574450  )
        27           Si  tau(  27) = (   0.0281828   0.8284930   0.6102020  )
        28           Si  tau(  28) = (   0.4923860   0.3357640   0.1473640  )
        29           Si  tau(  29) = (   0.7081450   0.1453350   0.9605910  )
        30           Si  tau(  30) = (   0.3456090   0.3924050   0.4250470  )
        31           Si  tau(  31) = (   0.6950930   0.6711450   0.8503780  )
        32           Si  tau(  32) = (   0.8755180   0.9565130   0.6998060  )
        33           Si  tau(  33) = (   0.2765310   0.0726506   0.2456440  )
        34           Si  tau(  34) = (   0.5053920   0.2632980   0.4968500  )
        35           Si  tau(  35) = (   0.0586249   0.6390560   0.3712460  )
        36           Si  tau(  36) = (   0.9170200   0.6341610   0.5423400  )
        37           Si  tau(  37) = (   0.9527950   0.3549980   0.3358890  )
        38           Si  tau(  38) = (   0.5169420   0.0947222   0.8955760  )
        39           Si  tau(  39) = (   0.6297740   0.5012630   0.6816490  )
        40           Si  tau(  40) = (   0.8963310   0.0447580   0.1291910  )
        41           Si  tau(  41) = (   0.5494160   0.6411800   0.4600740  )
        42           Si  tau(  42) = (   0.6252600   0.6203240   0.0756559  )
        43           Si  tau(  43) = (   0.2785520   0.6872010   0.8776930  )
        44           Si  tau(  44) = (   0.8797470   0.0986204   0.5156710  )
        45           Si  tau(  45) = (   0.2672200   0.0395887   0.5998600  )
        46           Si  tau(  46) = (   0.0278588   0.8841990   0.3778720  )
        47           Si  tau(  47) = (   0.3916940   0.7230690   0.0741399  )
        48           Si  tau(  48) = (   0.5285110   0.8940140   0.0283038  )
        49           Si  tau(  49) = (   0.2584950   0.8063610   0.5801960  )
        50           Si  tau(  50) = (   0.9824330   0.4730010   0.0340516  )
        51           Si  tau(  51) = (   0.9179910   0.1301250   0.8429800  )
        52           Si  tau(  52) = (   0.5980120   0.9666780   0.2292940  )
        53           Si  tau(  53) = (   0.9913570   0.7181780   0.1297220  )
        54           Si  tau(  54) = (   0.9441400   0.6227890   0.8684850  )
        55           Si  tau(  55) = (   0.9676250   0.8913980   0.9952920  )
        56           Si  tau(  56) = (   0.3921260   0.5272960   0.5825240  )
        57           Si  tau(  57) = (   0.1511530   0.4529520   0.3195920  )
        58           Si  tau(  58) = (   0.7026110   0.2751330   0.1370920  )
        59           Si  tau(  59) = (   0.2953380   0.2315600   0.0615938  )
        60           Si  tau(  60) = (   0.4485580   0.2946820   0.7430250  )
        61           Si  tau(  61) = (   0.1874330   0.5980200   0.6687960  )
        62           Si  tau(  62) = (   0.4740730   0.1644830   0.2933290  )
        63           Si  tau(  63) = (   0.7977180   0.7592690   0.2318450  )
        64           Si  tau(  64) = (   0.6133980   0.9570110   0.7346410  )

     number of k points=     1  Fermi-Dirac smearing, width (Ry)=  0.0100
                       cart. coord. in units 2pi/alat
        k(    1) = (   0.0000000   0.0000000   0.0000000), wk =   2.0000000

     Dense  grid:    89655 G-vectors     FFT dimensions: (  72,  72,  72)

     Estimated max dynamical RAM per process >     144.24 MB

     Estimated total dynamical RAM >     555.07 MB

     Initial potential from superposition of free atoms

     starting charge     255.9608, renormalised to     256.0000
     Starting wfcs are  256 randomized atomic wfcs

     total cpu time spent up to now is        5.0 secs

     Self-consistent Calculation

     iteration #  1     ecut=    30.00 Ry     beta= 0.50
     Davidson diagonalization with overlap
     ethr =  1.00E-02,  avg # of iterations =  3.0

     Threshold (ethr) on eigenvalues was too large:
     Diagonalizing with lowered threshold

     Davidson diagonalization with overlap
     ethr =  4.27E-04,  avg # of iterations =  4.0

     total cpu time spent up to now is        5.3 secs

     total energy              =    -501.32282657 Ry
     estimated scf accuracy    <       1.31884707 Ry

     iteration #  2     ecut=    30.00 Ry     beta= 0.50
     Davidson diagonalization with overlap
     ethr =  5.15E-04,  avg # of iterations =  3.0

     total cpu time spent up to now is        5.4 secs

     total energy              =    -501.05392708 Ry
     estimated scf accuracy    <       2.86221303 Ry

     iteration #  3     ecut=    30.00 Ry     beta= 0.50
     Davidson diagonalization with overlap
     ethr =  5.15E-04,  avg # of iterations =  3.0

     total cpu time spent up to now is        5.5 secs

     total energy              =    -501.30006394 Ry
     estimated scf accuracy    <       2.87095551 Ry

     iteration #  4     ecut=    30.00 Ry     beta= 0.50
     Davidson diagonalization with overlap
     ethr =  5.15E-04,  avg # of iterations =  2.0

     total cpu time spent up to now is        5.6 secs

     total energy              =    -501.51758347 Ry
     estimated scf accuracy    <       0.52601628 Ry

     iteration #  5     ecut=    30.00 Ry     beta= 0.50
     Davidson diagonalization with overlap
     ethr =  2.05E-04,  avg # of iterations =  2.0

     total cpu time spent up to now is        5.7 secs

     total energy              =    -501.56481724 Ry
     estimated scf accuracy    <       0.10424360 Ry

     iteration #  6     ecut=    30.00 Ry     beta= 0.50
     Davidson diagonalization with overlap
     ethr =  4.07E-05,  avg # of iterations =  3.0

     total cpu time spent up to now is        5.8 secs

     total energy              =    -501.57044666 Ry
     estimated scf accuracy    <       0.21353793 Ry

     iteration #  7     ecut=    30.00 Ry     beta= 0.50
     Davidson diagonalization with overlap
     ethr =  4.07E-05,  avg # of iterations =  2.0

     total cpu time spent up to now is        5.9 secs

     total energy              =    -501.58654057 Ry
     estimated scf accuracy    <       0.00918292 Ry

     iteration #  8     ecut=    30.00 Ry     beta= 0.50
     Davidson diagonalization with overlap
     ethr =  3.59E-06,  avg # of iterations = 10.0

     total cpu time spent up to now is        6.1 secs

     total energy              =    -501.58746142 Ry
     estimated scf accuracy    <       0.01582315 Ry

     iteration #  9     ecut=    30.00 Ry     beta= 0.50
     Davidson diagonalization with overlap
     ethr =  3.59E-06,  avg # of iterations =  3.0

     total cpu time spent up to now is        6.2 secs

     total energy              =    -501.58877966 Ry
     estimated scf accuracy    <       0.00413031 Ry

     iteration # 10     ecut=    30.00 Ry     beta= 0.50
     Davidson diagonalization with overlap
     ethr =  1.61E-06,  avg # of iterations =  2.0

     total cpu time spent up to now is        6.3 secs

     total energy              =    -501.58912048 Ry
     estimated scf accuracy    <       0.00053353 Ry

     iteration # 11     ecut=    30.00 Ry     beta= 0.50
     Davidson diagonalization with overlap
     ethr =  2.08E-07,  avg # of iterations =  3.0

     total cpu time spent up to now is        6.4 secs

     total energy              =    -501.58915551 Ry
     estimated scf accuracy    <       0.00039960 Ry

     iteration # 12     ecut=    30.00 Ry     beta= 0.50
     Davidson diagonalization with overlap
     ethr =  1.56E-07,  avg # of iterations =  2.0

     total cpu time spent up to now is        6.5 secs

     total energy              =    -501.58919679 Ry
     estimated scf accuracy    <       0.00019519 Ry

     iteration # 13     ecut=    30.00 Ry     beta= 0.50
     Davidson diagonalization with overlap
     ethr =  7.62E-08,  avg # of iterations =  2.0

     total cpu time spent up to now is        6.6 secs

     total energy              =    -501.58920848 Ry
     estimated scf accuracy    <       0.00006237 Ry

     iteration # 14     ecut=    30.00 Ry     beta= 0.50
     Davidson diagonalization with overlap
     ethr =  2.44E-08,  avg # of iterations =  2.0

     total cpu time spent up to now is        6.7 secs

     total energy              =    -501.58921461 Ry
     estimated scf accuracy    <       0.00003878 Ry

     iteration # 15     ecut=    30.00 Ry     beta= 0.50
     Davidson diagonalization with overlap
     ethr =  1.51E-08,  avg # of iterations =  1.0

     total cpu time spent up to now is        6.8 secs

     total energy              =    -501.58921673 Ry
     estimated scf accuracy    <       0.00000377 Ry

     iteration # 16     ecut=    30.00 Ry     beta= 0.50
     Davidson diagonalization with overlap
     ethr =  1.47E-09,  avg # of iterations =  4.0

     total cpu time spent up to now is        6.9 secs

     total energy              =    -501.58921726 Ry
     estimated scf accuracy    <       0.00000884 Ry

     iteration # 17     ecut=    30.00 Ry     beta= 0.50
     Davidson diagonalization with overlap
     ethr =  1.47E-09,  avg # of iterations =  3.0

     total cpu time spent up to now is        7.0 secs

     total energy              =    -501.58921777 Ry
     estimated scf accuracy    <       0.00000490 Ry

     iteration # 18     ecut=    30.00 Ry     beta= 0.50
     Davidson diagonalization with overlap
     ethr =  1.47E-09,  avg # of iterations =  2.0

     total cpu time spent up to now is        7.1 secs

     End of self-consistent calculation

          k = 0.0000 0.0000 0.0000 ( 11288 PWs)   bands (ev):

    -5.3621  -4.4817  -4.3308  -4.2159  -4.1773  -4.0122  -3.8909  -3.4431
    -3.3036  -3.2362  -3.1851  -3.0485  -3.0030  -2.9364  -2.8191  -2.7747
    -2.6869  -2.6229  -2.4143  -2.1645  -1.9165  -1.9035  -1.7517  -1.7195
    -1.6354  -1.4669  -1.3796  -0.9381  -0.8077  -0.6392  -0.5004  -0.3614
    -0.2077  -0.1129  -0.0230   0.0372   0.0568   0.1808   0.2703   0.3159
     0.4496   0.4693   0.5580   0.5829   0.7594   0.8026   0.8467   1.0097
     1.0509   1.1473   1.2097   1.3800   1.4203   1.4483   1.5816   1.6712
     1.7698   1.8480   1.9240   2.0899   2.1411   2.1702   2.3795   2.4831
     2.5494   2.6046   2.6484   2.8348   2.8983   3.0314   3.0464   3.1377
     3.1618   3.2154   3.2383   3.4039   3.4126   3.4712   3.6589   3.8423
     4.0072   4.1876   4.3710   4.4260   4.4530   4.5616   4.5818   4.7038
     4.7312   4.7564   4.9075   4.9996   5.1136   5.1784   5.1895   5.2592
     5.2871   5.3399   5.4280   5.4494   5.4967   5.5461   5.6059   5.6657
     5.8037   5.8532   5.9123   5.9663   5.9943   6.0414   6.1052   6.1567
     6.2024   6.2482   6.3150   6.3800   6.4269   6.4949   6.5325   6.5676
     6.6771   6.7470   6.7936   6.9169   6.9789   6.9999   7.0583   7.1033
     7.1781   7.2682   7.3122   7.4212   7.4414   7.5027   7.5835   7.6502
     7.7527   7.8365   7.8784   7.9941   8.0082   8.0578   8.0977   8.2167
     8.2801   8.3124   8.4216   8.4570   8.5702   8.5913   8.5992   8.6369
     8.7048   8.7999

     the Fermi energy is     7.1630 ev

!    total energy              =    -501.58921777 Ry
     estimated scf accuracy    <       0.00000042 Ry
     smearing contrib. (-TS)   =      -0.13899437 Ry
     internal energy E=F+TS    =    -501.45022340 Ry

     The total energy is F=E-TS. E is the sum of the following terms:
     one-electron contribution =     186.07316841 Ry
     hartree contribution      =      25.69659896 Ry
     xc contribution           =    -151.36999775 Ry
     ewald contribution        =    -561.84999302 Ry

     convergence has been achieved in  18 iterations

     Forces acting on atoms (cartesian axes, Ry/au):

     atom    1 type  1   force =    -0.02596635   -0.00053912   -0.00312289
     atom    2 type  1   force =    -0.01658082    0.00731775    0.01846226
     atom    3 type  1   force =    -0.00119995   -0.00532025    0.02826784
     atom    4 type  1   force =     0.01002448   -0.01010880   -0.00519303
     atom    5 type  1   force =     0.01083010   -0.02089763   -0.05414002
     atom    6 type  1   force =     0.02299233    0.00493612   -0.00973369
     atom    7 type  1   force =    -0.03316201    0.04942434    0.00168334
     atom    8 type  1   force =    -0.01679901    0.00042910   -0.01986363
     atom    9 type  1   force =    -0.01484693    0.05614299    0.02199552
     atom   10 type  1   force =    -0.04790853    0.01440623    0.01145629
     atom   11 type  1   force =    -0.02223312   -0.00039091   -0.00245701
     atom   12 type  1   force =     0.01917669    0.04219359    0.00576799
     atom   13 type  1   force =     0.03367372    0.02260313   -0.04715768
     atom   14 type  1   force =     0.00522966   -0.00479655    0.03734728
     atom   15 type  1   force =     0.00027602   -0.00784429   -0.02005706
     atom   16 type  1   force =     0.00490734    0.00118443   -0.00730638
     atom   17 type  1   force =     0.02321382    0.00617660    0.00379556
     atom   18 type  1   force =     0.01365551    0.01582554   -0.00979770
     atom   19 type  1   force =    -0.02061998   -0.00402752   -0.00423103
     atom   20 type  1   force =     0.03209485   -0.00780509    0.00549427
     atom   21 type  1   force =     0.01315223    0.01258969   -0.01244619
     atom   22 type  1   force =    -0.05003842    0.02590547   -0.02673567
     atom   23 type  1   force =     0.06045953   -0.00455429   -0.01551847
     atom   24 type  1   force =     0.00315501    0.02406844    0.01694570
     atom   25 type  1   force =     0.00143826    0.03499143    0.03141755
     atom   26 type  1   force =     0.01391766    0.00097202    0.03057576
     atom   27 type  1   force =     0.02080499   -0.03327388    0.00521869
     atom   28 type  1   force =    -0.00849514   -0.01378653   -0.03021736
     atom   29 type  1   force =     0.09377757    0.02218641    0.01701488
     atom   30 type  1   force =    -0.02971368    0.00554050   -0.03472660
     atom   31 type  1   force =     0.01151675   -0.05191848   -0.03157767
     atom   32 type  1   force =    -0.04738108    0.01277549    0.01482986
     atom   33 type  1   force =    -0.05403148   -0.00453841   -0.01412823
     atom   34 type  1   force =    -0.00642252   -0.08076565    0.02735588
     atom   35 type  1   force =     0.01967212    0.07354359   -0.00091380
     atom   36 type  1   force =    -0.02560099   -0.01552031    0.01359824
     atom   37 type  1   force =    -0.00539493   -0.03393233   -0.01190115
     atom   38 type  1   force =    -0.06607695   -0.01777323   -0.03287281
     atom   39 type  1   force =    -0.03588634   -0.00732117    0.00913791
     atom   40 type  1   force =    -0.03278609    0.01573884    0.02397012
     atom   41 type  1   force =     0.01775052    0.01273208   -0.00544507
     atom   42 type  1   force =    -0.01216256   -0.00882843    0.00046826
     atom   43 type  1   force =     0.03563610   -0.03555965   -0.01641655
     atom   44 type  1   force =     0.01267354    0.00810662   -0.01469894
     atom   45 type  1   force =    -0.05060852   -0.02593834    0.00629416
     atom   46 type  1   force =    -0.00609016   -0.06930410   -0.00249410
     atom   47 type  1   force =     0.00391823   -0.00953966   -0.00510107
     atom   48 type  1   force =     0.00872331    0.01336890   -0.00548478
     atom   49 type  1   force =     0.00257084    0.00669926   -0.02568340
     atom   50 type  1   force =     0.00105087    0.01624078    0.01958277
     atom   51 type  1   force =     0.00162218    0.01098335    0.00103991
     atom   52 type  1   force =     0.00009118    0.00424658    0.05834537
     atom   53 type  1   force =     0.04362766   -0.03455890    0.02112904
     atom   54 type  1   force =    -0.02631718   -0.00716501   -0.00222706
     atom   55 type  1   force =     0.03192934   -0.01437445   -0.02835950
     atom   56 type  1   force =     0.02642829    0.04047917    0.04690788
     atom   57 type  1   force =     0.02625092   -0.03941899    0.00342795
     atom   58 type  1   force =     0.02108232    0.03496689    0.00757813
     atom   59 type  1   force =    -0.01224725    0.01552402    0.01643646
     atom   60 type  1   force =    -0.00359554    0.01541708    0.01260425
     atom   61 type  1   force =     0.01583426    0.01452042    0.00992539
     atom   62 type  1   force =     0.03151485   -0.02209958   -0.00257521
     atom   63 type  1   force =    -0.02456501   -0.01997420   -0.03578306
     atom   64 type  1   force =     0.00205750   -0.03036109    0.01029232

     Total force =     0.358243     Total SCF correction =     0.001326


     Computing stress (Cartesian axis) and pressure

          total   stress  (Ry/bohr**3)                   (kbar)     P=      -19.31
  -0.00020257   0.00001128  -0.00004989          -29.80        1.66       -7.34
   0.00001128  -0.00016222   0.00004618            1.66      -23.86        6.79
  -0.00004989   0.00004618  -0.00002908           -7.34        6.79       -4.28

 
     init_run     :      1.07s CPU      4.96s WALL (       1 calls)
     electrons    :      1.88s CPU      2.03s WALL (       1 calls)
     forces       :      0.04s CPU      0.04s WALL (       1 calls)
     stress       :      0.15s CPU      0.16s WALL (       1 calls)

     Called by init_run:
     wfcinit      :      0.53s CPU      4.23s WALL (       1 calls)
                                        4.23s GPU  (       1 calls)
     potinit      :      0.05s CPU      0.15s WALL (       1 calls)
     hinit0       :      0.46s CPU      0.49s WALL (       1 calls)

     Called by electrons:
     c_bands      :      1.09s CPU      1.16s WALL (      19 calls)
     sum_band     :      0.38s CPU      0.43s WALL (      19 calls)
     v_of_rho     :      0.18s CPU      0.29s WALL (      19 calls)
     mix_rho      :      0.18s CPU      0.19s WALL (      19 calls)

     Called by c_bands:
     init_us_2    :      0.07s CPU      0.07s WALL (      39 calls)
     init_us_2:gp :      0.07s CPU      0.07s WALL (      39 calls)
     regterg      :      0.92s CPU      0.99s WALL (      19 calls)

     Called by *egterg:
     rdiaghg      :      0.35s CPU      1.12s WALL (      74 calls)
                                        1.10s GPU  (      74 calls)
     h_psi        :      0.92s CPU      3.90s WALL (      76 calls)
                                        3.90s GPU  (      76 calls)
     g_psi        :      0.00s CPU      0.00s WALL (      56 calls)
                                        0.00s GPU  (      56 calls)

     Called by h_psi:
     h_psi:calbec :      0.50s CPU      3.40s WALL (      76 calls)
                                        3.40s GPU  (      76 calls)
     vloc_psi     :      0.38s CPU      0.45s WALL (      76 calls)
                                        0.45s GPU  (      76 calls)
     add_vuspsi   :      0.03s CPU      0.04s WALL (      76 calls)
                                        0.04s GPU  (      76 calls)

     General routines
     calbec       :      0.50s CPU      3.40s WALL (      81 calls)
     fft          :      0.62s CPU      0.76s WALL (     159 calls)
                                        0.14s GPU  (     101 calls)
     ffts         :      0.04s CPU      0.05s WALL (      19 calls)
     fftw         :      0.47s CPU      0.62s WALL (    1983 calls)
                                        0.54s GPU  (    1983 calls)
 
     Parallel routines
 
     PWSCF        :      3.18s CPU      7.27s WALL

 
   This run was terminated on:  10:53:30  10May2023            

=------------------------------------------------------------------------------=
   JOB DONE.
=------------------------------------------------------------------------------=
