An instance of this daemon is already running
An instance of this daemon is already running

     Program PWSCF v.7.1 starts on 10May2023 at 10:44:18 

     This program is part of the open-source Quantum ESPRESSO suite
     for quantum simulation of materials; please cite
         "P. Giannozzi et al., J. Phys.:Condens. Matter 21 395502 (2009);
         "P. Giannozzi et al., J. Phys.:Condens. Matter 29 465901 (2017);
         "P. Giannozzi et al., J. Chem. Phys. 152 154105 (2020);
          URL http://www.quantum-espresso.org", 
     in publications or presentations arising from this work. More details at
     http://www.quantum-espresso.org/quote

     Parallel version (MPI & OpenMP), running on       4 processor cores
     Number of MPI processes:                 4
     Threads/MPI process:                     1

     MPI processes distributed on     1 nodes
     753561 MiB available memory on the printing compute node when the environment starts
 
     Reading input from pw-si-42.in
Warning: card &CELL ignored
Warning: card / ignored

     Current dimensions of program PWSCF are:
     Max number of different atomic species (ntypx) = 10
     Max number of k-points (npk) =  40000
     Max angular momentum in pseudopotentials (lmaxx) =  4

     IMPORTANT: XC functional enforced from input :
     Exchange-correlation= PBE
                           (   1   4   3   4   0   0   0)
     Any further DFT definition will be discarded
     Please, verify this is what you really want


     gamma-point specific algorithms are used
 
     K-points division:     npool     =       2
     R & G space division:  proc/nbgrp/npool/nimage =       2
     Subspace diagonalization in iterative solution of the eigenvalue problem:
     a serial algorithm will be used

     Message from routine divide_et_impera:
     suboptimal parallelization: some nodes have no k-points
 
     Parallelization info
     --------------------
     sticks:   dense  smooth     PW     G-vecs:    dense   smooth      PW
     Min        1908    1908    502                88957    88957   12054
     Max        1909    1909    503                88960    88960   12057
     Sum        3817    3817   1005               177917   177917   24111
 
     Using Slab Decomposition
 


     bravais-lattice index     =            0
     lattice parameter (alat)  =      20.0111  a.u.
     unit-cell volume          =    8013.3556 (a.u.)^3
     number of atoms/cell      =           64
     number of atomic types    =            1
     number of electrons       =       256.00
     number of Kohn-Sham states=          154
     kinetic-energy cutoff     =      30.0000  Ry
     charge density cutoff     =     120.0000  Ry
     scf convergence threshold =      1.0E-06
     mixing beta               =       0.5000
     number of iterations used =            8  plain     mixing
     Exchange-correlation= PBE
                           (   1   4   3   4   0   0   0)

     GPU acceleration is ACTIVE.
     GPU-aware MPI enabled

     Message from routine print_cuda_info:
     High GPU oversubscription detected. Are you sure this is what you want?

     celldm(1)=  20.011123  celldm(2)=   0.000000  celldm(3)=   0.000000
     celldm(4)=   0.000000  celldm(5)=   0.000000  celldm(6)=   0.000000

     crystal axes: (cart. coord. in units of alat)
               a(1) = (   1.000000   0.000000   0.000000 )  
               a(2) = (   0.000000   1.000000   0.000000 )  
               a(3) = (   0.000000   0.000000   1.000000 )  

     reciprocal axes: (cart. coord. in units 2 pi/alat)
               b(1) = (  1.000000  0.000000  0.000000 )  
               b(2) = (  0.000000  1.000000  0.000000 )  
               b(3) = (  0.000000  0.000000  1.000000 )  


     PseudoPot. # 1 for Si read from file:
     /home/ppiaggi/pseudos/Si_ONCV_PBE_sr.upf
     MD5 check sum: 8553c464762ac42b85b1eed164b4d029
     Pseudo is Norm-conserving, Zval =  4.0
     Generated using ONCVPSP code by D. R. Hamann
     Using radial grid of 1510 points,  4 beta functions with: 
                l(1) =   0
                l(2) =   0
                l(3) =   1
                l(4) =   1

     atomic species   valence    mass     pseudopotential
        Si             4.00    28.08500     Si( 1.00)

     No symmetry found



   Cartesian axes

     site n.     atom                  positions (alat units)
         1           Si  tau(   1) = (   0.9640710   0.0958344   0.7240750  )
         2           Si  tau(   2) = (   0.0641073   0.3215650   0.0346973  )
         3           Si  tau(   3) = (   0.7581800   0.5721650   0.9951890  )
         4           Si  tau(   4) = (   0.5088880   0.9315540   0.9032550  )
         5           Si  tau(   5) = (   0.3165760   0.4773540   0.5730360  )
         6           Si  tau(   6) = (   0.1680460   0.6968500   0.8397880  )
         7           Si  tau(   7) = (   0.0033875   0.6272740   0.6529100  )
         8           Si  tau(   8) = (   0.0289748   0.1895550   0.5034990  )
         9           Si  tau(   9) = (   0.4359570   0.7246290   0.5808360  )
        10           Si  tau(  10) = (   0.0635545   0.8274840   0.2109250  )
        11           Si  tau(  11) = (   0.9718840   0.4241610   0.5147530  )
        12           Si  tau(  12) = (   0.8068540   0.8451070   0.7233880  )
        13           Si  tau(  13) = (   0.5879450   0.7944190   0.7370420  )
        14           Si  tau(  14) = (   0.6380130   0.3424930   0.2279500  )
        15           Si  tau(  15) = (   0.4593120   0.5491390   0.0761245  )
        16           Si  tau(  16) = (   0.8136930   0.6720930   0.5194410  )
        17           Si  tau(  17) = (   0.3556940   0.0422157   0.8236990  )
        18           Si  tau(  18) = (   0.9774360   0.1009590   0.9482890  )
        19           Si  tau(  19) = (   0.9748880   0.9041380   0.5548380  )
        20           Si  tau(  20) = (   0.3784990   0.5131490   0.7888550  )
        21           Si  tau(  21) = (   0.0155617   0.4504810   0.8242200  )
        22           Si  tau(  22) = (   0.4673390   0.8321870   0.2042110  )
        23           Si  tau(  23) = (   0.1581800   0.9410420   0.7637270  )
        24           Si  tau(  24) = (   0.3374130   0.3084780   0.4401770  )
        25           Si  tau(  25) = (   0.8868580   0.8180110   0.9378010  )
        26           Si  tau(  26) = (   0.1737000   0.5738430   0.4403690  )
        27           Si  tau(  27) = (   0.1542460   0.1006100   0.2865860  )
        28           Si  tau(  28) = (   0.5289190   0.9012950   0.4508390  )
        29           Si  tau(  29) = (   0.1267950   0.8752550   0.9939880  )
        30           Si  tau(  30) = (   0.7125070   0.7866210   0.3182500  )
        31           Si  tau(  31) = (   0.7584110   0.3555980   0.5632620  )
        32           Si  tau(  32) = (   0.1639980   0.3555910   0.3207180  )
        33           Si  tau(  33) = (   0.7142150   0.8282310   0.0824790  )
        34           Si  tau(  34) = (   0.6473500   0.5614320   0.5735140  )
        35           Si  tau(  35) = (   0.8749620   0.1390230   0.2876080  )
        36           Si  tau(  36) = (   0.9965390   0.6265400   0.9745150  )
        37           Si  tau(  37) = (   0.1924610   0.7638930   0.5644320  )
        38           Si  tau(  38) = (   0.9048950   0.5282320   0.3101350  )
        39           Si  tau(  39) = (   0.4075850   0.1836070   0.6376170  )
        40           Si  tau(  40) = (   0.7967940   0.0701465   0.0859356  )
        41           Si  tau(  41) = (   0.5761180   0.3451940   0.7608540  )
        42           Si  tau(  42) = (   0.2487660   0.0936505   0.0333277  )
        43           Si  tau(  43) = (   0.7025390   0.2040400   0.4120890  )
        44           Si  tau(  44) = (   0.5210870   0.5098620   0.3920320  )
        45           Si  tau(  45) = (   0.9168760   0.9186240   0.3376330  )
        46           Si  tau(  46) = (   0.6332360   0.0906667   0.7202000  )
        47           Si  tau(  47) = (   0.2393380   0.0461522   0.5286750  )
        48           Si  tau(  48) = (   0.9323580   0.3323680   0.2243040  )
        49           Si  tau(  49) = (   0.1658390   0.3090100   0.6990910  )
        50           Si  tau(  50) = (   0.3254610   0.3203410   0.9179420  )
        51           Si  tau(  51) = (   0.3579880   0.7509480   0.9993860  )
        52           Si  tau(  52) = (   0.5843790   0.5880650   0.8489210  )
        53           Si  tau(  53) = (   0.8405300   0.2872360   0.7551030  )
        54           Si  tau(  54) = (   0.0748643   0.5971840   0.1845460  )
        55           Si  tau(  55) = (   0.5310630   0.3134340   0.0001573  )
        56           Si  tau(  56) = (   0.2423270   0.4389630   0.1387560  )
        57           Si  tau(  57) = (   0.5465920   0.1022340   0.0517117  )
        58           Si  tau(  58) = (   0.7377340   0.9894150   0.5338990  )
        59           Si  tau(  59) = (   0.4919290   0.1105670   0.4251800  )
        60           Si  tau(  60) = (   0.2308780   0.8580510   0.3384590  )
        61           Si  tau(  61) = (   0.3510500   0.6430620   0.3080160  )
        62           Si  tau(  62) = (   0.6913510   0.5753150   0.2058260  )
        63           Si  tau(  63) = (   0.7906200   0.3318050   0.9968020  )
        64           Si  tau(  64) = (   0.4046160   0.0504748   0.2120120  )

     number of k points=     1  Fermi-Dirac smearing, width (Ry)=  0.0100
                       cart. coord. in units 2pi/alat
        k(    1) = (   0.0000000   0.0000000   0.0000000), wk =   2.0000000

     Dense  grid:    88959 G-vectors     FFT dimensions: (  72,  72,  72)

     Estimated max dynamical RAM per process >     143.08 MB

     Estimated total dynamical RAM >     550.59 MB

     Initial potential from superposition of free atoms

     starting charge     255.9608, renormalised to     256.0000
     Starting wfcs are  256 randomized atomic wfcs

     total cpu time spent up to now is        5.0 secs

     Self-consistent Calculation

     iteration #  1     ecut=    30.00 Ry     beta= 0.50
     Davidson diagonalization with overlap
     ethr =  1.00E-02,  avg # of iterations =  3.0

     Threshold (ethr) on eigenvalues was too large:
     Diagonalizing with lowered threshold

     Davidson diagonalization with overlap
     ethr =  4.34E-04,  avg # of iterations =  4.0

     total cpu time spent up to now is        5.3 secs

     total energy              =    -501.22134579 Ry
     estimated scf accuracy    <       1.35278377 Ry

     iteration #  2     ecut=    30.00 Ry     beta= 0.50
     Davidson diagonalization with overlap
     ethr =  5.28E-04,  avg # of iterations =  4.0

     total cpu time spent up to now is        5.4 secs

     total energy              =    -500.57565347 Ry
     estimated scf accuracy    <       8.07028378 Ry

     iteration #  3     ecut=    30.00 Ry     beta= 0.50
     Davidson diagonalization with overlap
     ethr =  5.28E-04,  avg # of iterations =  4.0

     total cpu time spent up to now is        5.5 secs

     total energy              =    -501.36080624 Ry
     estimated scf accuracy    <       1.96319933 Ry

     iteration #  4     ecut=    30.00 Ry     beta= 0.50
     Davidson diagonalization with overlap
     ethr =  5.28E-04,  avg # of iterations =  2.0

     total cpu time spent up to now is        5.6 secs

     total energy              =    -501.45654106 Ry
     estimated scf accuracy    <       0.64481817 Ry

     iteration #  5     ecut=    30.00 Ry     beta= 0.50
     Davidson diagonalization with overlap
     ethr =  2.52E-04,  avg # of iterations =  2.0

     total cpu time spent up to now is        5.7 secs

     total energy              =    -501.48608291 Ry
     estimated scf accuracy    <       0.67671219 Ry

     iteration #  6     ecut=    30.00 Ry     beta= 0.50
     Davidson diagonalization with overlap
     ethr =  2.52E-04,  avg # of iterations =  2.0

     total cpu time spent up to now is        5.8 secs

     total energy              =    -501.54138625 Ry
     estimated scf accuracy    <       0.09210510 Ry

     iteration #  7     ecut=    30.00 Ry     beta= 0.50
     Davidson diagonalization with overlap
     c_bands:  1 eigenvalues not converged
     ethr =  3.60E-05,  avg # of iterations = 20.0

     total cpu time spent up to now is        6.0 secs

     total energy              =    -501.55219976 Ry
     estimated scf accuracy    <       0.02244280 Ry

     iteration #  8     ecut=    30.00 Ry     beta= 0.50
     Davidson diagonalization with overlap
     ethr =  8.77E-06,  avg # of iterations =  8.0

     total cpu time spent up to now is        6.1 secs

     total energy              =    -501.55451629 Ry
     estimated scf accuracy    <       0.01962011 Ry

     iteration #  9     ecut=    30.00 Ry     beta= 0.50
     Davidson diagonalization with overlap
     ethr =  7.66E-06,  avg # of iterations =  2.0

     total cpu time spent up to now is        6.2 secs

     total energy              =    -501.55617912 Ry
     estimated scf accuracy    <       0.00194524 Ry

     iteration # 10     ecut=    30.00 Ry     beta= 0.50
     Davidson diagonalization with overlap
     ethr =  7.60E-07,  avg # of iterations =  7.0

     total cpu time spent up to now is        6.4 secs

     total energy              =    -501.55643503 Ry
     estimated scf accuracy    <       0.00102553 Ry

     iteration # 11     ecut=    30.00 Ry     beta= 0.50
     Davidson diagonalization with overlap
     ethr =  4.01E-07,  avg # of iterations =  3.0

     total cpu time spent up to now is        6.5 secs

     total energy              =    -501.55651007 Ry
     estimated scf accuracy    <       0.00062770 Ry

     iteration # 12     ecut=    30.00 Ry     beta= 0.50
     Davidson diagonalization with overlap
     ethr =  2.45E-07,  avg # of iterations =  2.0

     total cpu time spent up to now is        6.6 secs

     total energy              =    -501.55657039 Ry
     estimated scf accuracy    <       0.00024488 Ry

     iteration # 13     ecut=    30.00 Ry     beta= 0.50
     Davidson diagonalization with overlap
     ethr =  9.57E-08,  avg # of iterations =  2.0

     total cpu time spent up to now is        6.7 secs

     total energy              =    -501.55659189 Ry
     estimated scf accuracy    <       0.00007234 Ry

     iteration # 14     ecut=    30.00 Ry     beta= 0.50
     Davidson diagonalization with overlap
     ethr =  2.83E-08,  avg # of iterations =  2.0

     total cpu time spent up to now is        6.8 secs

     total energy              =    -501.55659680 Ry
     estimated scf accuracy    <       0.00004046 Ry

     iteration # 15     ecut=    30.00 Ry     beta= 0.50
     Davidson diagonalization with overlap
     ethr =  1.58E-08,  avg # of iterations =  2.0

     total cpu time spent up to now is        6.8 secs

     total energy              =    -501.55660021 Ry
     estimated scf accuracy    <       0.00002706 Ry

     iteration # 16     ecut=    30.00 Ry     beta= 0.50
     Davidson diagonalization with overlap
     ethr =  1.06E-08,  avg # of iterations =  2.0

     total cpu time spent up to now is        6.9 secs

     total energy              =    -501.55660250 Ry
     estimated scf accuracy    <       0.00000386 Ry

     iteration # 17     ecut=    30.00 Ry     beta= 0.50
     Davidson diagonalization with overlap
     ethr =  1.51E-09,  avg # of iterations =  2.0

     total cpu time spent up to now is        7.0 secs

     total energy              =    -501.55660280 Ry
     estimated scf accuracy    <       0.00000147 Ry

     iteration # 18     ecut=    30.00 Ry     beta= 0.50
     Davidson diagonalization with overlap
     ethr =  5.73E-10,  avg # of iterations =  5.0

     total cpu time spent up to now is        7.2 secs

     total energy              =    -501.55660294 Ry
     estimated scf accuracy    <       0.00000298 Ry

     iteration # 19     ecut=    30.00 Ry     beta= 0.50
     Davidson diagonalization with overlap
     ethr =  5.73E-10,  avg # of iterations =  3.0

     total cpu time spent up to now is        7.2 secs

     End of self-consistent calculation

          k = 0.0000 0.0000 0.0000 ( 11072 PWs)   bands (ev):

    -5.2744  -4.3124  -4.1996  -4.1232  -4.1004  -3.9903  -3.8369  -3.2904
    -3.2463  -3.1565  -2.9775  -2.8806  -2.8634  -2.7684  -2.6917  -2.6105
    -2.5975  -2.5292  -2.3509  -2.0686  -1.8152  -1.7375  -1.6624  -1.6141
    -1.4942  -1.3857  -1.0982  -0.7961  -0.5561  -0.5184  -0.3979  -0.2577
    -0.1674  -0.0781   0.0758   0.1008   0.2808   0.3132   0.3352   0.3449
     0.4906   0.6210   0.7644   0.8089   0.9221   1.0253   1.0937   1.2077
     1.2221   1.2608   1.3843   1.4423   1.4732   1.5577   1.6114   1.7085
     1.8260   1.9033   2.0132   2.1787   2.3364   2.3709   2.4824   2.5046
     2.5659   2.7790   2.7829   2.8997   2.9324   3.0422   3.0721   3.1565
     3.2123   3.3452   3.4003   3.4783   3.5203   3.6497   3.7225   3.8076
     3.9975   4.2437   4.4068   4.5166   4.5778   4.6592   4.7846   4.8159
     4.8704   4.9874   5.0462   5.0938   5.1954   5.2281   5.2964   5.3492
     5.4251   5.4356   5.4711   5.5355   5.6634   5.7506   5.8229   5.8331
     5.8761   5.9085   5.9827   6.0235   6.0900   6.1899   6.2285   6.2503
     6.3836   6.3998   6.5394   6.5528   6.5953   6.7357   6.7598   6.8084
     6.9230   6.9531   7.0104   7.0590   7.1106   7.1772   7.2546   7.2862
     7.3659   7.3926   7.4710   7.5540   7.5814   7.7026   7.7732   7.8614
     7.8924   7.9164   7.9803   8.0028   8.1227   8.1660   8.2192   8.2915
     8.3470   8.4667   8.4966   8.5190   8.5903   8.6221   8.6828   8.7772
     8.7860   8.8678

     the Fermi energy is     7.3313 ev

!    total energy              =    -501.55660304 Ry
     estimated scf accuracy    <       0.00000017 Ry
     smearing contrib. (-TS)   =      -0.14654180 Ry
     internal energy E=F+TS    =    -501.41006123 Ry

     The total energy is F=E-TS. E is the sum of the following terms:
     one-electron contribution =     194.97118146 Ry
     hartree contribution      =      22.37861157 Ry
     xc contribution           =    -151.35788239 Ry
     ewald contribution        =    -567.40197188 Ry

     convergence has been achieved in  19 iterations

     Forces acting on atoms (cartesian axes, Ry/au):

     atom    1 type  1   force =     0.01071674   -0.00905310   -0.00758477
     atom    2 type  1   force =    -0.00397309   -0.03164625   -0.01822981
     atom    3 type  1   force =     0.01799084   -0.01215743   -0.00861181
     atom    4 type  1   force =     0.05479754   -0.06117944    0.03174897
     atom    5 type  1   force =     0.01224582    0.00165860    0.04704558
     atom    6 type  1   force =     0.03653995    0.00289982   -0.02157424
     atom    7 type  1   force =    -0.00725957   -0.03007623   -0.00885199
     atom    8 type  1   force =     0.04164692   -0.00177171    0.00908707
     atom    9 type  1   force =    -0.00410885    0.01054687   -0.01896934
     atom   10 type  1   force =     0.01137080   -0.04101413   -0.07021070
     atom   11 type  1   force =     0.01383589    0.02403208   -0.02563083
     atom   12 type  1   force =     0.02113373    0.00137639   -0.02291691
     atom   13 type  1   force =     0.00445265   -0.02928824    0.02539507
     atom   14 type  1   force =    -0.00343970    0.02961142    0.00529865
     atom   15 type  1   force =    -0.02211902    0.00398815    0.00006783
     atom   16 type  1   force =     0.07532404    0.03855328   -0.02700341
     atom   17 type  1   force =    -0.08116952    0.05524199   -0.01931546
     atom   18 type  1   force =     0.02171042    0.01113493    0.00486450
     atom   19 type  1   force =    -0.00349659    0.00929346    0.03135053
     atom   20 type  1   force =    -0.03028214   -0.01417388   -0.00143613
     atom   21 type  1   force =    -0.01535563   -0.01714636   -0.02199746
     atom   22 type  1   force =    -0.01344018   -0.01787455    0.00854800
     atom   23 type  1   force =    -0.00977547   -0.01020147   -0.02164641
     atom   24 type  1   force =     0.06625273   -0.02952057    0.02542689
     atom   25 type  1   force =     0.02184191    0.00493089   -0.01435303
     atom   26 type  1   force =    -0.03312068   -0.01437201   -0.00530059
     atom   27 type  1   force =     0.01020054    0.00503489    0.01519960
     atom   28 type  1   force =     0.04890246   -0.07640591   -0.01162627
     atom   29 type  1   force =     0.00365838    0.03660543    0.01236117
     atom   30 type  1   force =    -0.00056316    0.00545823   -0.00368658
     atom   31 type  1   force =    -0.00134129    0.03212530    0.00386671
     atom   32 type  1   force =    -0.05130288   -0.02333329    0.02364815
     atom   33 type  1   force =    -0.02476631    0.01940011    0.02663368
     atom   34 type  1   force =    -0.05673244   -0.06137905    0.01098054
     atom   35 type  1   force =    -0.00507463   -0.06546794    0.01120608
     atom   36 type  1   force =    -0.01721465   -0.01042924   -0.01326681
     atom   37 type  1   force =     0.00066039    0.02531418   -0.00301551
     atom   38 type  1   force =    -0.03596499    0.01252035    0.03409841
     atom   39 type  1   force =     0.00125906    0.00169632    0.00303730
     atom   40 type  1   force =    -0.03534072   -0.00319360    0.00203935
     atom   41 type  1   force =    -0.01972066    0.00284239    0.01350830
     atom   42 type  1   force =    -0.02377463   -0.00093715   -0.00161043
     atom   43 type  1   force =    -0.02769808   -0.01685875   -0.00995291
     atom   44 type  1   force =    -0.00361387   -0.01004096   -0.00979910
     atom   45 type  1   force =    -0.05782047    0.02082596    0.02173362
     atom   46 type  1   force =     0.00918597    0.00540994   -0.01164643
     atom   47 type  1   force =    -0.03478634    0.00352752   -0.01887921
     atom   48 type  1   force =     0.02786622    0.01787121   -0.04490810
     atom   49 type  1   force =     0.01513376    0.00906527   -0.00081765
     atom   50 type  1   force =    -0.02659354    0.00889791   -0.02424994
     atom   51 type  1   force =    -0.00250980    0.01397224   -0.00217125
     atom   52 type  1   force =    -0.00007029    0.00437151   -0.01330182
     atom   53 type  1   force =     0.00532828   -0.00030897    0.04214445
     atom   54 type  1   force =     0.01157227    0.02524354   -0.00765865
     atom   55 type  1   force =     0.02067313    0.02246192    0.00685586
     atom   56 type  1   force =     0.01821538    0.04928829   -0.03614823
     atom   57 type  1   force =     0.04254349   -0.01881008   -0.01734420
     atom   58 type  1   force =    -0.02355806    0.01040071    0.01388737
     atom   59 type  1   force =    -0.00886332    0.05991820   -0.00811235
     atom   60 type  1   force =     0.06727591    0.02543603    0.06936664
     atom   61 type  1   force =     0.02566565    0.01446045   -0.01683374
     atom   62 type  1   force =    -0.01008371   -0.00767075    0.04560796
     atom   63 type  1   force =     0.00100953    0.00861157   -0.01174494
     atom   64 type  1   force =    -0.02407609   -0.01971632    0.03539872

     Total force =     0.371739     Total SCF correction =     0.000810


     Computing stress (Cartesian axis) and pressure

          total   stress  (Ry/bohr**3)                   (kbar)     P=      -21.68
  -0.00015240  -0.00002128  -0.00000055          -22.42       -3.13       -0.08
  -0.00002128  -0.00014857  -0.00006144           -3.13      -21.85       -9.04
  -0.00000055  -0.00006144  -0.00014121           -0.08       -9.04      -20.77

 
     init_run     :      1.08s CPU      4.94s WALL (       1 calls)
     electrons    :      2.08s CPU      2.23s WALL (       1 calls)
     forces       :      0.03s CPU      0.04s WALL (       1 calls)
     stress       :      0.15s CPU      0.15s WALL (       1 calls)

     Called by init_run:
     wfcinit      :      0.54s CPU      4.22s WALL (       1 calls)
                                        4.22s GPU  (       1 calls)
     potinit      :      0.06s CPU      0.15s WALL (       1 calls)
     hinit0       :      0.47s CPU      0.50s WALL (       1 calls)

     Called by electrons:
     c_bands      :      1.26s CPU      1.32s WALL (      20 calls)
     sum_band     :      0.41s CPU      0.46s WALL (      20 calls)
     v_of_rho     :      0.19s CPU      0.30s WALL (      20 calls)
     mix_rho      :      0.19s CPU      0.20s WALL (      20 calls)

     Called by c_bands:
     init_us_2    :      0.07s CPU      0.08s WALL (      41 calls)
     init_us_2:gp :      0.07s CPU      0.07s WALL (      41 calls)
     regterg      :      1.09s CPU      1.14s WALL (      20 calls)

     Called by *egterg:
     rdiaghg      :      0.46s CPU      1.21s WALL (     100 calls)
                                        1.19s GPU  (     100 calls)
     h_psi        :      0.97s CPU      3.94s WALL (     102 calls)
                                        3.94s GPU  (     102 calls)
     g_psi        :      0.00s CPU      0.00s WALL (      81 calls)
                                        0.00s GPU  (      81 calls)

     Called by h_psi:
     h_psi:calbec :      0.51s CPU      3.40s WALL (     102 calls)
                                        3.40s GPU  (     102 calls)
     vloc_psi     :      0.40s CPU      0.47s WALL (     102 calls)
                                        0.47s GPU  (     102 calls)
     add_vuspsi   :      0.04s CPU      0.06s WALL (     102 calls)
                                        0.06s GPU  (     102 calls)

     General routines
     calbec       :      0.51s CPU      3.40s WALL (     107 calls)
     fft          :      0.64s CPU      0.76s WALL (     167 calls)
                                        0.14s GPU  (     106 calls)
     ffts         :      0.04s CPU      0.05s WALL (      20 calls)
     fftw         :      0.49s CPU      0.64s WALL (    2132 calls)
                                        0.55s GPU  (    2132 calls)
 
     Parallel routines
 
     PWSCF        :      3.39s CPU      7.49s WALL

 
   This run was terminated on:  10:44:25  10May2023            

=------------------------------------------------------------------------------=
   JOB DONE.
=------------------------------------------------------------------------------=
