An instance of this daemon is already running

     Program PWSCF v.7.1 starts on 10May2023 at 10:44:57 

     This program is part of the open-source Quantum ESPRESSO suite
     for quantum simulation of materials; please cite
         "P. Giannozzi et al., J. Phys.:Condens. Matter 21 395502 (2009);
         "P. Giannozzi et al., J. Phys.:Condens. Matter 29 465901 (2017);
         "P. Giannozzi et al., J. Chem. Phys. 152 154105 (2020);
          URL http://www.quantum-espresso.org", 
     in publications or presentations arising from this work. More details at
     http://www.quantum-espresso.org/quote

     Parallel version (MPI & OpenMP), running on       4 processor cores
     Number of MPI processes:                 4
     Threads/MPI process:                     1

     MPI processes distributed on     1 nodes
     753561 MiB available memory on the printing compute node when the environment starts
 
     Reading input from pw-si-46.in
Warning: card &CELL ignored
Warning: card / ignored

     Current dimensions of program PWSCF are:
     Max number of different atomic species (ntypx) = 10
     Max number of k-points (npk) =  40000
     Max angular momentum in pseudopotentials (lmaxx) =  4

     IMPORTANT: XC functional enforced from input :
     Exchange-correlation= PBE
                           (   1   4   3   4   0   0   0)
     Any further DFT definition will be discarded
     Please, verify this is what you really want


     gamma-point specific algorithms are used
 
     K-points division:     npool     =       2
     R & G space division:  proc/nbgrp/npool/nimage =       2
     Subspace diagonalization in iterative solution of the eigenvalue problem:
     a serial algorithm will be used

     Message from routine divide_et_impera:
     suboptimal parallelization: some nodes have no k-points
 
     Parallelization info
     --------------------
     sticks:   dense  smooth     PW     G-vecs:    dense   smooth      PW
     Min        1916    1916    502                89460    89460   12150
     Max        1917    1917    503                89465    89465   12153
     Sum        3833    3833   1005               178925   178925   24303
 
     Using Slab Decomposition
 


     bravais-lattice index     =            0
     lattice parameter (alat)  =      20.0504  a.u.
     unit-cell volume          =    8060.6389 (a.u.)^3
     number of atoms/cell      =           64
     number of atomic types    =            1
     number of electrons       =       256.00
     number of Kohn-Sham states=          154
     kinetic-energy cutoff     =      30.0000  Ry
     charge density cutoff     =     120.0000  Ry
     scf convergence threshold =      1.0E-06
     mixing beta               =       0.5000
     number of iterations used =            8  plain     mixing
     Exchange-correlation= PBE
                           (   1   4   3   4   0   0   0)

     GPU acceleration is ACTIVE.
     GPU-aware MPI enabled

     Message from routine print_cuda_info:
     High GPU oversubscription detected. Are you sure this is what you want?

     celldm(1)=  20.050405  celldm(2)=   0.000000  celldm(3)=   0.000000
     celldm(4)=   0.000000  celldm(5)=   0.000000  celldm(6)=   0.000000

     crystal axes: (cart. coord. in units of alat)
               a(1) = (   1.000000   0.000000   0.000000 )  
               a(2) = (   0.000000   1.000000   0.000000 )  
               a(3) = (   0.000000   0.000000   1.000000 )  

     reciprocal axes: (cart. coord. in units 2 pi/alat)
               b(1) = (  1.000000  0.000000  0.000000 )  
               b(2) = (  0.000000  1.000000  0.000000 )  
               b(3) = (  0.000000  0.000000  1.000000 )  


     PseudoPot. # 1 for Si read from file:
     /home/ppiaggi/pseudos/Si_ONCV_PBE_sr.upf
     MD5 check sum: 8553c464762ac42b85b1eed164b4d029
     Pseudo is Norm-conserving, Zval =  4.0
     Generated using ONCVPSP code by D. R. Hamann
     Using radial grid of 1510 points,  4 beta functions with: 
                l(1) =   0
                l(2) =   0
                l(3) =   1
                l(4) =   1

     atomic species   valence    mass     pseudopotential
        Si             4.00    28.08500     Si( 1.00)

     No symmetry found



   Cartesian axes

     site n.     atom                  positions (alat units)
         1           Si  tau(   1) = (   0.5366380   0.6077910   0.8448130  )
         2           Si  tau(   2) = (   0.6841910   0.2646590   0.8566420  )
         3           Si  tau(   3) = (   0.9359380   0.1088210   0.7223150  )
         4           Si  tau(   4) = (   0.0181015   0.9287060   0.2329630  )
         5           Si  tau(   5) = (   0.9579160   0.0738234   0.0227484  )
         6           Si  tau(   6) = (   0.3889160   0.9911590   0.6214740  )
         7           Si  tau(   7) = (   0.5816120   0.6652570   0.3480770  )
         8           Si  tau(   8) = (   0.3467500   0.8132720   0.0412639  )
         9           Si  tau(   9) = (   0.5685080   0.9875430   0.8938140  )
        10           Si  tau(  10) = (   0.3543390   0.4677320   0.7330430  )
        11           Si  tau(  11) = (   0.1336900   0.0406408   0.8584500  )
        12           Si  tau(  12) = (   0.3221500   0.1827370   0.6961690  )
        13           Si  tau(  13) = (   0.4846680   0.3313580   0.5845930  )
        14           Si  tau(  14) = (   0.2589070   0.3287530   0.1032650  )
        15           Si  tau(  15) = (   0.0888853   0.7504200   0.9898980  )
        16           Si  tau(  16) = (   0.3810380   0.2250840   0.2883190  )
        17           Si  tau(  17) = (   0.3693030   0.7417110   0.6282530  )
        18           Si  tau(  18) = (   0.8799000   0.7687710   0.8658400  )
        19           Si  tau(  19) = (   0.0649810   0.2283640   0.2108150  )
        20           Si  tau(  20) = (   0.5707840   0.7379110   0.1294790  )
        21           Si  tau(  21) = (   0.8460630   0.2999600   0.0935533  )
        22           Si  tau(  22) = (   0.1959680   0.1029850   0.3607370  )
        23           Si  tau(  23) = (   0.8246750   0.0662671   0.2451830  )
        24           Si  tau(  24) = (   0.0943055   0.7514850   0.3968350  )
        25           Si  tau(  25) = (   0.8067190   0.4996280   0.1777020  )
        26           Si  tau(  26) = (   0.1521650   0.5861750   0.5861770  )
        27           Si  tau(  27) = (   0.0847492   0.8600340   0.5841980  )
        28           Si  tau(  28) = (   0.7949450   0.5234980   0.4940970  )
        29           Si  tau(  29) = (   0.6055840   0.2286750   0.3989520  )
        30           Si  tau(  30) = (   0.9292230   0.3271360   0.3954480  )
        31           Si  tau(  31) = (   0.8074580   0.9865360   0.8532650  )
        32           Si  tau(  32) = (   0.7194060   0.8500250   0.6234600  )
        33           Si  tau(  33) = (   0.5901820   0.6919160   0.5611820  )
        34           Si  tau(  34) = (   0.3414410   0.3991600   0.4357660  )
        35           Si  tau(  35) = (   0.2891080   0.9156540   0.4061340  )
        36           Si  tau(  36) = (   0.8997400   0.6933950   0.6504350  )
        37           Si  tau(  37) = (   0.3394480   0.6340710   0.3677570  )
        38           Si  tau(  38) = (   0.4646970   0.8111770   0.8332610  )
        39           Si  tau(  39) = (   0.1057500   0.5574450   0.0794384  )
        40           Si  tau(  40) = (   0.1357100   0.1151000   0.5691940  )
        41           Si  tau(  41) = (   0.0025165   0.5269490   0.3013260  )
        42           Si  tau(  42) = (   0.1982070   0.2913140   0.8765610  )
        43           Si  tau(  43) = (   0.6474850   0.4798090   0.6545760  )
        44           Si  tau(  44) = (   0.5602600   0.0178458   0.4625210  )
        45           Si  tau(  45) = (   0.6977090   0.9684060   0.0985940  )
        46           Si  tau(  46) = (   0.4581230   0.3138680   0.9073730  )
        47           Si  tau(  47) = (   0.7574530   0.5715660   0.9708350  )
        48           Si  tau(  48) = (   0.4102380   0.1141770   0.0399052  )
        49           Si  tau(  49) = (   0.4677390   0.4870290   0.0749686  )
        50           Si  tau(  50) = (   0.2111820   0.0062835   0.0963633  )
        51           Si  tau(  51) = (   0.8785460   0.4903440   0.7819470  )
        52           Si  tau(  52) = (   0.6216340   0.2131850   0.1203770  )
        53           Si  tau(  53) = (   0.3027080   0.6106880   0.1222040  )
        54           Si  tau(  54) = (   0.8066950   0.1879540   0.5525350  )
        55           Si  tau(  55) = (   0.6277940   0.1178640   0.6986260  )
        56           Si  tau(  56) = (   0.5997140   0.4390600   0.2549520  )
        57           Si  tau(  57) = (   0.8468370   0.7385770   0.3627400  )
        58           Si  tau(  58) = (   0.1204940   0.3751330   0.5345370  )
        59           Si  tau(  59) = (   0.1749770   0.8275110   0.7957270  )
        60           Si  tau(  60) = (   0.9306240   0.2970920   0.8779840  )
        61           Si  tau(  61) = (   0.4683050   0.9622220   0.2492170  )
        62           Si  tau(  62) = (   0.8230340   0.7624300   0.1237050  )
        63           Si  tau(  63) = (   0.7695100   0.9764060   0.4509220  )
        64           Si  tau(  64) = (   0.0958926   0.5383690   0.8243890  )

     number of k points=     1  Fermi-Dirac smearing, width (Ry)=  0.0100
                       cart. coord. in units 2pi/alat
        k(    1) = (   0.0000000   0.0000000   0.0000000), wk =   2.0000000

     Dense  grid:    89463 G-vectors     FFT dimensions: (  72,  72,  72)

     Estimated max dynamical RAM per process >     143.81 MB

     Estimated total dynamical RAM >     553.39 MB

     Initial potential from superposition of free atoms

     starting charge     255.9608, renormalised to     256.0000
     Starting wfcs are  256 randomized atomic wfcs

     total cpu time spent up to now is        5.2 secs

     Self-consistent Calculation

     iteration #  1     ecut=    30.00 Ry     beta= 0.50
     Davidson diagonalization with overlap
     ethr =  1.00E-02,  avg # of iterations =  3.0

     Threshold (ethr) on eigenvalues was too large:
     Diagonalizing with lowered threshold

     Davidson diagonalization with overlap
     ethr =  3.82E-04,  avg # of iterations =  5.0

     total cpu time spent up to now is        5.5 secs

     total energy              =    -501.21324382 Ry
     estimated scf accuracy    <       1.16045927 Ry

     iteration #  2     ecut=    30.00 Ry     beta= 0.50
     Davidson diagonalization with overlap
     ethr =  4.53E-04,  avg # of iterations =  5.0

     total cpu time spent up to now is        5.6 secs

     total energy              =    -500.87824038 Ry
     estimated scf accuracy    <       3.26758883 Ry

     iteration #  3     ecut=    30.00 Ry     beta= 0.50
     Davidson diagonalization with overlap
     ethr =  4.53E-04,  avg # of iterations =  3.0

     total cpu time spent up to now is        5.7 secs

     total energy              =    -501.17597536 Ry
     estimated scf accuracy    <       2.91303055 Ry

     iteration #  4     ecut=    30.00 Ry     beta= 0.50
     Davidson diagonalization with overlap
     ethr =  4.53E-04,  avg # of iterations =  2.0

     total cpu time spent up to now is        5.8 secs

     total energy              =    -501.34048777 Ry
     estimated scf accuracy    <       0.70445910 Ry

     iteration #  5     ecut=    30.00 Ry     beta= 0.50
     Davidson diagonalization with overlap
     ethr =  2.75E-04,  avg # of iterations =  2.0

     total cpu time spent up to now is        5.9 secs

     total energy              =    -501.37879713 Ry
     estimated scf accuracy    <       0.51273497 Ry

     iteration #  6     ecut=    30.00 Ry     beta= 0.50
     Davidson diagonalization with overlap
     ethr =  2.00E-04,  avg # of iterations =  2.0

     total cpu time spent up to now is        6.0 secs

     total energy              =    -501.42497221 Ry
     estimated scf accuracy    <       0.11426418 Ry

     iteration #  7     ecut=    30.00 Ry     beta= 0.50
     Davidson diagonalization with overlap
     ethr =  4.46E-05,  avg # of iterations =  2.0

     total cpu time spent up to now is        6.1 secs

     total energy              =    -501.43540709 Ry
     estimated scf accuracy    <       0.02020763 Ry

     iteration #  8     ecut=    30.00 Ry     beta= 0.50
     Davidson diagonalization with overlap
     ethr =  7.89E-06,  avg # of iterations = 16.0

     total cpu time spent up to now is        6.3 secs

     total energy              =    -501.43735305 Ry
     estimated scf accuracy    <       0.02130800 Ry

     iteration #  9     ecut=    30.00 Ry     beta= 0.50
     Davidson diagonalization with overlap
     ethr =  7.89E-06,  avg # of iterations =  2.0

     total cpu time spent up to now is        6.4 secs

     total energy              =    -501.43913670 Ry
     estimated scf accuracy    <       0.00255306 Ry

     iteration # 10     ecut=    30.00 Ry     beta= 0.50
     Davidson diagonalization with overlap
     ethr =  9.97E-07,  avg # of iterations =  3.0

     total cpu time spent up to now is        6.5 secs

     total energy              =    -501.43947835 Ry
     estimated scf accuracy    <       0.00090736 Ry

     iteration # 11     ecut=    30.00 Ry     beta= 0.50
     Davidson diagonalization with overlap
     ethr =  3.54E-07,  avg # of iterations =  4.0

     total cpu time spent up to now is        6.6 secs

     total energy              =    -501.43954495 Ry
     estimated scf accuracy    <       0.00077782 Ry

     iteration # 12     ecut=    30.00 Ry     beta= 0.50
     Davidson diagonalization with overlap
     ethr =  3.04E-07,  avg # of iterations =  2.0

     total cpu time spent up to now is        6.7 secs

     total energy              =    -501.43960924 Ry
     estimated scf accuracy    <       0.00023497 Ry

     iteration # 13     ecut=    30.00 Ry     beta= 0.50
     Davidson diagonalization with overlap
     ethr =  9.18E-08,  avg # of iterations =  2.0

     total cpu time spent up to now is        6.8 secs

     total energy              =    -501.43962831 Ry
     estimated scf accuracy    <       0.00013969 Ry

     iteration # 14     ecut=    30.00 Ry     beta= 0.50
     Davidson diagonalization with overlap
     ethr =  5.46E-08,  avg # of iterations =  2.0

     total cpu time spent up to now is        6.9 secs

     total energy              =    -501.43963801 Ry
     estimated scf accuracy    <       0.00005205 Ry

     iteration # 15     ecut=    30.00 Ry     beta= 0.50
     Davidson diagonalization with overlap
     ethr =  2.03E-08,  avg # of iterations =  2.0

     total cpu time spent up to now is        7.0 secs

     total energy              =    -501.43964197 Ry
     estimated scf accuracy    <       0.00003148 Ry

     iteration # 16     ecut=    30.00 Ry     beta= 0.50
     Davidson diagonalization with overlap
     ethr =  1.23E-08,  avg # of iterations =  2.0

     total cpu time spent up to now is        7.1 secs

     total energy              =    -501.43964484 Ry
     estimated scf accuracy    <       0.00000401 Ry

     iteration # 17     ecut=    30.00 Ry     beta= 0.50
     Davidson diagonalization with overlap
     ethr =  1.56E-09,  avg # of iterations =  2.0

     total cpu time spent up to now is        7.2 secs

     total energy              =    -501.43964512 Ry
     estimated scf accuracy    <       0.00000242 Ry

     iteration # 18     ecut=    30.00 Ry     beta= 0.50
     Davidson diagonalization with overlap
     ethr =  9.46E-10,  avg # of iterations =  3.0

     total cpu time spent up to now is        7.3 secs

     total energy              =    -501.43964537 Ry
     estimated scf accuracy    <       0.00000221 Ry

     iteration # 19     ecut=    30.00 Ry     beta= 0.50
     Davidson diagonalization with overlap
     ethr =  8.62E-10,  avg # of iterations =  2.0

     total cpu time spent up to now is        7.4 secs

     End of self-consistent calculation

          k = 0.0000 0.0000 0.0000 ( 11168 PWs)   bands (ev):

    -5.2528  -4.2661  -4.2082  -4.1593  -4.0206  -3.9613  -3.8304  -3.4278
    -3.2021  -3.0671  -3.0405  -2.9721  -2.8875  -2.8105  -2.7843  -2.6536
    -2.4894  -2.4155  -2.3683  -2.2236  -1.8215  -1.7838  -1.6462  -1.6260
    -1.2908  -1.2722  -1.1656  -0.8950  -0.7347  -0.6129  -0.4745  -0.2691
    -0.1803  -0.0051   0.0983   0.1638   0.2523   0.3025   0.4141   0.4464
     0.5558   0.6294   0.6941   0.8123   0.8774   0.9147   1.0179   1.0684
     1.1184   1.1600   1.3334   1.3691   1.4612   1.6042   1.6998   1.8018
     1.8113   1.9231   2.0654   2.1365   2.1875   2.3260   2.3697   2.6140
     2.6517   2.7925   2.8311   2.8924   2.9276   3.0039   3.0686   3.1468
     3.2596   3.2747   3.3771   3.4291   3.4960   3.5534   3.5772   3.7435
     3.9457   4.1544   4.2860   4.3655   4.4615   4.6411   4.6700   4.8079
     4.8481   4.9273   5.0208   5.0433   5.1415   5.2107   5.2727   5.3777
     5.4157   5.4842   5.5541   5.5701   5.6222   5.7688   5.8365   5.8697
     5.9190   5.9866   6.0194   6.1081   6.1681   6.2067   6.2412   6.2591
     6.3275   6.3389   6.4755   6.5648   6.5763   6.6203   6.7096   6.7300
     6.7786   6.7971   6.8708   6.9507   6.9772   7.0502   7.1740   7.2238
     7.3047   7.3192   7.4139   7.4384   7.4854   7.5917   7.6056   7.6543
     7.7809   7.8238   7.9018   8.0009   8.0474   8.1205   8.1435   8.2528
     8.2607   8.4091   8.4175   8.4624   8.4979   8.5908   8.6389   8.7084
     8.7844   8.8739

     the Fermi energy is     7.2382 ev

!    total energy              =    -501.43964545 Ry
     estimated scf accuracy    <       0.00000017 Ry
     smearing contrib. (-TS)   =      -0.14454153 Ry
     internal energy E=F+TS    =    -501.29510392 Ry

     The total energy is F=E-TS. E is the sum of the following terms:
     one-electron contribution =     197.15731371 Ry
     hartree contribution      =      20.75765854 Ry
     xc contribution           =    -150.87192193 Ry
     ewald contribution        =    -568.33815424 Ry

     convergence has been achieved in  19 iterations

     Forces acting on atoms (cartesian axes, Ry/au):

     atom    1 type  1   force =     0.01877740   -0.06640600    0.01634752
     atom    2 type  1   force =    -0.00928078    0.01225930    0.01040783
     atom    3 type  1   force =     0.03821660    0.04026697    0.00985970
     atom    4 type  1   force =     0.01313730    0.00601179   -0.02018585
     atom    5 type  1   force =     0.01193297    0.01366513    0.00728032
     atom    6 type  1   force =     0.02298035   -0.06582566   -0.05337488
     atom    7 type  1   force =     0.00007542   -0.03483142   -0.03295242
     atom    8 type  1   force =     0.01240781    0.02359239   -0.00364450
     atom    9 type  1   force =     0.03890595    0.05400043    0.02869006
     atom   10 type  1   force =     0.00333447    0.00370402    0.02223751
     atom   11 type  1   force =    -0.01439913    0.00636360    0.02229175
     atom   12 type  1   force =    -0.02281067    0.03839845    0.01498554
     atom   13 type  1   force =    -0.00187093   -0.00588103    0.01931819
     atom   14 type  1   force =    -0.01098183   -0.00881852   -0.01283578
     atom   15 type  1   force =    -0.03589110    0.04163945   -0.02939867
     atom   16 type  1   force =    -0.00941808   -0.00309576   -0.01105709
     atom   17 type  1   force =    -0.01160199    0.01736230    0.00966716
     atom   18 type  1   force =     0.00971761   -0.00970476    0.03391398
     atom   19 type  1   force =    -0.00541234   -0.00089444   -0.00448413
     atom   20 type  1   force =     0.01755528    0.04433555    0.01169747
     atom   21 type  1   force =     0.02643879   -0.04365528   -0.01812905
     atom   22 type  1   force =    -0.01588808    0.03443180   -0.04403948
     atom   23 type  1   force =     0.01951082    0.01760384    0.01453255
     atom   24 type  1   force =     0.01964240    0.00487713   -0.03394281
     atom   25 type  1   force =     0.00572341   -0.00517333    0.02150549
     atom   26 type  1   force =     0.02096372    0.01669848    0.03808556
     atom   27 type  1   force =    -0.01177195    0.00164231    0.03171936
     atom   28 type  1   force =     0.03176516    0.03408205   -0.01312746
     atom   29 type  1   force =    -0.00290936    0.02534012   -0.00940717
     atom   30 type  1   force =     0.03612645    0.01250660    0.01530423
     atom   31 type  1   force =    -0.02407577   -0.02770096    0.01824394
     atom   32 type  1   force =     0.02800742    0.01805913    0.02962619
     atom   33 type  1   force =    -0.04356711   -0.02203207    0.02325321
     atom   34 type  1   force =    -0.04603382    0.02989628   -0.01088085
     atom   35 type  1   force =     0.02359193   -0.05045014    0.00523130
     atom   36 type  1   force =     0.02116823   -0.00965668   -0.00930548
     atom   37 type  1   force =    -0.01104459   -0.02052707   -0.02115163
     atom   38 type  1   force =    -0.05524002   -0.02505212    0.00153189
     atom   39 type  1   force =    -0.04223727   -0.08011734   -0.00126825
     atom   40 type  1   force =    -0.00965951    0.01190409    0.03958537
     atom   41 type  1   force =    -0.02541011    0.00249311   -0.01581083
     atom   42 type  1   force =     0.01582945    0.01768352   -0.01433657
     atom   43 type  1   force =    -0.01729138    0.01069622    0.04130795
     atom   44 type  1   force =    -0.06518039    0.00112816   -0.00776757
     atom   45 type  1   force =    -0.03963573   -0.03727883   -0.03529937
     atom   46 type  1   force =    -0.00852892    0.02733288    0.03096579
     atom   47 type  1   force =    -0.02476980    0.04662771   -0.03597041
     atom   48 type  1   force =     0.03319881    0.00633613    0.00488051
     atom   49 type  1   force =     0.03510156   -0.04855658   -0.04951545
     atom   50 type  1   force =     0.00252501   -0.03186003   -0.02175512
     atom   51 type  1   force =    -0.02056025    0.01038233   -0.00039607
     atom   52 type  1   force =     0.00631826   -0.00972048    0.00496722
     atom   53 type  1   force =     0.02858983    0.04244885    0.06170335
     atom   54 type  1   force =    -0.01201891   -0.01463409   -0.02613406
     atom   55 type  1   force =     0.01048517   -0.00622852    0.01105902
     atom   56 type  1   force =     0.01666776    0.00268159    0.01387780
     atom   57 type  1   force =    -0.00589253   -0.01714385   -0.00505994
     atom   58 type  1   force =     0.00161752   -0.02292552   -0.02981523
     atom   59 type  1   force =     0.02535821    0.00153800   -0.01278245
     atom   60 type  1   force =    -0.00229164   -0.03090992   -0.00351901
     atom   61 type  1   force =    -0.01464472   -0.00560001   -0.01135057
     atom   62 type  1   force =    -0.03283143    0.02151488   -0.01206477
     atom   63 type  1   force =     0.03902270    0.00808617   -0.00922436
     atom   64 type  1   force =     0.01845639   -0.00291034    0.00590950

     Total force =     0.356692     Total SCF correction =     0.000763


     Computing stress (Cartesian axis) and pressure

          total   stress  (Ry/bohr**3)                   (kbar)     P=      -32.28
  -0.00027119  -0.00002188  -0.00000196          -39.89       -3.22       -0.29
  -0.00002188  -0.00013986   0.00001268           -3.22      -20.57        1.87
  -0.00000196   0.00001268  -0.00024723           -0.29        1.87      -36.37

 
     init_run     :      1.08s CPU      5.17s WALL (       1 calls)
     electrons    :      1.98s CPU      2.15s WALL (       1 calls)
     forces       :      0.04s CPU      0.04s WALL (       1 calls)
     stress       :      0.15s CPU      0.15s WALL (       1 calls)

     Called by init_run:
     wfcinit      :      0.55s CPU      4.44s WALL (       1 calls)
                                        4.44s GPU  (       1 calls)
     potinit      :      0.04s CPU      0.15s WALL (       1 calls)
     hinit0       :      0.46s CPU      0.50s WALL (       1 calls)

     Called by electrons:
     c_bands      :      1.16s CPU      1.25s WALL (      20 calls)
     sum_band     :      0.40s CPU      0.44s WALL (      20 calls)
     v_of_rho     :      0.19s CPU      0.30s WALL (      20 calls)
     mix_rho      :      0.19s CPU      0.21s WALL (      20 calls)

     Called by c_bands:
     init_us_2    :      0.07s CPU      0.08s WALL (      41 calls)
     init_us_2:gp :      0.07s CPU      0.07s WALL (      41 calls)
     regterg      :      0.99s CPU      1.07s WALL (      20 calls)

     Called by *egterg:
     rdiaghg      :      0.41s CPU      1.17s WALL (      85 calls)
                                        1.15s GPU  (      85 calls)
     h_psi        :      0.95s CPU      4.14s WALL (      87 calls)
                                        4.14s GPU  (      87 calls)
     g_psi        :      0.00s CPU      0.00s WALL (      66 calls)
                                        0.00s GPU  (      66 calls)

     Called by h_psi:
     h_psi:calbec :      0.52s CPU      3.62s WALL (      87 calls)
                                        3.62s GPU  (      87 calls)
     vloc_psi     :      0.38s CPU      0.46s WALL (      87 calls)
                                        0.46s GPU  (      87 calls)
     add_vuspsi   :      0.03s CPU      0.05s WALL (      87 calls)
                                        0.05s GPU  (      87 calls)

     General routines
     calbec       :      0.53s CPU      3.62s WALL (      92 calls)
     fft          :      0.62s CPU      0.77s WALL (     167 calls)
                                        0.14s GPU  (     106 calls)
     ffts         :      0.05s CPU      0.05s WALL (      20 calls)
     fftw         :      0.47s CPU      0.62s WALL (    2094 calls)
                                        0.54s GPU  (    2094 calls)
 
     Parallel routines
 
     PWSCF        :      3.29s CPU      7.59s WALL

 
   This run was terminated on:  10:45: 4  10May2023            

=------------------------------------------------------------------------------=
   JOB DONE.
=------------------------------------------------------------------------------=
