An instance of this daemon is already running

     Program PWSCF v.7.1 starts on 10May2023 at 10:45:55 

     This program is part of the open-source Quantum ESPRESSO suite
     for quantum simulation of materials; please cite
         "P. Giannozzi et al., J. Phys.:Condens. Matter 21 395502 (2009);
         "P. Giannozzi et al., J. Phys.:Condens. Matter 29 465901 (2017);
         "P. Giannozzi et al., J. Chem. Phys. 152 154105 (2020);
          URL http://www.quantum-espresso.org", 
     in publications or presentations arising from this work. More details at
     http://www.quantum-espresso.org/quote

     Parallel version (MPI & OpenMP), running on       4 processor cores
     Number of MPI processes:                 4
     Threads/MPI process:                     1

     MPI processes distributed on     1 nodes
     753550 MiB available memory on the printing compute node when the environment starts
 
     Reading input from pw-si-52.in
Warning: card &CELL ignored
Warning: card / ignored

     Current dimensions of program PWSCF are:
     Max number of different atomic species (ntypx) = 10
     Max number of k-points (npk) =  40000
     Max angular momentum in pseudopotentials (lmaxx) =  4

     IMPORTANT: XC functional enforced from input :
     Exchange-correlation= PBE
                           (   1   4   3   4   0   0   0)
     Any further DFT definition will be discarded
     Please, verify this is what you really want


     gamma-point specific algorithms are used
 
     K-points division:     npool     =       2
     R & G space division:  proc/nbgrp/npool/nimage =       2
     Subspace diagonalization in iterative solution of the eigenvalue problem:
     a serial algorithm will be used

     Message from routine divide_et_impera:
     suboptimal parallelization: some nodes have no k-points
 
     Parallelization info
     --------------------
     sticks:   dense  smooth     PW     G-vecs:    dense   smooth      PW
     Min        1926    1926    504                89789    89789   12201
     Max        1927    1927    505                89790    89790   12204
     Sum        3853    3853   1009               179579   179579   24405
 
     Using Slab Decomposition
 


     bravais-lattice index     =            0
     lattice parameter (alat)  =      20.0828  a.u.
     unit-cell volume          =    8099.7699 (a.u.)^3
     number of atoms/cell      =           64
     number of atomic types    =            1
     number of electrons       =       256.00
     number of Kohn-Sham states=          154
     kinetic-energy cutoff     =      30.0000  Ry
     charge density cutoff     =     120.0000  Ry
     scf convergence threshold =      1.0E-06
     mixing beta               =       0.5000
     number of iterations used =            8  plain     mixing
     Exchange-correlation= PBE
                           (   1   4   3   4   0   0   0)

     GPU acceleration is ACTIVE.
     GPU-aware MPI enabled

     Message from routine print_cuda_info:
     High GPU oversubscription detected. Are you sure this is what you want?

     celldm(1)=  20.082798  celldm(2)=   0.000000  celldm(3)=   0.000000
     celldm(4)=   0.000000  celldm(5)=   0.000000  celldm(6)=   0.000000

     crystal axes: (cart. coord. in units of alat)
               a(1) = (   1.000000   0.000000   0.000000 )  
               a(2) = (   0.000000   1.000000   0.000000 )  
               a(3) = (   0.000000   0.000000   1.000000 )  

     reciprocal axes: (cart. coord. in units 2 pi/alat)
               b(1) = (  1.000000  0.000000  0.000000 )  
               b(2) = (  0.000000  1.000000  0.000000 )  
               b(3) = (  0.000000  0.000000  1.000000 )  


     PseudoPot. # 1 for Si read from file:
     /home/ppiaggi/pseudos/Si_ONCV_PBE_sr.upf
     MD5 check sum: 8553c464762ac42b85b1eed164b4d029
     Pseudo is Norm-conserving, Zval =  4.0
     Generated using ONCVPSP code by D. R. Hamann
     Using radial grid of 1510 points,  4 beta functions with: 
                l(1) =   0
                l(2) =   0
                l(3) =   1
                l(4) =   1

     atomic species   valence    mass     pseudopotential
        Si             4.00    28.08500     Si( 1.00)

     No symmetry found



   Cartesian axes

     site n.     atom                  positions (alat units)
         1           Si  tau(   1) = (   0.5917370   0.7576320   0.7783930  )
         2           Si  tau(   2) = (   0.6910090   0.0926604   0.6060250  )
         3           Si  tau(   3) = (   0.5234110   0.2503940   0.6266210  )
         4           Si  tau(   4) = (   0.8728680   0.9652820   0.4741490  )
         5           Si  tau(   5) = (   0.2643710   0.3660750   0.8657540  )
         6           Si  tau(   6) = (   0.2251970   0.4902750   0.6830860  )
         7           Si  tau(   7) = (   0.7725840   0.8399690   0.0055171  )
         8           Si  tau(   8) = (   0.0991895   0.6893350   0.4353010  )
         9           Si  tau(   9) = (   0.3305820   0.7881600   0.8184500  )
        10           Si  tau(  10) = (   0.7513300   0.3336830   0.4927260  )
        11           Si  tau(  11) = (   0.4077680   0.9954070   0.6137680  )
        12           Si  tau(  12) = (   0.2388580   0.0443625   0.2951470  )
        13           Si  tau(  13) = (   0.7547590   0.9840130   0.2084630  )
        14           Si  tau(  14) = (   0.2472650   0.8015990   0.5776760  )
        15           Si  tau(  15) = (   0.7770790   0.5636150   0.4418310  )
        16           Si  tau(  16) = (   0.8060980   0.8464250   0.7337340  )
        17           Si  tau(  17) = (   0.0545807   0.2528060   0.7621740  )
        18           Si  tau(  18) = (   0.4344340   0.8555480   0.1176350  )
        19           Si  tau(  19) = (   0.5837210   0.4527150   0.7571620  )
        20           Si  tau(  20) = (   0.7270700   0.8017810   0.3325260  )
        21           Si  tau(  21) = (   0.7172400   0.0468844   0.8410470  )
        22           Si  tau(  22) = (   0.8021760   0.5845350   0.7866040  )
        23           Si  tau(  23) = (   0.1907800   0.9631300   0.9796620  )
        24           Si  tau(  24) = (   0.9696640   0.7686480   0.1958550  )
        25           Si  tau(  25) = (   0.3896190   0.7638290   0.4019960  )
        26           Si  tau(  26) = (   0.8948920   0.7253620   0.5277740  )
        27           Si  tau(  27) = (   0.2534010   0.0668258   0.7709270  )
        28           Si  tau(  28) = (   0.7001310   0.3485370   0.9218520  )
        29           Si  tau(  29) = (   0.8066970   0.3120490   0.7054860  )
        30           Si  tau(  30) = (   0.3924330   0.2199400   0.8140540  )
        31           Si  tau(  31) = (   0.0004272   0.0998996   0.3204420  )
        32           Si  tau(  32) = (   0.5971410   0.8954490   0.5120210  )
        33           Si  tau(  33) = (   0.4385500   0.2687350   0.1144990  )
        34           Si  tau(  34) = (   0.3277140   0.3901900   0.5101640  )
        35           Si  tau(  35) = (   0.4954780   0.5101890   0.0729628  )
        36           Si  tau(  36) = (   0.9900900   0.9739820   0.0604333  )
        37           Si  tau(  37) = (   0.1391560   0.5176530   0.0058473  )
        38           Si  tau(  38) = (   0.6082970   0.7223850   0.1197540  )
        39           Si  tau(  39) = (   0.9823220   0.5080810   0.6545860  )
        40           Si  tau(  40) = (   0.1842820   0.8263480   0.2805620  )
        41           Si  tau(  41) = (   0.1092810   0.3481790   0.1662290  )
        42           Si  tau(  42) = (   0.7174640   0.1768170   0.3357080  )
        43           Si  tau(  43) = (   0.5228470   0.4737640   0.3969660  )
        44           Si  tau(  44) = (   0.5248450   0.1567920   0.9614650  )
        45           Si  tau(  45) = (   0.8949860   0.1688490   0.9352970  )
        46           Si  tau(  46) = (   0.0974663   0.9533890   0.5973990  )
        47           Si  tau(  47) = (   0.5073080   0.9943090   0.2966530  )
        48           Si  tau(  48) = (   0.7455780   0.4727120   0.1219510  )
        49           Si  tau(  49) = (   0.5952220   0.6540610   0.5780070  )
        50           Si  tau(  50) = (   0.5165910   0.2532120   0.3276340  )
        51           Si  tau(  51) = (   0.4975400   0.9264000   0.9044480  )
        52           Si  tau(  52) = (   0.9202690   0.5455730   0.2681680  )
        53           Si  tau(  53) = (   0.1074210   0.6837030   0.8129770  )
        54           Si  tau(  54) = (   0.1290690   0.1712240   0.5470960  )
        55           Si  tau(  55) = (   0.4082710   0.5604930   0.8730960  )
        56           Si  tau(  56) = (   0.1468300   0.4918450   0.3554030  )
        57           Si  tau(  57) = (   0.3337510   0.1548690   0.4663400  )
        58           Si  tau(  58) = (   0.8810530   0.2504310   0.1647670  )
        59           Si  tau(  59) = (   0.9853390   0.3348660   0.4468590  )
        60           Si  tau(  60) = (   0.2382580   0.1622710   0.0968779  )
        61           Si  tau(  61) = (   0.9187660   0.6265030   0.9800940  )
        62           Si  tau(  62) = (   0.0030907   0.9129840   0.8083380  )
        63           Si  tau(  63) = (   0.3828150   0.5733120   0.2680730  )
        64           Si  tau(  64) = (   0.2137640   0.7279690   0.0853829  )

     number of k points=     1  Fermi-Dirac smearing, width (Ry)=  0.0100
                       cart. coord. in units 2pi/alat
        k(    1) = (   0.0000000   0.0000000   0.0000000), wk =   2.0000000

     Dense  grid:    89790 G-vectors     FFT dimensions: (  72,  72,  72)

     Estimated max dynamical RAM per process >     144.42 MB

     Estimated total dynamical RAM >     555.77 MB

     Initial potential from superposition of free atoms

     starting charge     255.9608, renormalised to     256.0000
     Starting wfcs are  256 randomized atomic wfcs

     total cpu time spent up to now is        5.0 secs

     Self-consistent Calculation

     iteration #  1     ecut=    30.00 Ry     beta= 0.50
     Davidson diagonalization with overlap
     ethr =  1.00E-02,  avg # of iterations =  3.0

     Threshold (ethr) on eigenvalues was too large:
     Diagonalizing with lowered threshold

     Davidson diagonalization with overlap
     ethr =  3.73E-04,  avg # of iterations =  4.0

     total cpu time spent up to now is        5.3 secs

     total energy              =    -501.23332791 Ry
     estimated scf accuracy    <       1.16934234 Ry

     iteration #  2     ecut=    30.00 Ry     beta= 0.50
     Davidson diagonalization with overlap
     ethr =  4.57E-04,  avg # of iterations =  3.0

     total cpu time spent up to now is        5.4 secs

     total energy              =    -500.83738685 Ry
     estimated scf accuracy    <       4.33661085 Ry

     iteration #  3     ecut=    30.00 Ry     beta= 0.50
     Davidson diagonalization with overlap
     ethr =  4.57E-04,  avg # of iterations =  4.0

     total cpu time spent up to now is        5.5 secs

     total energy              =    -501.23988618 Ry
     estimated scf accuracy    <       2.48054343 Ry

     iteration #  4     ecut=    30.00 Ry     beta= 0.50
     Davidson diagonalization with overlap
     ethr =  4.57E-04,  avg # of iterations =  2.0

     total cpu time spent up to now is        5.6 secs

     total energy              =    -501.41163931 Ry
     estimated scf accuracy    <       0.57310463 Ry

     iteration #  5     ecut=    30.00 Ry     beta= 0.50
     Davidson diagonalization with overlap
     ethr =  2.24E-04,  avg # of iterations =  2.0

     total cpu time spent up to now is        5.7 secs

     total energy              =    -501.44226554 Ry
     estimated scf accuracy    <       0.27055553 Ry

     iteration #  6     ecut=    30.00 Ry     beta= 0.50
     Davidson diagonalization with overlap
     ethr =  1.06E-04,  avg # of iterations =  2.0

     total cpu time spent up to now is        5.8 secs

     total energy              =    -501.46991944 Ry
     estimated scf accuracy    <       0.16819767 Ry

     iteration #  7     ecut=    30.00 Ry     beta= 0.50
     Davidson diagonalization with overlap
     ethr =  6.57E-05,  avg # of iterations =  1.0

     total cpu time spent up to now is        5.9 secs

     total energy              =    -501.48243845 Ry
     estimated scf accuracy    <       0.01170874 Ry

     iteration #  8     ecut=    30.00 Ry     beta= 0.50
     Davidson diagonalization with overlap
     c_bands:  1 eigenvalues not converged
     ethr =  4.57E-06,  avg # of iterations = 20.0

     total cpu time spent up to now is        6.1 secs

     total energy              =    -501.48330684 Ry
     estimated scf accuracy    <       0.02979296 Ry

     iteration #  9     ecut=    30.00 Ry     beta= 0.50
     Davidson diagonalization with overlap
     ethr =  4.57E-06,  avg # of iterations = 20.0

     total cpu time spent up to now is        6.3 secs

     total energy              =    -501.48564701 Ry
     estimated scf accuracy    <       0.00189952 Ry

     iteration # 10     ecut=    30.00 Ry     beta= 0.50
     Davidson diagonalization with overlap
     ethr =  7.42E-07,  avg # of iterations =  3.0

     total cpu time spent up to now is        6.4 secs

     total energy              =    -501.48575550 Ry
     estimated scf accuracy    <       0.00153715 Ry

     iteration # 11     ecut=    30.00 Ry     beta= 0.50
     Davidson diagonalization with overlap
     ethr =  6.00E-07,  avg # of iterations =  2.0

     total cpu time spent up to now is        6.5 secs

     total energy              =    -501.48585870 Ry
     estimated scf accuracy    <       0.00054764 Ry

     iteration # 12     ecut=    30.00 Ry     beta= 0.50
     Davidson diagonalization with overlap
     ethr =  2.14E-07,  avg # of iterations =  2.0

     total cpu time spent up to now is        6.6 secs

     total energy              =    -501.48591537 Ry
     estimated scf accuracy    <       0.00029526 Ry

     iteration # 13     ecut=    30.00 Ry     beta= 0.50
     Davidson diagonalization with overlap
     ethr =  1.15E-07,  avg # of iterations =  2.0

     total cpu time spent up to now is        6.7 secs

     total energy              =    -501.48593592 Ry
     estimated scf accuracy    <       0.00013260 Ry

     iteration # 14     ecut=    30.00 Ry     beta= 0.50
     Davidson diagonalization with overlap
     ethr =  5.18E-08,  avg # of iterations =  2.0

     total cpu time spent up to now is        6.8 secs

     total energy              =    -501.48594692 Ry
     estimated scf accuracy    <       0.00001936 Ry

     iteration # 15     ecut=    30.00 Ry     beta= 0.50
     Davidson diagonalization with overlap
     ethr =  7.56E-09,  avg # of iterations =  3.0

     total cpu time spent up to now is        6.9 secs

     total energy              =    -501.48594764 Ry
     estimated scf accuracy    <       0.00001511 Ry

     iteration # 16     ecut=    30.00 Ry     beta= 0.50
     Davidson diagonalization with overlap
     ethr =  5.90E-09,  avg # of iterations =  3.0

     total cpu time spent up to now is        7.0 secs

     total energy              =    -501.48594908 Ry
     estimated scf accuracy    <       0.00002085 Ry

     iteration # 17     ecut=    30.00 Ry     beta= 0.50
     Davidson diagonalization with overlap
     ethr =  5.90E-09,  avg # of iterations =  2.0

     total cpu time spent up to now is        7.0 secs

     End of self-consistent calculation

          k = 0.0000 0.0000 0.0000 ( 11288 PWs)   bands (ev):

    -5.3306  -4.4526  -4.3009  -4.1914  -4.0377  -3.9487  -3.7794  -3.3981
    -3.3109  -3.0954  -3.0201  -2.9701  -2.9062  -2.8915  -2.8423  -2.6728
    -2.6094  -2.4628  -2.3808  -2.1047  -1.9060  -1.8606  -1.7285  -1.6817
    -1.5348  -1.4385  -1.2739  -0.9028  -0.6091  -0.5420  -0.5040  -0.4864
    -0.2013  -0.0436   0.0033   0.0838   0.1627   0.3151   0.3357   0.3848
     0.4135   0.5398   0.5513   0.6512   0.7670   0.8640   0.9413   0.9851
     1.0252   1.0821   1.2448   1.3334   1.4252   1.4735   1.5315   1.6326
     1.7995   1.8630   1.9893   2.0932   2.1795   2.3132   2.5135   2.5388
     2.5572   2.6301   2.7227   2.8264   2.8694   2.9272   2.9676   3.0662
     3.1200   3.1666   3.3552   3.3936   3.4519   3.5679   3.5941   3.6891
     3.8862   4.2245   4.4000   4.4493   4.5092   4.5845   4.6400   4.7000
     4.7989   4.8707   5.0202   5.0488   5.1226   5.2091   5.3232   5.3984
     5.4229   5.4335   5.4717   5.5865   5.5968   5.6478   5.6854   5.7233
     5.7774   5.8220   5.8803   5.9738   6.0259   6.0561   6.1265   6.2038
     6.2119   6.2706   6.3594   6.4424   6.4820   6.5566   6.6223   6.6595
     6.6959   6.7175   6.8480   6.8840   6.8930   7.0228   7.0784   7.1104
     7.1231   7.2155   7.2724   7.3151   7.3484   7.4349   7.5269   7.6105
     7.6428   7.7231   7.7720   7.8381   7.8615   8.0016   8.0917   8.1717
     8.2230   8.2819   8.3435   8.4188   8.4902   8.5576   8.6076   8.6422
     8.7164   8.7893

     the Fermi energy is     7.1321 ev

!    total energy              =    -501.48594975 Ry
     estimated scf accuracy    <       0.00000098 Ry
     smearing contrib. (-TS)   =      -0.15674230 Ry
     internal energy E=F+TS    =    -501.32920745 Ry

     The total energy is F=E-TS. E is the sum of the following terms:
     one-electron contribution =     191.85214177 Ry
     hartree contribution      =      22.81153761 Ry
     xc contribution           =    -150.83715445 Ry
     ewald contribution        =    -565.15573238 Ry

     convergence has been achieved in  17 iterations

     Forces acting on atoms (cartesian axes, Ry/au):

     atom    1 type  1   force =     0.02447764   -0.00935194    0.00793477
     atom    2 type  1   force =     0.01213013   -0.00621102    0.00440815
     atom    3 type  1   force =    -0.02639654    0.02056753    0.00135592
     atom    4 type  1   force =     0.01112204    0.00816938   -0.00449813
     atom    5 type  1   force =    -0.08806229    0.08607848    0.02514104
     atom    6 type  1   force =    -0.02698346    0.00557335    0.01888048
     atom    7 type  1   force =     0.02042365    0.01023191   -0.00429998
     atom    8 type  1   force =    -0.01839549    0.00683204    0.01534553
     atom    9 type  1   force =    -0.01010687   -0.03909598   -0.01214280
     atom   10 type  1   force =     0.02091519    0.03122402    0.00507338
     atom   11 type  1   force =    -0.00558357    0.00370953    0.00524793
     atom   12 type  1   force =    -0.01590706    0.00900679   -0.02146440
     atom   13 type  1   force =    -0.01044819    0.00947296   -0.01140165
     atom   14 type  1   force =     0.04381568   -0.02879929    0.02660598
     atom   15 type  1   force =    -0.05799562   -0.01756639    0.00940549
     atom   16 type  1   force =    -0.00911209   -0.03144536   -0.01870235
     atom   17 type  1   force =    -0.00459527    0.01145247   -0.00157263
     atom   18 type  1   force =    -0.02702259    0.01043859   -0.01787780
     atom   19 type  1   force =     0.00752468    0.01721566   -0.01332580
     atom   20 type  1   force =     0.00548896   -0.01111645    0.00418405
     atom   21 type  1   force =    -0.00940091    0.00110078    0.01798046
     atom   22 type  1   force =    -0.00798266   -0.00390634   -0.00253331
     atom   23 type  1   force =     0.02995185   -0.00973882   -0.02414132
     atom   24 type  1   force =     0.00525499   -0.00758340   -0.01622409
     atom   25 type  1   force =     0.01054970    0.00733051   -0.00783690
     atom   26 type  1   force =     0.03330572    0.02604168    0.03480610
     atom   27 type  1   force =    -0.05087695   -0.04288357   -0.00986915
     atom   28 type  1   force =     0.00316141   -0.01720682    0.00978089
     atom   29 type  1   force =     0.04161236   -0.00103581    0.02008065
     atom   30 type  1   force =     0.05457667   -0.01976443   -0.06654173
     atom   31 type  1   force =    -0.00776356    0.01388295   -0.00140024
     atom   32 type  1   force =    -0.02988056   -0.01089700   -0.02385110
     atom   33 type  1   force =    -0.02176673    0.04465756    0.05206027
     atom   34 type  1   force =     0.01993752   -0.00339509   -0.01058889
     atom   35 type  1   force =     0.01015272   -0.01180339    0.02817771
     atom   36 type  1   force =    -0.06612014    0.02045572   -0.00148985
     atom   37 type  1   force =    -0.00856301    0.01460805    0.00119391
     atom   38 type  1   force =     0.03223087   -0.01453764   -0.00017353
     atom   39 type  1   force =     0.00704129   -0.01352735   -0.01484051
     atom   40 type  1   force =     0.00000831    0.00329581    0.00627150
     atom   41 type  1   force =    -0.01749064    0.00367431   -0.00702628
     atom   42 type  1   force =     0.02391209   -0.02169827   -0.02255668
     atom   43 type  1   force =     0.01569797   -0.02627043    0.03866389
     atom   44 type  1   force =     0.09264138   -0.05289678   -0.02277860
     atom   45 type  1   force =     0.00281147   -0.02744574    0.00883255
     atom   46 type  1   force =    -0.04610049    0.02936715    0.02741505
     atom   47 type  1   force =     0.00909280   -0.01825311    0.00839657
     atom   48 type  1   force =     0.00691278   -0.00225843   -0.02618800
     atom   49 type  1   force =     0.00502867   -0.01555503   -0.02886823
     atom   50 type  1   force =    -0.02202684    0.00226192   -0.01357491
     atom   51 type  1   force =     0.00453183    0.00933691    0.02163725
     atom   52 type  1   force =     0.00436465   -0.00056994   -0.00269230
     atom   53 type  1   force =    -0.00245874   -0.01824680    0.00676396
     atom   54 type  1   force =    -0.04027995    0.01719479    0.01928966
     atom   55 type  1   force =     0.00134044    0.01525093   -0.02385218
     atom   56 type  1   force =     0.01275834   -0.04517267   -0.01513946
     atom   57 type  1   force =     0.03863430    0.01671545    0.00291677
     atom   58 type  1   force =     0.01418094    0.01082065    0.01063858
     atom   59 type  1   force =     0.00616460    0.01079291    0.00914508
     atom   60 type  1   force =    -0.00406300    0.02783141    0.02292588
     atom   61 type  1   force =    -0.00701248    0.00293433    0.01896477
     atom   62 type  1   force =     0.02251890   -0.00695591    0.00642631
     atom   63 type  1   force =    -0.03844997    0.02280169   -0.02784668
     atom   64 type  1   force =     0.02657316    0.00486102   -0.02065102

     Total force =     0.332254     Total SCF correction =     0.001840


     Computing stress (Cartesian axis) and pressure

          total   stress  (Ry/bohr**3)                   (kbar)     P=      -31.78
  -0.00022277  -0.00009647  -0.00001250          -32.77      -14.19       -1.84
  -0.00009647  -0.00027572  -0.00002880          -14.19      -40.56       -4.24
  -0.00001250  -0.00002880  -0.00014967           -1.84       -4.24      -22.02

 
     init_run     :      1.16s CPU      4.94s WALL (       1 calls)
     electrons    :      1.91s CPU      2.04s WALL (       1 calls)
     forces       :      0.04s CPU      0.04s WALL (       1 calls)
     stress       :      0.15s CPU      0.16s WALL (       1 calls)

     Called by init_run:
     wfcinit      :      0.62s CPU      4.22s WALL (       1 calls)
                                        4.22s GPU  (       1 calls)
     potinit      :      0.05s CPU      0.15s WALL (       1 calls)
     hinit0       :      0.46s CPU      0.50s WALL (       1 calls)

     Called by electrons:
     c_bands      :      1.17s CPU      1.24s WALL (      18 calls)
     sum_band     :      0.36s CPU      0.40s WALL (      18 calls)
     v_of_rho     :      0.18s CPU      0.28s WALL (      18 calls)
     mix_rho      :      0.17s CPU      0.18s WALL (      18 calls)

     Called by c_bands:
     init_us_2    :      0.07s CPU      0.07s WALL (      37 calls)
     init_us_2:gp :      0.06s CPU      0.07s WALL (      37 calls)
     regterg      :      1.01s CPU      1.07s WALL (      18 calls)

     Called by *egterg:
     rdiaghg      :      0.44s CPU      1.18s WALL (      97 calls)
                                        1.17s GPU  (      97 calls)
     h_psi        :      1.00s CPU      3.89s WALL (      99 calls)
                                        3.89s GPU  (      99 calls)
     g_psi        :      0.00s CPU      0.00s WALL (      80 calls)
                                        0.00s GPU  (      80 calls)

     Called by h_psi:
     h_psi:calbec :      0.58s CPU      3.38s WALL (      99 calls)
                                        3.38s GPU  (      99 calls)
     vloc_psi     :      0.37s CPU      0.44s WALL (      99 calls)
                                        0.44s GPU  (      99 calls)
     add_vuspsi   :      0.04s CPU      0.06s WALL (      99 calls)
                                        0.06s GPU  (      99 calls)

     General routines
     calbec       :      0.58s CPU      3.39s WALL (     104 calls)
     fft          :      0.62s CPU      0.75s WALL (     151 calls)
                                        0.13s GPU  (      96 calls)
     ffts         :      0.05s CPU      0.05s WALL (      18 calls)
     fftw         :      0.44s CPU      0.58s WALL (    1930 calls)
                                        0.51s GPU  (    1930 calls)
 
     Parallel routines
 
     PWSCF        :      3.31s CPU      7.25s WALL

 
   This run was terminated on:  10:46: 2  10May2023            

=------------------------------------------------------------------------------=
   JOB DONE.
=------------------------------------------------------------------------------=
