An instance of this daemon is already running

     Program PWSCF v.7.1 starts on 10May2023 at 10:37:59 

     This program is part of the open-source Quantum ESPRESSO suite
     for quantum simulation of materials; please cite
         "P. Giannozzi et al., J. Phys.:Condens. Matter 21 395502 (2009);
         "P. Giannozzi et al., J. Phys.:Condens. Matter 29 465901 (2017);
         "P. Giannozzi et al., J. Chem. Phys. 152 154105 (2020);
          URL http://www.quantum-espresso.org", 
     in publications or presentations arising from this work. More details at
     http://www.quantum-espresso.org/quote

     Parallel version (MPI & OpenMP), running on       4 processor cores
     Number of MPI processes:                 4
     Threads/MPI process:                     1

     MPI processes distributed on     1 nodes
     753609 MiB available memory on the printing compute node when the environment starts
 
     Reading input from pw-si-3.in
Warning: card &CELL ignored
Warning: card / ignored

     Current dimensions of program PWSCF are:
     Max number of different atomic species (ntypx) = 10
     Max number of k-points (npk) =  40000
     Max angular momentum in pseudopotentials (lmaxx) =  4

     IMPORTANT: XC functional enforced from input :
     Exchange-correlation= PBE
                           (   1   4   3   4   0   0   0)
     Any further DFT definition will be discarded
     Please, verify this is what you really want


     gamma-point specific algorithms are used
 
     K-points division:     npool     =       2
     R & G space division:  proc/nbgrp/npool/nimage =       2
     Subspace diagonalization in iterative solution of the eigenvalue problem:
     a serial algorithm will be used

     Message from routine divide_et_impera:
     suboptimal parallelization: some nodes have no k-points
 
     Parallelization info
     --------------------
     sticks:   dense  smooth     PW     G-vecs:    dense   smooth      PW
     Min        1908    1908    502                88957    88957   12102
     Max        1909    1909    503                88960    88960   12105
     Sum        3817    3817   1005               177917   177917   24207
 
     Using Slab Decomposition
 


     bravais-lattice index     =            0
     lattice parameter (alat)  =      20.0136  a.u.
     unit-cell volume          =    8016.2838 (a.u.)^3
     number of atoms/cell      =           64
     number of atomic types    =            1
     number of electrons       =       256.00
     number of Kohn-Sham states=          154
     kinetic-energy cutoff     =      30.0000  Ry
     charge density cutoff     =     120.0000  Ry
     scf convergence threshold =      1.0E-06
     mixing beta               =       0.5000
     number of iterations used =            8  plain     mixing
     Exchange-correlation= PBE
                           (   1   4   3   4   0   0   0)

     GPU acceleration is ACTIVE.
     GPU-aware MPI enabled

     Message from routine print_cuda_info:
     High GPU oversubscription detected. Are you sure this is what you want?

     celldm(1)=  20.013561  celldm(2)=   0.000000  celldm(3)=   0.000000
     celldm(4)=   0.000000  celldm(5)=   0.000000  celldm(6)=   0.000000

     crystal axes: (cart. coord. in units of alat)
               a(1) = (   1.000000   0.000000   0.000000 )  
               a(2) = (   0.000000   1.000000   0.000000 )  
               a(3) = (   0.000000   0.000000   1.000000 )  

     reciprocal axes: (cart. coord. in units 2 pi/alat)
               b(1) = (  1.000000  0.000000  0.000000 )  
               b(2) = (  0.000000  1.000000  0.000000 )  
               b(3) = (  0.000000  0.000000  1.000000 )  


     PseudoPot. # 1 for Si read from file:
     /home/ppiaggi/pseudos/Si_ONCV_PBE_sr.upf
     MD5 check sum: 8553c464762ac42b85b1eed164b4d029
     Pseudo is Norm-conserving, Zval =  4.0
     Generated using ONCVPSP code by D. R. Hamann
     Using radial grid of 1510 points,  4 beta functions with: 
                l(1) =   0
                l(2) =   0
                l(3) =   1
                l(4) =   1

     atomic species   valence    mass     pseudopotential
        Si             4.00    28.08500     Si( 1.00)

     No symmetry found



   Cartesian axes

     site n.     atom                  positions (alat units)
         1           Si  tau(   1) = (   0.4259690   0.8088690   0.7253250  )
         2           Si  tau(   2) = (   0.0049639   0.2432740   0.4116980  )
         3           Si  tau(   3) = (   0.9774460   0.9264880   0.1902690  )
         4           Si  tau(   4) = (   0.4395040   0.5706990   0.1323310  )
         5           Si  tau(   5) = (   0.8744220   0.0978107   0.5046440  )
         6           Si  tau(   6) = (   0.8904240   0.1415870   0.7890160  )
         7           Si  tau(   7) = (   0.6858920   0.5994580   0.0726796  )
         8           Si  tau(   8) = (   0.8487540   0.3200310   0.2679490  )
         9           Si  tau(   9) = (   0.9725830   0.6028990   0.7910110  )
        10           Si  tau(  10) = (   0.1067590   0.7040940   0.9563150  )
        11           Si  tau(  11) = (   0.1283480   0.6171750   0.5908370  )
        12           Si  tau(  12) = (   0.8305420   0.7015960   0.3865620  )
        13           Si  tau(  13) = (   0.0695451   0.0620004   0.9813290  )
        14           Si  tau(  14) = (   0.3180050   0.5871630   0.9128660  )
        15           Si  tau(  15) = (   0.5862070   0.2320860   0.0399158  )
        16           Si  tau(  16) = (   0.1458290   0.2620180   0.5909980  )
        17           Si  tau(  17) = (   0.5155550   0.4424740   0.4400460  )
        18           Si  tau(  18) = (   0.1929100   0.3952110   0.3257720  )
        19           Si  tau(  19) = (   0.6983300   0.2366860   0.6952260  )
        20           Si  tau(  20) = (   0.9580220   0.5466670   0.1798570  )
        21           Si  tau(  21) = (   0.7203820   0.9395270   0.5991910  )
        22           Si  tau(  22) = (   0.5494270   0.8044950   0.4996480  )
        23           Si  tau(  23) = (   0.3470320   0.0399756   0.9584010  )
        24           Si  tau(  24) = (   0.0681421   0.5719010   0.3967150  )
        25           Si  tau(  25) = (   0.4306490   0.8614910   0.1142410  )
        26           Si  tau(  26) = (   0.2850200   0.4780220   0.6578650  )
        27           Si  tau(  27) = (   0.6004960   0.1176780   0.4634360  )
        28           Si  tau(  28) = (   0.4990240   0.3060490   0.8665300  )
        29           Si  tau(  29) = (   0.7064540   0.9799010   0.3032340  )
        30           Si  tau(  30) = (   0.2885040   0.2537320   0.0826553  )
        31           Si  tau(  31) = (   0.8558090   0.7961960   0.7362380  )
        32           Si  tau(  32) = (   0.5438960   0.7307130   0.9183500  )
        33           Si  tau(  33) = (   0.6976590   0.3380220   0.4516720  )
        34           Si  tau(  34) = (   0.3396950   0.3280880   0.4756340  )
        35           Si  tau(  35) = (   0.9263270   0.8939480   0.3938410  )
        36           Si  tau(  36) = (   0.7455670   0.8667300   0.9225180  )
        37           Si  tau(  37) = (   0.5045440   0.0588080   0.1881350  )
        38           Si  tau(  38) = (   0.4328470   0.1578360   0.6685910  )
        39           Si  tau(  39) = (   0.5786480   0.0191063   0.7887840  )
        40           Si  tau(  40) = (   0.6355120   0.7437710   0.2553080  )
        41           Si  tau(  41) = (   0.4241510   0.6396270   0.3375200  )
        42           Si  tau(  42) = (   0.1579100   0.4774050   0.1050880  )
        43           Si  tau(  43) = (   0.9853730   0.3069830   0.0046787  )
        44           Si  tau(  44) = (   0.7660410   0.3949400   0.0573859  )
        45           Si  tau(  45) = (   0.5072190   0.5848260   0.6281460  )
        46           Si  tau(  46) = (   0.3414250   0.9282320   0.5054250  )
        47           Si  tau(  47) = (   0.5816740   0.5451510   0.8267950  )
        48           Si  tau(  48) = (   0.0246245   0.9452830   0.7068110  )
        49           Si  tau(  49) = (   0.3756380   0.1133360   0.3873030  )
        50           Si  tau(  50) = (   0.7914050   0.6372020   0.5969660  )
        51           Si  tau(  51) = (   0.2571560   0.3690790   0.8680790  )
        52           Si  tau(  52) = (   0.7790580   0.4418410   0.8073330  )
        53           Si  tau(  53) = (   0.9068340   0.7486830   0.0533841  )
        54           Si  tau(  54) = (   0.0041460   0.3370790   0.7455540  )
        55           Si  tau(  55) = (   0.8490980   0.1163210   0.1554480  )
        56           Si  tau(  56) = (   0.2080030   0.8567540   0.1059770  )
        57           Si  tau(  57) = (   0.2289530   0.8702700   0.8287720  )
        58           Si  tau(  58) = (   0.2170360   0.1323100   0.7567460  )
        59           Si  tau(  59) = (   0.7535550   0.1021520   0.9672130  )
        60           Si  tau(  60) = (   0.1238890   0.8497310   0.5350370  )
        61           Si  tau(  61) = (   0.2033020   0.7406450   0.3329040  )
        62           Si  tau(  62) = (   0.4678960   0.3676260   0.2025020  )
        63           Si  tau(  63) = (   0.1598130   0.1270890   0.2451340  )
        64           Si  tau(  64) = (   0.8923830   0.4420750   0.5320580  )

     number of k points=     1  Fermi-Dirac smearing, width (Ry)=  0.0100
                       cart. coord. in units 2pi/alat
        k(    1) = (   0.0000000   0.0000000   0.0000000), wk =   2.0000000

     Dense  grid:    88959 G-vectors     FFT dimensions: (  72,  72,  72)

     Estimated max dynamical RAM per process >     143.12 MB

     Estimated total dynamical RAM >     550.75 MB

     Initial potential from superposition of free atoms

     starting charge     255.9608, renormalised to     256.0000
     Starting wfcs are  256 randomized atomic wfcs

     total cpu time spent up to now is        5.0 secs

     Self-consistent Calculation

     iteration #  1     ecut=    30.00 Ry     beta= 0.50
     Davidson diagonalization with overlap
     ethr =  1.00E-02,  avg # of iterations =  3.0

     Threshold (ethr) on eigenvalues was too large:
     Diagonalizing with lowered threshold

     Davidson diagonalization with overlap
     ethr =  3.88E-04,  avg # of iterations =  4.0

     total cpu time spent up to now is        5.3 secs

     total energy              =    -501.37680946 Ry
     estimated scf accuracy    <       1.19935546 Ry

     iteration #  2     ecut=    30.00 Ry     beta= 0.50
     Davidson diagonalization with overlap
     ethr =  4.68E-04,  avg # of iterations =  4.0

     total cpu time spent up to now is        5.4 secs

     total energy              =    -500.97736412 Ry
     estimated scf accuracy    <       4.52932512 Ry

     iteration #  3     ecut=    30.00 Ry     beta= 0.50
     Davidson diagonalization with overlap
     ethr =  4.68E-04,  avg # of iterations =  3.0

     total cpu time spent up to now is        5.5 secs

     total energy              =    -501.41426972 Ry
     estimated scf accuracy    <       2.04823676 Ry

     iteration #  4     ecut=    30.00 Ry     beta= 0.50
     Davidson diagonalization with overlap
     ethr =  4.68E-04,  avg # of iterations =  2.0

     total cpu time spent up to now is        5.6 secs

     total energy              =    -501.57027883 Ry
     estimated scf accuracy    <       0.45995404 Ry

     iteration #  5     ecut=    30.00 Ry     beta= 0.50
     Davidson diagonalization with overlap
     ethr =  1.80E-04,  avg # of iterations =  2.0

     total cpu time spent up to now is        5.7 secs

     total energy              =    -501.60108317 Ry
     estimated scf accuracy    <       0.16587777 Ry

     iteration #  6     ecut=    30.00 Ry     beta= 0.50
     Davidson diagonalization with overlap
     ethr =  6.48E-05,  avg # of iterations =  2.0

     total cpu time spent up to now is        5.8 secs

     total energy              =    -501.61871297 Ry
     estimated scf accuracy    <       0.14611923 Ry

     iteration #  7     ecut=    30.00 Ry     beta= 0.50
     Davidson diagonalization with overlap
     ethr =  5.71E-05,  avg # of iterations =  2.0

     total cpu time spent up to now is        5.9 secs

     total energy              =    -501.63031749 Ry
     estimated scf accuracy    <       0.00675955 Ry

     iteration #  8     ecut=    30.00 Ry     beta= 0.50
     Davidson diagonalization with overlap
     c_bands:  1 eigenvalues not converged
     ethr =  2.64E-06,  avg # of iterations = 20.0

     total cpu time spent up to now is        6.1 secs

     total energy              =    -501.63119046 Ry
     estimated scf accuracy    <       0.01118828 Ry

     iteration #  9     ecut=    30.00 Ry     beta= 0.50
     Davidson diagonalization with overlap
     ethr =  2.64E-06,  avg # of iterations =  6.0

     total cpu time spent up to now is        6.2 secs

     total energy              =    -501.63219020 Ry
     estimated scf accuracy    <       0.00359425 Ry

     iteration # 10     ecut=    30.00 Ry     beta= 0.50
     Davidson diagonalization with overlap
     ethr =  1.40E-06,  avg # of iterations =  2.0

     total cpu time spent up to now is        6.3 secs

     total energy              =    -501.63247735 Ry
     estimated scf accuracy    <       0.00049432 Ry

     iteration # 11     ecut=    30.00 Ry     beta= 0.50
     Davidson diagonalization with overlap
     ethr =  1.93E-07,  avg # of iterations =  2.0

     total cpu time spent up to now is        6.4 secs

     total energy              =    -501.63252875 Ry
     estimated scf accuracy    <       0.00010341 Ry

     iteration # 12     ecut=    30.00 Ry     beta= 0.50
     Davidson diagonalization with overlap
     ethr =  4.04E-08,  avg # of iterations =  5.0

     total cpu time spent up to now is        6.5 secs

     total energy              =    -501.63252364 Ry
     estimated scf accuracy    <       0.00051429 Ry

     iteration # 13     ecut=    30.00 Ry     beta= 0.50
     Davidson diagonalization with overlap
     ethr =  4.04E-08,  avg # of iterations =  3.0

     total cpu time spent up to now is        6.6 secs

     total energy              =    -501.63255883 Ry
     estimated scf accuracy    <       0.00002626 Ry

     iteration # 14     ecut=    30.00 Ry     beta= 0.50
     Davidson diagonalization with overlap
     ethr =  1.03E-08,  avg # of iterations =  2.0

     total cpu time spent up to now is        6.7 secs

     total energy              =    -501.63256080 Ry
     estimated scf accuracy    <       0.00001050 Ry

     iteration # 15     ecut=    30.00 Ry     beta= 0.50
     Davidson diagonalization with overlap
     ethr =  4.10E-09,  avg # of iterations =  3.0

     total cpu time spent up to now is        6.8 secs

     total energy              =    -501.63256085 Ry
     estimated scf accuracy    <       0.00000970 Ry

     iteration # 16     ecut=    30.00 Ry     beta= 0.50
     Davidson diagonalization with overlap
     ethr =  3.79E-09,  avg # of iterations =  3.0

     total cpu time spent up to now is        6.9 secs

     total energy              =    -501.63256155 Ry
     estimated scf accuracy    <       0.00001016 Ry

     iteration # 17     ecut=    30.00 Ry     beta= 0.50
     Davidson diagonalization with overlap
     ethr =  3.79E-09,  avg # of iterations =  1.0

     total cpu time spent up to now is        7.0 secs

     total energy              =    -501.63256206 Ry
     estimated scf accuracy    <       0.00000260 Ry

     iteration # 18     ecut=    30.00 Ry     beta= 0.50
     Davidson diagonalization with overlap
     ethr =  1.02E-09,  avg # of iterations =  2.0

     total cpu time spent up to now is        7.1 secs

     End of self-consistent calculation

          k = 0.0000 0.0000 0.0000 ( 11072 PWs)   bands (ev):

    -5.2559  -4.2755  -4.2135  -4.1347  -3.9854  -3.9446  -3.8850  -3.3186
    -3.1056  -3.0498  -3.0202  -2.9752  -2.8875  -2.8073  -2.7684  -2.6876
    -2.5839  -2.5097  -2.4343  -2.0588  -1.9764  -1.7482  -1.6847  -1.5358
    -1.3860  -1.3175  -1.2506  -0.7834  -0.6144  -0.4800  -0.4443  -0.2508
    -0.1130  -0.0086   0.0950   0.2034   0.3136   0.3592   0.3819   0.4331
     0.5351   0.6358   0.6741   0.7780   0.8183   0.8880   0.9556   1.0637
     1.1096   1.2129   1.3089   1.3547   1.5268   1.5419   1.7234   1.8110
     1.8681   1.8960   1.9987   2.0820   2.1974   2.4375   2.5156   2.6246
     2.6963   2.8257   2.8701   2.8906   2.9449   3.0077   3.0898   3.1229
     3.1814   3.2428   3.2992   3.4163   3.4870   3.6597   3.6955   3.8440
     3.9102   4.3062   4.4633   4.5262   4.5585   4.6495   4.7731   4.8575
     4.9289   5.0044   5.0567   5.1287   5.1793   5.2664   5.3666   5.3903
     5.4904   5.5043   5.6122   5.6627   5.6884   5.7241   5.7792   5.7880
     5.8010   5.8954   5.9463   6.0253   6.0747   6.0769   6.2058   6.2453
     6.3068   6.3954   6.4409   6.5012   6.5628   6.5986   6.6530   6.7341
     6.7865   6.8131   6.8898   6.9472   7.0434   7.0954   7.1937   7.2684
     7.3263   7.3703   7.4025   7.4943   7.5815   7.6308   7.6671   7.7409
     7.8107   7.8503   7.8922   7.9752   8.0831   8.1494   8.2150   8.2603
     8.3282   8.4031   8.4394   8.4770   8.5060   8.6137   8.8329   8.9314
     8.9713   9.0007

     the Fermi energy is     7.2727 ev

!    total energy              =    -501.63256186 Ry
     estimated scf accuracy    <       0.00000059 Ry
     smearing contrib. (-TS)   =      -0.13861529 Ry
     internal energy E=F+TS    =    -501.49394657 Ry

     The total energy is F=E-TS. E is the sum of the following terms:
     one-electron contribution =     196.54478265 Ry
     hartree contribution      =      21.46602141 Ry
     xc contribution           =    -151.33274123 Ry
     ewald contribution        =    -568.17200940 Ry

     convergence has been achieved in  18 iterations

     Forces acting on atoms (cartesian axes, Ry/au):

     atom    1 type  1   force =     0.02034630    0.00816443   -0.00697926
     atom    2 type  1   force =     0.06895138    0.02943365   -0.03724794
     atom    3 type  1   force =     0.02928407    0.02144765   -0.06056033
     atom    4 type  1   force =    -0.01122489    0.01404887   -0.06077910
     atom    5 type  1   force =    -0.03926527   -0.06779148    0.03326106
     atom    6 type  1   force =     0.01103764   -0.01290607   -0.00404630
     atom    7 type  1   force =    -0.02582463    0.04598822    0.02314529
     atom    8 type  1   force =    -0.01699892    0.00222801   -0.00547454
     atom    9 type  1   force =     0.00192870   -0.01488272   -0.02530169
     atom   10 type  1   force =     0.03552285    0.00561084   -0.01938786
     atom   11 type  1   force =    -0.00971885    0.04730642    0.07544993
     atom   12 type  1   force =    -0.01326155   -0.01910310   -0.00925472
     atom   13 type  1   force =     0.01292760    0.00421076    0.00524416
     atom   14 type  1   force =    -0.00137009   -0.00112818    0.04408622
     atom   15 type  1   force =     0.02180655   -0.00963667    0.07814174
     atom   16 type  1   force =     0.00607413    0.00814716   -0.01423598
     atom   17 type  1   force =    -0.02912366    0.07646701   -0.02373847
     atom   18 type  1   force =    -0.03052247   -0.00167672   -0.05248522
     atom   19 type  1   force =    -0.00367784    0.01264025   -0.00969212
     atom   20 type  1   force =    -0.03158821    0.00275933    0.02465283
     atom   21 type  1   force =    -0.02774522    0.01919645    0.02032745
     atom   22 type  1   force =    -0.00921008   -0.00108078    0.01175539
     atom   23 type  1   force =    -0.01578090   -0.01747528   -0.01075003
     atom   24 type  1   force =    -0.04023748   -0.03718540   -0.06211874
     atom   25 type  1   force =     0.01470083   -0.01164901   -0.03026722
     atom   26 type  1   force =     0.03054727   -0.00247690    0.01009099
     atom   27 type  1   force =     0.03416656    0.00946589    0.02003966
     atom   28 type  1   force =    -0.05461203    0.05063735   -0.07491020
     atom   29 type  1   force =    -0.00965768   -0.00565516   -0.01754602
     atom   30 type  1   force =    -0.00238842   -0.01474145    0.02844970
     atom   31 type  1   force =    -0.01596075    0.02390048    0.00658237
     atom   32 type  1   force =     0.00280114    0.07588579    0.04894390
     atom   33 type  1   force =     0.04992678   -0.06472551    0.00052426
     atom   34 type  1   force =    -0.01130575   -0.04568367    0.03149062
     atom   35 type  1   force =     0.01001271    0.02963542    0.04336049
     atom   36 type  1   force =    -0.00708727   -0.00846669   -0.00575556
     atom   37 type  1   force =     0.01730930    0.01591970    0.01671281
     atom   38 type  1   force =     0.00646199    0.00106476    0.00493019
     atom   39 type  1   force =    -0.00242578   -0.01839177   -0.03141969
     atom   40 type  1   force =     0.00879988    0.00755012    0.00385211
     atom   41 type  1   force =    -0.00634982    0.00921030    0.01702211
     atom   42 type  1   force =     0.02510283   -0.02758591   -0.00825082
     atom   43 type  1   force =     0.00376527   -0.00950247   -0.02157672
     atom   44 type  1   force =     0.00379171   -0.01877828   -0.01543860
     atom   45 type  1   force =    -0.02085348    0.02636049   -0.03628674
     atom   46 type  1   force =     0.01350823   -0.01133267    0.03093697
     atom   47 type  1   force =     0.01272797   -0.07662103   -0.00561104
     atom   48 type  1   force =     0.01028565    0.04132725    0.03071265
     atom   49 type  1   force =    -0.02477683    0.00757854   -0.03784942
     atom   50 type  1   force =    -0.02993402   -0.03036699   -0.00527156
     atom   51 type  1   force =     0.02655444   -0.01777025   -0.01158033
     atom   52 type  1   force =     0.02134400    0.00088368   -0.00273784
     atom   53 type  1   force =    -0.01163528    0.00135900    0.02080518
     atom   54 type  1   force =    -0.02900255    0.02240293    0.02340848
     atom   55 type  1   force =     0.02768892   -0.01071905    0.04525199
     atom   56 type  1   force =    -0.02571287   -0.00110324    0.02166977
     atom   57 type  1   force =    -0.03573691    0.02466161    0.01642397
     atom   58 type  1   force =     0.01372861   -0.02946180    0.02979539
     atom   59 type  1   force =    -0.00838272   -0.03841168   -0.06567993
     atom   60 type  1   force =     0.01640168   -0.02762476   -0.02363570
     atom   61 type  1   force =     0.03122268    0.01060223   -0.01924967
     atom   62 type  1   force =    -0.00800763   -0.03560551    0.00316448
     atom   63 type  1   force =     0.01587398    0.03052106    0.01160366
     atom   64 type  1   force =     0.00477819    0.00292456    0.03328353

     Total force =     0.394434     Total SCF correction =     0.001559


     Computing stress (Cartesian axis) and pressure

          total   stress  (Ry/bohr**3)                   (kbar)     P=      -22.42
  -0.00019021  -0.00001662   0.00003631          -27.98       -2.44        5.34
  -0.00001662  -0.00023024   0.00000974           -2.44      -33.87        1.43
   0.00003631   0.00000974  -0.00003669            5.34        1.43       -5.40

 
     init_run     :      1.09s CPU      4.92s WALL (       1 calls)
     electrons    :      1.94s CPU      2.11s WALL (       1 calls)
     forces       :      0.04s CPU      0.04s WALL (       1 calls)
     stress       :      0.15s CPU      0.16s WALL (       1 calls)

     Called by init_run:
     wfcinit      :      0.55s CPU      4.20s WALL (       1 calls)
                                        4.20s GPU  (       1 calls)
     potinit      :      0.06s CPU      0.15s WALL (       1 calls)
     hinit0       :      0.47s CPU      0.50s WALL (       1 calls)

     Called by electrons:
     c_bands      :      1.18s CPU      1.26s WALL (      19 calls)
     sum_band     :      0.37s CPU      0.42s WALL (      19 calls)
     v_of_rho     :      0.19s CPU      0.29s WALL (      19 calls)
     mix_rho      :      0.17s CPU      0.19s WALL (      19 calls)

     Called by c_bands:
     init_us_2    :      0.07s CPU      0.07s WALL (      39 calls)
     init_us_2:gp :      0.07s CPU      0.07s WALL (      39 calls)
     regterg      :      1.02s CPU      1.09s WALL (      19 calls)

     Called by *egterg:
     rdiaghg      :      0.44s CPU      1.19s WALL (      89 calls)
                                        1.17s GPU  (      89 calls)
     h_psi        :      0.95s CPU      3.91s WALL (      91 calls)
                                        3.91s GPU  (      91 calls)
     g_psi        :      0.00s CPU      0.00s WALL (      71 calls)
                                        0.00s GPU  (      71 calls)

     Called by h_psi:
     h_psi:calbec :      0.50s CPU      3.38s WALL (      91 calls)
                                        3.38s GPU  (      91 calls)
     vloc_psi     :      0.39s CPU      0.47s WALL (      91 calls)
                                        0.46s GPU  (      91 calls)
     add_vuspsi   :      0.03s CPU      0.05s WALL (      91 calls)
                                        0.05s GPU  (      91 calls)

     General routines
     calbec       :      0.51s CPU      3.39s WALL (      96 calls)
     fft          :      0.63s CPU      0.76s WALL (     159 calls)
                                        0.14s GPU  (     101 calls)
     ffts         :      0.04s CPU      0.05s WALL (      19 calls)
     fftw         :      0.47s CPU      0.62s WALL (    2017 calls)
                                        0.54s GPU  (    2017 calls)
 
     Parallel routines
 
     PWSCF        :      3.27s CPU      7.31s WALL

 
   This run was terminated on:  10:38: 7  10May2023            

=------------------------------------------------------------------------------=
   JOB DONE.
=------------------------------------------------------------------------------=
