An instance of this daemon is already running

     Program PWSCF v.7.1 starts on 10May2023 at 10:53:32 

     This program is part of the open-source Quantum ESPRESSO suite
     for quantum simulation of materials; please cite
         "P. Giannozzi et al., J. Phys.:Condens. Matter 21 395502 (2009);
         "P. Giannozzi et al., J. Phys.:Condens. Matter 29 465901 (2017);
         "P. Giannozzi et al., J. Chem. Phys. 152 154105 (2020);
          URL http://www.quantum-espresso.org", 
     in publications or presentations arising from this work. More details at
     http://www.quantum-espresso.org/quote

     Parallel version (MPI & OpenMP), running on       4 processor cores
     Number of MPI processes:                 4
     Threads/MPI process:                     1

     MPI processes distributed on     1 nodes
     753534 MiB available memory on the printing compute node when the environment starts
 
     Reading input from pw-si-99.in
Warning: card &CELL ignored
Warning: card / ignored

     Current dimensions of program PWSCF are:
     Max number of different atomic species (ntypx) = 10
     Max number of k-points (npk) =  40000
     Max angular momentum in pseudopotentials (lmaxx) =  4

     IMPORTANT: XC functional enforced from input :
     Exchange-correlation= PBE
                           (   1   4   3   4   0   0   0)
     Any further DFT definition will be discarded
     Please, verify this is what you really want


     gamma-point specific algorithms are used
 
     K-points division:     npool     =       2
     R & G space division:  proc/nbgrp/npool/nimage =       2
     Subspace diagonalization in iterative solution of the eigenvalue problem:
     a serial algorithm will be used

     Message from routine divide_et_impera:
     suboptimal parallelization: some nodes have no k-points
 
     Parallelization info
     --------------------
     sticks:   dense  smooth     PW     G-vecs:    dense   smooth      PW
     Min        1916    1916    502                89532    89532   12150
     Max        1917    1917    503                89537    89537   12153
     Sum        3833    3833   1005               179069   179069   24303
 
     Using Slab Decomposition
 


     bravais-lattice index     =            0
     lattice parameter (alat)  =      20.0640  a.u.
     unit-cell volume          =    8077.0115 (a.u.)^3
     number of atoms/cell      =           64
     number of atomic types    =            1
     number of electrons       =       256.00
     number of Kohn-Sham states=          154
     kinetic-energy cutoff     =      30.0000  Ry
     charge density cutoff     =     120.0000  Ry
     scf convergence threshold =      1.0E-06
     mixing beta               =       0.5000
     number of iterations used =            8  plain     mixing
     Exchange-correlation= PBE
                           (   1   4   3   4   0   0   0)

     GPU acceleration is ACTIVE.
     GPU-aware MPI enabled

     Message from routine print_cuda_info:
     High GPU oversubscription detected. Are you sure this is what you want?

     celldm(1)=  20.063971  celldm(2)=   0.000000  celldm(3)=   0.000000
     celldm(4)=   0.000000  celldm(5)=   0.000000  celldm(6)=   0.000000

     crystal axes: (cart. coord. in units of alat)
               a(1) = (   1.000000   0.000000   0.000000 )  
               a(2) = (   0.000000   1.000000   0.000000 )  
               a(3) = (   0.000000   0.000000   1.000000 )  

     reciprocal axes: (cart. coord. in units 2 pi/alat)
               b(1) = (  1.000000  0.000000  0.000000 )  
               b(2) = (  0.000000  1.000000  0.000000 )  
               b(3) = (  0.000000  0.000000  1.000000 )  


     PseudoPot. # 1 for Si read from file:
     /home/ppiaggi/pseudos/Si_ONCV_PBE_sr.upf
     MD5 check sum: 8553c464762ac42b85b1eed164b4d029
     Pseudo is Norm-conserving, Zval =  4.0
     Generated using ONCVPSP code by D. R. Hamann
     Using radial grid of 1510 points,  4 beta functions with: 
                l(1) =   0
                l(2) =   0
                l(3) =   1
                l(4) =   1

     atomic species   valence    mass     pseudopotential
        Si             4.00    28.08500     Si( 1.00)

     No symmetry found



   Cartesian axes

     site n.     atom                  positions (alat units)
         1           Si  tau(   1) = (   0.9555320   0.2314170   0.7732860  )
         2           Si  tau(   2) = (   0.7832570   0.0552033   0.7695100  )
         3           Si  tau(   3) = (   0.9255860   0.9442350   0.4427090  )
         4           Si  tau(   4) = (   0.6042790   0.6101620   0.2922960  )
         5           Si  tau(   5) = (   0.1826610   0.3539350   0.2432370  )
         6           Si  tau(   6) = (   0.2647020   0.0656619   0.5530010  )
         7           Si  tau(   7) = (   0.3730290   0.9427700   0.2862960  )
         8           Si  tau(   8) = (   0.2640410   0.5301970   0.1167590  )
         9           Si  tau(   9) = (   0.3985030   0.7028630   0.2335510  )
        10           Si  tau(  10) = (   0.9485440   0.4939140   0.7130140  )
        11           Si  tau(  11) = (   0.7830130   0.0971915   0.5569050  )
        12           Si  tau(  12) = (   0.6888270   0.7320080   0.4993220  )
        13           Si  tau(  13) = (   0.6332180   0.4858790   0.7652220  )
        14           Si  tau(  14) = (   0.2720110   0.9480320   0.1156150  )
        15           Si  tau(  15) = (   0.1844080   0.9341990   0.8112810  )
        16           Si  tau(  16) = (   0.6949380   0.4496830   0.1461620  )
        17           Si  tau(  17) = (   0.3595000   0.4159810   0.9621390  )
        18           Si  tau(  18) = (   0.0806589   0.0802009   0.3635260  )
        19           Si  tau(  19) = (   0.0600716   0.6136830   0.5599450  )
        20           Si  tau(  20) = (   0.9108270   0.4743010   0.2374180  )
        21           Si  tau(  21) = (   0.6112660   0.0155767   0.9869080  )
        22           Si  tau(  22) = (   0.7951590   0.1766130   0.0602246  )
        23           Si  tau(  23) = (   0.4080460   0.0002021   0.7182480  )
        24           Si  tau(  24) = (   0.3406680   0.1176790   0.9782390  )
        25           Si  tau(  25) = (   0.0072912   0.8265970   0.6371940  )
        26           Si  tau(  26) = (   0.2435680   0.8583880   0.4578350  )
        27           Si  tau(  27) = (   0.5650770   0.0372635   0.2081190  )
        28           Si  tau(  28) = (   0.9207270   0.3993790   0.9762480  )
        29           Si  tau(  29) = (   0.5651240   0.3983410   0.4343090  )
        30           Si  tau(  30) = (   0.4272390   0.5336040   0.7592910  )
        31           Si  tau(  31) = (   0.1507370   0.5104420   0.8419180  )
        32           Si  tau(  32) = (   0.8058660   0.6463060   0.8154770  )
        33           Si  tau(  33) = (   0.7503470   0.8274050   0.7086690  )
        34           Si  tau(  34) = (   0.9056220   0.2406820   0.2880510  )
        35           Si  tau(  35) = (   0.0661518   0.1113520   0.9175010  )
        36           Si  tau(  36) = (   0.0235407   0.7338020   0.2144080  )
        37           Si  tau(  37) = (   0.1981220   0.6608460   0.3504200  )
        38           Si  tau(  38) = (   0.5765630   0.1593980   0.7966880  )
        39           Si  tau(  39) = (   0.5619180   0.1234990   0.4833560  )
        40           Si  tau(  40) = (   0.6452590   0.3319330   0.9477970  )
        41           Si  tau(  41) = (   0.8982200   0.3022380   0.5199600  )
        42           Si  tau(  42) = (   0.0380787   0.6037310   0.0300034  )
        43           Si  tau(  43) = (   0.8895930   0.6343870   0.4202200  )
        44           Si  tau(  44) = (   0.6491610   0.2450940   0.2648630  )
        45           Si  tau(  45) = (   0.4195360   0.2414900   0.1402420  )
        46           Si  tau(  46) = (   0.0639498   0.9564420   0.1587580  )
        47           Si  tau(  47) = (   0.0296893   0.2185720   0.1093600  )
        48           Si  tau(  48) = (   0.1395540   0.2342820   0.6180840  )
        49           Si  tau(  49) = (   0.3397100   0.2082260   0.3559090  )
        50           Si  tau(  50) = (   0.2425890   0.7047910   0.7149230  )
        51           Si  tau(  51) = (   0.2742380   0.2896890   0.7923970  )
        52           Si  tau(  52) = (   0.1632780   0.4113820   0.4751430  )
        53           Si  tau(  53) = (   0.9907850   0.8041810   0.9078050  )
        54           Si  tau(  54) = (   0.5123250   0.8091460   0.7402630  )
        55           Si  tau(  55) = (   0.3510230   0.5170360   0.5253280  )
        56           Si  tau(  56) = (   0.8108940   0.7947390   0.1786950  )
        57           Si  tau(  57) = (   0.5031260   0.8274730   0.9728920  )
        58           Si  tau(  58) = (   0.4450710   0.7472380   0.5309130  )
        59           Si  tau(  59) = (   0.8763060   0.9587540   0.0304846  )
        60           Si  tau(  60) = (   0.6832570   0.6771210   0.9980780  )
        61           Si  tau(  61) = (   0.2715270   0.7273440   0.9784170  )
        62           Si  tau(  62) = (   0.7500810   0.4734040   0.5436490  )
        63           Si  tau(  63) = (   0.7156400   0.9122910   0.3560220  )
        64           Si  tau(  64) = (   0.4386960   0.2890390   0.6333930  )

     number of k points=     1  Fermi-Dirac smearing, width (Ry)=  0.0100
                       cart. coord. in units 2pi/alat
        k(    1) = (   0.0000000   0.0000000   0.0000000), wk =   2.0000000

     Dense  grid:    89535 G-vectors     FFT dimensions: (  72,  72,  72)

     Estimated max dynamical RAM per process >     144.06 MB

     Estimated total dynamical RAM >     554.37 MB

     Initial potential from superposition of free atoms

     starting charge     255.9608, renormalised to     256.0000
     Starting wfcs are  256 randomized atomic wfcs

     total cpu time spent up to now is        5.0 secs

     Self-consistent Calculation

     iteration #  1     ecut=    30.00 Ry     beta= 0.50
     Davidson diagonalization with overlap
     ethr =  1.00E-02,  avg # of iterations =  3.0

     Threshold (ethr) on eigenvalues was too large:
     Diagonalizing with lowered threshold

     Davidson diagonalization with overlap
     ethr =  4.00E-04,  avg # of iterations =  4.0

     total cpu time spent up to now is        5.3 secs

     total energy              =    -501.29525641 Ry
     estimated scf accuracy    <       1.23402930 Ry

     iteration #  2     ecut=    30.00 Ry     beta= 0.50
     Davidson diagonalization with overlap
     ethr =  4.82E-04,  avg # of iterations =  4.0

     total cpu time spent up to now is        5.4 secs

     total energy              =    -500.93403602 Ry
     estimated scf accuracy    <       3.89194629 Ry

     iteration #  3     ecut=    30.00 Ry     beta= 0.50
     Davidson diagonalization with overlap
     ethr =  4.82E-04,  avg # of iterations =  3.0

     total cpu time spent up to now is        5.5 secs

     total energy              =    -501.31000307 Ry
     estimated scf accuracy    <       2.52739872 Ry

     iteration #  4     ecut=    30.00 Ry     beta= 0.50
     Davidson diagonalization with overlap
     ethr =  4.82E-04,  avg # of iterations =  2.0

     total cpu time spent up to now is        5.6 secs

     total energy              =    -501.48734531 Ry
     estimated scf accuracy    <       0.53330501 Ry

     iteration #  5     ecut=    30.00 Ry     beta= 0.50
     Davidson diagonalization with overlap
     ethr =  2.08E-04,  avg # of iterations =  2.0

     total cpu time spent up to now is        5.7 secs

     total energy              =    -501.51653282 Ry
     estimated scf accuracy    <       0.31448407 Ry

     iteration #  6     ecut=    30.00 Ry     beta= 0.50
     Davidson diagonalization with overlap
     ethr =  1.23E-04,  avg # of iterations =  2.0

     total cpu time spent up to now is        5.8 secs

     total energy              =    -501.54844066 Ry
     estimated scf accuracy    <       0.13948523 Ry

     iteration #  7     ecut=    30.00 Ry     beta= 0.50
     Davidson diagonalization with overlap
     ethr =  5.45E-05,  avg # of iterations =  2.0

     total cpu time spent up to now is        5.9 secs

     total energy              =    -501.55859925 Ry
     estimated scf accuracy    <       0.01723815 Ry

     iteration #  8     ecut=    30.00 Ry     beta= 0.50
     Davidson diagonalization with overlap
     ethr =  6.73E-06,  avg # of iterations = 10.0

     total cpu time spent up to now is        6.0 secs

     total energy              =    -501.56040738 Ry
     estimated scf accuracy    <       0.02834870 Ry

     iteration #  9     ecut=    30.00 Ry     beta= 0.50
     Davidson diagonalization with overlap
     ethr =  6.73E-06,  avg # of iterations =  2.0

     total cpu time spent up to now is        6.1 secs

     total energy              =    -501.56263097 Ry
     estimated scf accuracy    <       0.00157430 Ry

     iteration # 10     ecut=    30.00 Ry     beta= 0.50
     Davidson diagonalization with overlap
     ethr =  6.15E-07,  avg # of iterations =  4.0

     total cpu time spent up to now is        6.3 secs

     total energy              =    -501.56284006 Ry
     estimated scf accuracy    <       0.00097573 Ry

     iteration # 11     ecut=    30.00 Ry     beta= 0.50
     Davidson diagonalization with overlap
     ethr =  3.81E-07,  avg # of iterations =  3.0

     total cpu time spent up to now is        6.4 secs

     total energy              =    -501.56290069 Ry
     estimated scf accuracy    <       0.00083079 Ry

     iteration # 12     ecut=    30.00 Ry     beta= 0.50
     Davidson diagonalization with overlap
     ethr =  3.25E-07,  avg # of iterations =  2.0

     total cpu time spent up to now is        6.5 secs

     total energy              =    -501.56296937 Ry
     estimated scf accuracy    <       0.00015503 Ry

     iteration # 13     ecut=    30.00 Ry     beta= 0.50
     Davidson diagonalization with overlap
     ethr =  6.06E-08,  avg # of iterations =  2.0

     total cpu time spent up to now is        6.5 secs

     total energy              =    -501.56298246 Ry
     estimated scf accuracy    <       0.00011381 Ry

     iteration # 14     ecut=    30.00 Ry     beta= 0.50
     Davidson diagonalization with overlap
     ethr =  4.45E-08,  avg # of iterations =  2.0

     total cpu time spent up to now is        6.6 secs

     total energy              =    -501.56299123 Ry
     estimated scf accuracy    <       0.00002115 Ry

     iteration # 15     ecut=    30.00 Ry     beta= 0.50
     Davidson diagonalization with overlap
     ethr =  8.26E-09,  avg # of iterations =  2.0

     total cpu time spent up to now is        6.7 secs

     total energy              =    -501.56299229 Ry
     estimated scf accuracy    <       0.00001577 Ry

     iteration # 16     ecut=    30.00 Ry     beta= 0.50
     Davidson diagonalization with overlap
     ethr =  6.16E-09,  avg # of iterations =  2.0

     total cpu time spent up to now is        6.8 secs

     total energy              =    -501.56299400 Ry
     estimated scf accuracy    <       0.00001238 Ry

     iteration # 17     ecut=    30.00 Ry     beta= 0.50
     Davidson diagonalization with overlap
     ethr =  4.84E-09,  avg # of iterations =  1.0

     total cpu time spent up to now is        6.9 secs

     total energy              =    -501.56299469 Ry
     estimated scf accuracy    <       0.00000105 Ry

     iteration # 18     ecut=    30.00 Ry     beta= 0.50
     Davidson diagonalization with overlap
     ethr =  4.11E-10,  avg # of iterations =  4.0

     total cpu time spent up to now is        7.0 secs

     total energy              =    -501.56299485 Ry
     estimated scf accuracy    <       0.00000227 Ry

     iteration # 19     ecut=    30.00 Ry     beta= 0.50
     Davidson diagonalization with overlap
     ethr =  4.11E-10,  avg # of iterations =  2.0

     total cpu time spent up to now is        7.1 secs

     End of self-consistent calculation

          k = 0.0000 0.0000 0.0000 ( 11168 PWs)   bands (ev):

    -5.2871  -4.3981  -4.2014  -4.1285  -4.0329  -3.9668  -3.8184  -3.3517
    -3.2527  -3.0784  -3.0176  -2.9335  -2.9013  -2.8291  -2.7751  -2.6699
    -2.5885  -2.5456  -2.2533  -2.0434  -1.9754  -1.7627  -1.6976  -1.5668
    -1.4882  -1.4526  -1.3598  -0.8386  -0.6709  -0.6298  -0.4979  -0.4201
    -0.2546  -0.1419  -0.0351   0.0954   0.2201   0.2737   0.2994   0.4162
     0.4488   0.5968   0.6871   0.7179   0.8424   0.8694   0.9028   1.0286
     1.1102   1.2380   1.2989   1.3676   1.4878   1.5552   1.6722   1.7342
     1.7691   1.8915   2.0069   2.0725   2.1268   2.2196   2.3947   2.5766
     2.6716   2.7141   2.7776   2.8471   2.8888   2.9377   3.0134   3.1066
     3.1881   3.2068   3.2958   3.3193   3.4008   3.5820   3.6378   3.7341
     3.8169   4.3379   4.4756   4.5137   4.5821   4.6233   4.7090   4.7710
     4.8528   4.9591   5.0229   5.0718   5.1613   5.2121   5.2876   5.3639
     5.4187   5.4553   5.5560   5.5840   5.6306   5.6866   5.7153   5.7346
     5.7843   5.8540   5.9418   5.9590   6.0808   6.1137   6.1888   6.2244
     6.2770   6.3431   6.3839   6.4114   6.4179   6.5022   6.5479   6.5890
     6.6744   6.7942   6.8470   6.8844   6.9502   6.9647   7.0604   7.1719
     7.2064   7.2315   7.3195   7.3834   7.4031   7.4967   7.5227   7.6443
     7.7101   7.7437   7.7883   7.9268   7.9882   8.0473   8.1177   8.1649
     8.2170   8.3110   8.3679   8.4409   8.4641   8.6357   8.6856   8.7177
     8.7428   8.8394

     the Fermi energy is     7.1610 ev

!    total energy              =    -501.56299493 Ry
     estimated scf accuracy    <       0.00000012 Ry
     smearing contrib. (-TS)   =      -0.14574299 Ry
     internal energy E=F+TS    =    -501.41725194 Ry

     The total energy is F=E-TS. E is the sum of the following terms:
     one-electron contribution =     193.56458131 Ry
     hartree contribution      =      22.26163123 Ry
     xc contribution           =    -150.98183508 Ry
     ewald contribution        =    -566.26162940 Ry

     convergence has been achieved in  19 iterations

     Forces acting on atoms (cartesian axes, Ry/au):

     atom    1 type  1   force =    -0.01468705    0.02202610   -0.02831815
     atom    2 type  1   force =    -0.00206118   -0.00945839    0.01556433
     atom    3 type  1   force =    -0.02450678    0.01510761    0.02557213
     atom    4 type  1   force =    -0.01578615   -0.02220317    0.01888417
     atom    5 type  1   force =    -0.00483557    0.00509398    0.00307220
     atom    6 type  1   force =     0.01503961   -0.00623427   -0.01628437
     atom    7 type  1   force =     0.06488124   -0.01264441    0.09767327
     atom    8 type  1   force =    -0.02915566    0.03948271    0.02528154
     atom    9 type  1   force =    -0.00546607   -0.00363216   -0.00807176
     atom   10 type  1   force =     0.00665363   -0.01876256    0.01251275
     atom   11 type  1   force =     0.02191051    0.01113159   -0.02742018
     atom   12 type  1   force =    -0.00901490    0.00572221   -0.02838418
     atom   13 type  1   force =     0.06877119   -0.01168132   -0.01672014
     atom   14 type  1   force =    -0.04335646   -0.02702025   -0.13709115
     atom   15 type  1   force =    -0.02389390   -0.03101757   -0.01167149
     atom   16 type  1   force =     0.00769569    0.02657451    0.00106741
     atom   17 type  1   force =     0.03343340   -0.02246826   -0.04541696
     atom   18 type  1   force =    -0.00143536    0.00171503   -0.02743785
     atom   19 type  1   force =     0.01711414   -0.01475754   -0.00737118
     atom   20 type  1   force =    -0.01106649   -0.00242040   -0.00254921
     atom   21 type  1   force =     0.00726621    0.01341896    0.00878903
     atom   22 type  1   force =    -0.00398887    0.00410107    0.01642803
     atom   23 type  1   force =    -0.01032076    0.03490600    0.01033370
     atom   24 type  1   force =    -0.00592923   -0.01884325   -0.03546075
     atom   25 type  1   force =     0.01564711    0.01594383    0.00356565
     atom   26 type  1   force =     0.02420066    0.01385914    0.00248004
     atom   27 type  1   force =     0.00492190    0.00590599    0.02729140
     atom   28 type  1   force =    -0.00655851   -0.01351970   -0.00048580
     atom   29 type  1   force =    -0.03757739    0.00126027   -0.00171199
     atom   30 type  1   force =    -0.06011496    0.00672472   -0.00556016
     atom   31 type  1   force =    -0.00743560    0.01080164   -0.00344751
     atom   32 type  1   force =     0.00966774   -0.01258100    0.01616880
     atom   33 type  1   force =    -0.01305947    0.01899087   -0.01801235
     atom   34 type  1   force =    -0.04046042    0.00971215    0.04442236
     atom   35 type  1   force =     0.03390741   -0.03566714    0.01347293
     atom   36 type  1   force =     0.00797923    0.00123917    0.01553600
     atom   37 type  1   force =    -0.01106142    0.01068574    0.01217404
     atom   38 type  1   force =    -0.00857125   -0.00022422    0.01297589
     atom   39 type  1   force =    -0.01966767    0.03271751   -0.01685828
     atom   40 type  1   force =    -0.00125523    0.00613877   -0.01419386
     atom   41 type  1   force =    -0.00389641   -0.01547441    0.00707075
     atom   42 type  1   force =     0.03460196   -0.00781983   -0.00195985
     atom   43 type  1   force =    -0.01905815   -0.02192828   -0.02928812
     atom   44 type  1   force =     0.01821581    0.00094126   -0.01080287
     atom   45 type  1   force =     0.01878964    0.01819752    0.00242122
     atom   46 type  1   force =    -0.01261958    0.00387709    0.02267544
     atom   47 type  1   force =     0.00980881    0.03014165   -0.01961867
     atom   48 type  1   force =    -0.01858396    0.01993910    0.02283256
     atom   49 type  1   force =     0.00092261   -0.02105372    0.02221291
     atom   50 type  1   force =    -0.00303980   -0.03152933    0.01703275
     atom   51 type  1   force =    -0.00869981    0.00056569    0.02315123
     atom   52 type  1   force =    -0.01596755    0.00327583   -0.00581058
     atom   53 type  1   force =     0.00860873   -0.00951620   -0.01136905
     atom   54 type  1   force =     0.01848318   -0.00516284    0.01593152
     atom   55 type  1   force =     0.06306978    0.01167234    0.01590088
     atom   56 type  1   force =    -0.03477989   -0.00267257   -0.00441090
     atom   57 type  1   force =    -0.01433453   -0.04551094   -0.02217508
     atom   58 type  1   force =    -0.01981275   -0.02817504   -0.01190029
     atom   59 type  1   force =     0.00632465    0.00667781   -0.01704956
     atom   60 type  1   force =     0.01294423    0.00283345    0.04603683
     atom   61 type  1   force =     0.00011139    0.03605054    0.00628188
     atom   62 type  1   force =    -0.01256635    0.01182886    0.03234329
     atom   63 type  1   force =     0.01289534   -0.01881721   -0.01456840
     atom   64 type  1   force =     0.03075935    0.01153527   -0.01573624

     Total force =     0.331441     Total SCF correction =     0.000678


     Computing stress (Cartesian axis) and pressure

          total   stress  (Ry/bohr**3)                   (kbar)     P=      -28.92
  -0.00022738  -0.00000131  -0.00000873          -33.45       -0.19       -1.28
  -0.00000131  -0.00024543   0.00000076           -0.19      -36.10        0.11
  -0.00000873   0.00000076  -0.00011696           -1.28        0.11      -17.20

 
     init_run     :      1.07s CPU      4.95s WALL (       1 calls)
     electrons    :      1.93s CPU      2.10s WALL (       1 calls)
     forces       :      0.04s CPU      0.04s WALL (       1 calls)
     stress       :      0.15s CPU      0.16s WALL (       1 calls)

     Called by init_run:
     wfcinit      :      0.53s CPU      4.24s WALL (       1 calls)
                                        4.24s GPU  (       1 calls)
     potinit      :      0.05s CPU      0.14s WALL (       1 calls)
     hinit0       :      0.47s CPU      0.50s WALL (       1 calls)

     Called by electrons:
     c_bands      :      1.12s CPU      1.20s WALL (      20 calls)
     sum_band     :      0.39s CPU      0.44s WALL (      20 calls)
     v_of_rho     :      0.18s CPU      0.29s WALL (      20 calls)
     mix_rho      :      0.19s CPU      0.20s WALL (      20 calls)

     Called by c_bands:
     init_us_2    :      0.07s CPU      0.08s WALL (      41 calls)
     init_us_2:gp :      0.07s CPU      0.07s WALL (      41 calls)
     regterg      :      0.95s CPU      1.02s WALL (      20 calls)

     Called by *egterg:
     rdiaghg      :      0.36s CPU      1.14s WALL (      77 calls)
                                        1.12s GPU  (      77 calls)
     h_psi        :      0.94s CPU      3.92s WALL (      79 calls)
                                        3.92s GPU  (      79 calls)
     g_psi        :      0.00s CPU      0.00s WALL (      58 calls)
                                        0.00s GPU  (      58 calls)

     Called by h_psi:
     h_psi:calbec :      0.51s CPU      3.41s WALL (      79 calls)
                                        3.41s GPU  (      79 calls)
     vloc_psi     :      0.39s CPU      0.46s WALL (      79 calls)
                                        0.46s GPU  (      79 calls)
     add_vuspsi   :      0.03s CPU      0.04s WALL (      79 calls)
                                        0.04s GPU  (      79 calls)

     General routines
     calbec       :      0.51s CPU      3.41s WALL (      84 calls)
     fft          :      0.63s CPU      0.76s WALL (     167 calls)
                                        0.13s GPU  (     106 calls)
     ffts         :      0.05s CPU      0.05s WALL (      20 calls)
     fftw         :      0.47s CPU      0.62s WALL (    2080 calls)
                                        0.54s GPU  (    2080 calls)
 
     Parallel routines
 
     PWSCF        :      3.23s CPU      7.33s WALL

 
   This run was terminated on:  10:53:39  10May2023            

=------------------------------------------------------------------------------=
   JOB DONE.
=------------------------------------------------------------------------------=
