An instance of this daemon is already running
An instance of this daemon is already running

     Program PWSCF v.7.1 starts on 10May2023 at 10:45:36 

     This program is part of the open-source Quantum ESPRESSO suite
     for quantum simulation of materials; please cite
         "P. Giannozzi et al., J. Phys.:Condens. Matter 21 395502 (2009);
         "P. Giannozzi et al., J. Phys.:Condens. Matter 29 465901 (2017);
         "P. Giannozzi et al., J. Chem. Phys. 152 154105 (2020);
          URL http://www.quantum-espresso.org", 
     in publications or presentations arising from this work. More details at
     http://www.quantum-espresso.org/quote

     Parallel version (MPI & OpenMP), running on       4 processor cores
     Number of MPI processes:                 4
     Threads/MPI process:                     1

     MPI processes distributed on     1 nodes
     753566 MiB available memory on the printing compute node when the environment starts
 
     Reading input from pw-si-50.in
Warning: card &CELL ignored
Warning: card / ignored

     Current dimensions of program PWSCF are:
     Max number of different atomic species (ntypx) = 10
     Max number of k-points (npk) =  40000
     Max angular momentum in pseudopotentials (lmaxx) =  4

     IMPORTANT: XC functional enforced from input :
     Exchange-correlation= PBE
                           (   1   4   3   4   0   0   0)
     Any further DFT definition will be discarded
     Please, verify this is what you really want


     gamma-point specific algorithms are used
 
     K-points division:     npool     =       2
     R & G space division:  proc/nbgrp/npool/nimage =       2
     Subspace diagonalization in iterative solution of the eigenvalue problem:
     a serial algorithm will be used

     Message from routine divide_et_impera:
     suboptimal parallelization: some nodes have no k-points
 
     Parallelization info
     --------------------
     sticks:   dense  smooth     PW     G-vecs:    dense   smooth      PW
     Min        1929    1929    504                90087    90087   12201
     Max        1932    1932    505                90092    90092   12204
     Sum        3861    3861   1009               180179   180179   24405
 
     Using Slab Decomposition
 


     bravais-lattice index     =            0
     lattice parameter (alat)  =      20.0993  a.u.
     unit-cell volume          =    8119.6933 (a.u.)^3
     number of atoms/cell      =           64
     number of atomic types    =            1
     number of electrons       =       256.00
     number of Kohn-Sham states=          154
     kinetic-energy cutoff     =      30.0000  Ry
     charge density cutoff     =     120.0000  Ry
     scf convergence threshold =      1.0E-06
     mixing beta               =       0.5000
     number of iterations used =            8  plain     mixing
     Exchange-correlation= PBE
                           (   1   4   3   4   0   0   0)

     GPU acceleration is ACTIVE.
     GPU-aware MPI enabled

     Message from routine print_cuda_info:
     High GPU oversubscription detected. Are you sure this is what you want?

     celldm(1)=  20.099251  celldm(2)=   0.000000  celldm(3)=   0.000000
     celldm(4)=   0.000000  celldm(5)=   0.000000  celldm(6)=   0.000000

     crystal axes: (cart. coord. in units of alat)
               a(1) = (   1.000000   0.000000   0.000000 )  
               a(2) = (   0.000000   1.000000   0.000000 )  
               a(3) = (   0.000000   0.000000   1.000000 )  

     reciprocal axes: (cart. coord. in units 2 pi/alat)
               b(1) = (  1.000000  0.000000  0.000000 )  
               b(2) = (  0.000000  1.000000  0.000000 )  
               b(3) = (  0.000000  0.000000  1.000000 )  


     PseudoPot. # 1 for Si read from file:
     /home/ppiaggi/pseudos/Si_ONCV_PBE_sr.upf
     MD5 check sum: 8553c464762ac42b85b1eed164b4d029
     Pseudo is Norm-conserving, Zval =  4.0
     Generated using ONCVPSP code by D. R. Hamann
     Using radial grid of 1510 points,  4 beta functions with: 
                l(1) =   0
                l(2) =   0
                l(3) =   1
                l(4) =   1

     atomic species   valence    mass     pseudopotential
        Si             4.00    28.08500     Si( 1.00)

     No symmetry found



   Cartesian axes

     site n.     atom                  positions (alat units)
         1           Si  tau(   1) = (   0.4964630   0.5655020   0.4196130  )
         2           Si  tau(   2) = (   0.0257684   0.6817270   0.9411970  )
         3           Si  tau(   3) = (   0.4140010   0.1737590   0.9264310  )
         4           Si  tau(   4) = (   0.8365140   0.1136520   0.4212620  )
         5           Si  tau(   5) = (   0.0860288   0.2525070   0.6712260  )
         6           Si  tau(   6) = (   0.0872680   0.4169050   0.8294040  )
         7           Si  tau(   7) = (   0.7247160   0.2635520   0.2666310  )
         8           Si  tau(   8) = (   0.6747770   0.7084620   0.2445760  )
         9           Si  tau(   9) = (   0.7630320   0.9156720   0.9373910  )
        10           Si  tau(  10) = (   0.9098170   0.8116020   0.7858180  )
        11           Si  tau(  11) = (   0.2146900   0.1024930   0.8045290  )
        12           Si  tau(  12) = (   0.4663870   0.3545670   0.1652200  )
        13           Si  tau(  13) = (   0.9523800   0.5788390   0.3915080  )
        14           Si  tau(  14) = (   0.2169680   0.1263320   0.3638890  )
        15           Si  tau(  15) = (   0.0362507   0.5799810   0.1640380  )
        16           Si  tau(  16) = (   0.7753790   0.6159850   0.7631380  )
        17           Si  tau(  17) = (   0.3268520   0.4700210   0.9778450  )
        18           Si  tau(  18) = (   0.6269070   0.0502087   0.0889074  )
        19           Si  tau(  19) = (   0.4685940   0.3543770   0.7856340  )
        20           Si  tau(  20) = (   0.4966490   0.6079860   0.0913022  )
        21           Si  tau(  21) = (   0.6404860   0.2952530   0.6312290  )
        22           Si  tau(  22) = (   0.8067910   0.8491070   0.5987810  )
        23           Si  tau(  23) = (   0.9132020   0.0658298   0.1049880  )
        24           Si  tau(  24) = (   0.9775670   0.0514928   0.6140950  )
        25           Si  tau(  25) = (   0.2575500   0.7335500   0.8844390  )
        26           Si  tau(  26) = (   0.5345600   0.2684700   0.3924590  )
        27           Si  tau(  27) = (   0.8610750   0.4196200   0.8540920  )
        28           Si  tau(  28) = (   0.6817230   0.0469572   0.5965460  )
        29           Si  tau(  29) = (   0.6398090   0.2703310   0.0454350  )
        30           Si  tau(  30) = (   0.5849690   0.7075980   0.5963450  )
        31           Si  tau(  31) = (   0.1819020   0.7736780   0.2083740  )
        32           Si  tau(  32) = (   0.2821380   0.7822130   0.4271300  )
        33           Si  tau(  33) = (   0.9336440   0.0785183   0.8418870  )
        34           Si  tau(  34) = (   0.2156640   0.5810400   0.5052060  )
        35           Si  tau(  35) = (   0.1486240   0.9011000   0.6795760  )
        36           Si  tau(  36) = (   0.0923087   0.9207310   0.4058430  )
        37           Si  tau(  37) = (   0.4302840   0.9794890   0.1471380  )
        38           Si  tau(  38) = (   0.1549760   0.9933780   0.1642520  )
        39           Si  tau(  39) = (   0.8526880   0.7820630   0.0987186  )
        40           Si  tau(  40) = (   0.1888340   0.4110950   0.2120640  )
        41           Si  tau(  41) = (   0.5035040   0.0283266   0.7902910  )
        42           Si  tau(  42) = (   0.5237840   0.0435971   0.4259480  )
        43           Si  tau(  43) = (   0.1244000   0.9468940   0.9454140  )
        44           Si  tau(  44) = (   0.8536430   0.4805120   0.1000910  )
        45           Si  tau(  45) = (   0.5066940   0.6249480   0.8099860  )
        46           Si  tau(  46) = (   0.7417960   0.5001900   0.3447260  )
        47           Si  tau(  47) = (   0.3140630   0.3013470   0.6279180  )
        48           Si  tau(  48) = (   0.8826720   0.7956130   0.3925490  )
        49           Si  tau(  49) = (   0.5067290   0.8311170   0.3376550  )
        50           Si  tau(  50) = (   0.3219780   0.0979122   0.5383130  )
        51           Si  tau(  51) = (   0.9964690   0.4592460   0.5852950  )
        52           Si  tau(  52) = (   0.3943670   0.8507440   0.6395650  )
        53           Si  tau(  53) = (   0.0895889   0.2452540   0.9907050  )
        54           Si  tau(  54) = (   0.5357350   0.8471390   0.9084320  )
        55           Si  tau(  55) = (   0.7297380   0.1924130   0.8221460  )
        56           Si  tau(  56) = (   0.7591580   0.9667030   0.2676120  )
        57           Si  tau(  57) = (   0.0344142   0.2874320   0.3859880  )
        58           Si  tau(  58) = (   0.3184940   0.4079300   0.4304210  )
        59           Si  tau(  59) = (   0.3621220   0.7729290   0.0732934  )
        60           Si  tau(  60) = (   0.9407990   0.2780760   0.1564070  )
        61           Si  tau(  61) = (   0.6992500   0.6286350   0.9941260  )
        62           Si  tau(  62) = (   0.2773430   0.5388970   0.7212990  )
        63           Si  tau(  63) = (   0.2797650   0.1984050   0.1056380  )
        64           Si  tau(  64) = (   0.7574850   0.4790140   0.5759170  )

     number of k points=     1  Fermi-Dirac smearing, width (Ry)=  0.0100
                       cart. coord. in units 2pi/alat
        k(    1) = (   0.0000000   0.0000000   0.0000000), wk =   2.0000000

     Dense  grid:    90090 G-vectors     FFT dimensions: (  72,  72,  72)

     Estimated max dynamical RAM per process >     144.74 MB

     Estimated total dynamical RAM >     556.97 MB

     Initial potential from superposition of free atoms

     starting charge     255.9608, renormalised to     256.0000
     Starting wfcs are  256 randomized atomic wfcs

     total cpu time spent up to now is        5.0 secs

     Self-consistent Calculation

     iteration #  1     ecut=    30.00 Ry     beta= 0.50
     Davidson diagonalization with overlap
     ethr =  1.00E-02,  avg # of iterations =  3.0

     Threshold (ethr) on eigenvalues was too large:
     Diagonalizing with lowered threshold

     Davidson diagonalization with overlap
     ethr =  3.73E-04,  avg # of iterations =  5.0

     total cpu time spent up to now is        5.3 secs

     total energy              =    -501.24367742 Ry
     estimated scf accuracy    <       1.15186946 Ry

     iteration #  2     ecut=    30.00 Ry     beta= 0.50
     Davidson diagonalization with overlap
     ethr =  4.50E-04,  avg # of iterations =  5.0

     total cpu time spent up to now is        5.4 secs

     total energy              =    -500.84901349 Ry
     estimated scf accuracy    <       4.45477947 Ry

     iteration #  3     ecut=    30.00 Ry     beta= 0.50
     Davidson diagonalization with overlap
     ethr =  4.50E-04,  avg # of iterations =  5.0

     total cpu time spent up to now is        5.5 secs

     total energy              =    -501.27060939 Ry
     estimated scf accuracy    <       2.28971883 Ry

     iteration #  4     ecut=    30.00 Ry     beta= 0.50
     Davidson diagonalization with overlap
     ethr =  4.50E-04,  avg # of iterations =  2.0

     total cpu time spent up to now is        5.6 secs

     total energy              =    -501.43365325 Ry
     estimated scf accuracy    <       0.42578408 Ry

     iteration #  5     ecut=    30.00 Ry     beta= 0.50
     Davidson diagonalization with overlap
     ethr =  1.66E-04,  avg # of iterations =  2.0

     total cpu time spent up to now is        5.7 secs

     total energy              =    -501.47015718 Ry
     estimated scf accuracy    <       0.12999262 Ry

     iteration #  6     ecut=    30.00 Ry     beta= 0.50
     Davidson diagonalization with overlap
     ethr =  5.08E-05,  avg # of iterations =  3.0

     total cpu time spent up to now is        5.8 secs

     total energy              =    -501.47931139 Ry
     estimated scf accuracy    <       0.16649387 Ry

     iteration #  7     ecut=    30.00 Ry     beta= 0.50
     Davidson diagonalization with overlap
     ethr =  5.08E-05,  avg # of iterations =  2.0

     total cpu time spent up to now is        5.9 secs

     total energy              =    -501.49253816 Ry
     estimated scf accuracy    <       0.01378205 Ry

     iteration #  8     ecut=    30.00 Ry     beta= 0.50
     Davidson diagonalization with overlap
     c_bands:  1 eigenvalues not converged
     ethr =  5.38E-06,  avg # of iterations = 20.0

     total cpu time spent up to now is        6.1 secs

     total energy              =    -501.49360208 Ry
     estimated scf accuracy    <       0.02296114 Ry

     iteration #  9     ecut=    30.00 Ry     beta= 0.50
     Davidson diagonalization with overlap
     ethr =  5.38E-06,  avg # of iterations =  3.0

     total cpu time spent up to now is        6.3 secs

     total energy              =    -501.49546185 Ry
     estimated scf accuracy    <       0.00245679 Ry

     iteration # 10     ecut=    30.00 Ry     beta= 0.50
     Davidson diagonalization with overlap
     ethr =  9.60E-07,  avg # of iterations =  2.0

     total cpu time spent up to now is        6.4 secs

     total energy              =    -501.49572740 Ry
     estimated scf accuracy    <       0.00077301 Ry

     iteration # 11     ecut=    30.00 Ry     beta= 0.50
     Davidson diagonalization with overlap
     ethr =  3.02E-07,  avg # of iterations =  2.0

     total cpu time spent up to now is        6.4 secs

     total energy              =    -501.49578766 Ry
     estimated scf accuracy    <       0.00028211 Ry

     iteration # 12     ecut=    30.00 Ry     beta= 0.50
     Davidson diagonalization with overlap
     ethr =  1.10E-07,  avg # of iterations =  4.0

     total cpu time spent up to now is        6.6 secs

     total energy              =    -501.49580580 Ry
     estimated scf accuracy    <       0.00046168 Ry

     iteration # 13     ecut=    30.00 Ry     beta= 0.50
     Davidson diagonalization with overlap
     ethr =  1.10E-07,  avg # of iterations =  2.0

     total cpu time spent up to now is        6.7 secs

     total energy              =    -501.49583743 Ry
     estimated scf accuracy    <       0.00005856 Ry

     iteration # 14     ecut=    30.00 Ry     beta= 0.50
     Davidson diagonalization with overlap
     ethr =  2.29E-08,  avg # of iterations =  3.0

     total cpu time spent up to now is        6.8 secs

     total energy              =    -501.49584374 Ry
     estimated scf accuracy    <       0.00003016 Ry

     iteration # 15     ecut=    30.00 Ry     beta= 0.50
     Davidson diagonalization with overlap
     ethr =  1.18E-08,  avg # of iterations =  2.0

     total cpu time spent up to now is        6.9 secs

     total energy              =    -501.49584490 Ry
     estimated scf accuracy    <       0.00001040 Ry

     iteration # 16     ecut=    30.00 Ry     beta= 0.50
     Davidson diagonalization with overlap
     ethr =  4.06E-09,  avg # of iterations =  3.0

     total cpu time spent up to now is        7.0 secs

     total energy              =    -501.49584619 Ry
     estimated scf accuracy    <       0.00001223 Ry

     iteration # 17     ecut=    30.00 Ry     beta= 0.50
     Davidson diagonalization with overlap
     ethr =  4.06E-09,  avg # of iterations =  2.0

     total cpu time spent up to now is        7.0 secs

     total energy              =    -501.49584686 Ry
     estimated scf accuracy    <       0.00000108 Ry

     iteration # 18     ecut=    30.00 Ry     beta= 0.50
     Davidson diagonalization with overlap
     ethr =  4.21E-10,  avg # of iterations =  4.0

     total cpu time spent up to now is        7.2 secs

     total energy              =    -501.49584700 Ry
     estimated scf accuracy    <       0.00000155 Ry

     iteration # 19     ecut=    30.00 Ry     beta= 0.50
     Davidson diagonalization with overlap
     ethr =  4.21E-10,  avg # of iterations =  2.0

     total cpu time spent up to now is        7.2 secs

     End of self-consistent calculation

          k = 0.0000 0.0000 0.0000 ( 11288 PWs)   bands (ev):

    -5.3351  -4.4098  -4.2154  -4.1851  -4.1315  -4.0209  -3.9837  -3.2852
    -3.1307  -3.1213  -3.1026  -2.9889  -2.9234  -2.8655  -2.8514  -2.7390
    -2.6656  -2.6003  -2.5644  -2.0108  -1.9592  -1.7670  -1.6081  -1.5482
    -1.5423  -1.5142  -1.3528  -0.8389  -0.8076  -0.6867  -0.5486  -0.5001
    -0.2051  -0.1273  -0.0854   0.0263   0.2229   0.2450   0.3530   0.4290
     0.5101   0.5861   0.6791   0.7206   0.7732   0.8380   0.8686   0.9784
     1.1008   1.1300   1.1695   1.2427   1.3214   1.3676   1.5200   1.5610
     1.6566   1.8677   2.1123   2.1441   2.2529   2.3320   2.4470   2.5564
     2.6051   2.6964   2.7355   2.8264   2.9069   2.9346   2.9910   3.1180
     3.1281   3.1808   3.2970   3.3699   3.4621   3.4873   3.5068   3.7424
     3.8978   4.1331   4.2546   4.2804   4.3188   4.4513   4.4735   4.6496
     4.7149   4.7570   4.8184   4.9556   5.0111   5.1061   5.2048   5.2195
     5.3626   5.4258   5.4751   5.5182   5.6039   5.6762   5.7270   5.7355
     5.8119   5.8645   5.9511   5.9927   6.0513   6.0702   6.1225   6.2033
     6.3289   6.3415   6.4066   6.4565   6.5582   6.6224   6.6550   6.6947
     6.7043   6.7942   6.8657   6.8932   6.9569   6.9684   7.0498   7.0916
     7.1836   7.2926   7.3170   7.3300   7.4401   7.5165   7.5769   7.6156
     7.6465   7.7036   7.7616   7.8553   7.9129   7.9864   8.0240   8.1242
     8.2017   8.2225   8.3252   8.4678   8.4943   8.5624   8.6307   8.6737
     8.7076   8.7878

     the Fermi energy is     7.1579 ev

!    total energy              =    -501.49584703 Ry
     estimated scf accuracy    <       0.00000013 Ry
     smearing contrib. (-TS)   =      -0.15106256 Ry
     internal energy E=F+TS    =    -501.34478447 Ry

     The total energy is F=E-TS. E is the sum of the following terms:
     one-electron contribution =     190.68951399 Ry
     hartree contribution      =      23.20583720 Ry
     xc contribution           =    -150.76972738 Ry
     ewald contribution        =    -564.47040828 Ry

     convergence has been achieved in  19 iterations

     Forces acting on atoms (cartesian axes, Ry/au):

     atom    1 type  1   force =     0.02390212    0.01383027   -0.00011692
     atom    2 type  1   force =     0.00522066    0.01204746    0.00499248
     atom    3 type  1   force =     0.00068361    0.02828875   -0.00774119
     atom    4 type  1   force =     0.01202037    0.02253977    0.01146328
     atom    5 type  1   force =     0.02838512   -0.01016308   -0.00866168
     atom    6 type  1   force =    -0.00041590    0.01391962    0.00239437
     atom    7 type  1   force =     0.01881815    0.03301746    0.00588528
     atom    8 type  1   force =    -0.00031707   -0.01048419   -0.01046137
     atom    9 type  1   force =    -0.01873500    0.00512843    0.02799536
     atom   10 type  1   force =     0.02168367   -0.01818049    0.01470530
     atom   11 type  1   force =    -0.00530911   -0.00098866   -0.01153737
     atom   12 type  1   force =    -0.01697207    0.02163258   -0.00435695
     atom   13 type  1   force =     0.01310366    0.02650763   -0.04143449
     atom   14 type  1   force =    -0.09415946    0.00789183   -0.06730045
     atom   15 type  1   force =     0.03229218    0.04437730    0.05550563
     atom   16 type  1   force =    -0.01904127   -0.00347271   -0.00428510
     atom   17 type  1   force =     0.00866337    0.00449953   -0.01196525
     atom   18 type  1   force =     0.04135940   -0.00215238   -0.01438934
     atom   19 type  1   force =    -0.01960184    0.01362389    0.00123309
     atom   20 type  1   force =     0.02950130   -0.06941012    0.01630041
     atom   21 type  1   force =    -0.01579542   -0.01315591    0.00327354
     atom   22 type  1   force =    -0.04236595    0.00428158   -0.03148089
     atom   23 type  1   force =     0.01117834   -0.02318543   -0.01083705
     atom   24 type  1   force =     0.00720822    0.00898619   -0.01272133
     atom   25 type  1   force =    -0.02966153   -0.01417095   -0.02776510
     atom   26 type  1   force =    -0.01692014    0.01410453    0.00869614
     atom   27 type  1   force =     0.00235357    0.00146649    0.03117368
     atom   28 type  1   force =    -0.00287463    0.01517920   -0.00502379
     atom   29 type  1   force =    -0.00436217   -0.03106557   -0.02258795
     atom   30 type  1   force =    -0.00298273   -0.00868076    0.01527388
     atom   31 type  1   force =    -0.00968816   -0.02399865    0.02321346
     atom   32 type  1   force =    -0.00374648   -0.00645127   -0.00077208
     atom   33 type  1   force =     0.00931058   -0.01284087    0.04102083
     atom   34 type  1   force =    -0.03178860    0.03810339    0.03785045
     atom   35 type  1   force =     0.00790946    0.01346333    0.00281581
     atom   36 type  1   force =    -0.00685722   -0.00123850    0.01322896
     atom   37 type  1   force =    -0.02700633   -0.04664476    0.02526218
     atom   38 type  1   force =    -0.01115737    0.02545542    0.01148731
     atom   39 type  1   force =    -0.01362297   -0.01699218   -0.00722253
     atom   40 type  1   force =     0.00518966   -0.01980372    0.00906470
     atom   41 type  1   force =     0.02408983   -0.02055295   -0.04503655
     atom   42 type  1   force =    -0.00983053   -0.01186804    0.02400905
     atom   43 type  1   force =    -0.02036841   -0.02400946   -0.02235353
     atom   44 type  1   force =    -0.02693881   -0.02941744   -0.03787739
     atom   45 type  1   force =    -0.00278034   -0.00508756   -0.02044424
     atom   46 type  1   force =    -0.02682348   -0.00270481   -0.01576658
     atom   47 type  1   force =    -0.02304774   -0.01952361    0.00543844
     atom   48 type  1   force =     0.03387783    0.01506788    0.01219363
     atom   49 type  1   force =    -0.02850614    0.02390111   -0.02001291
     atom   50 type  1   force =     0.06668165   -0.04365763    0.05882313
     atom   51 type  1   force =     0.01404468   -0.00366695   -0.02058070
     atom   52 type  1   force =    -0.01245115    0.00996306   -0.00324491
     atom   53 type  1   force =     0.00716884    0.01218198   -0.03076971
     atom   54 type  1   force =     0.03039534   -0.01433239    0.02481798
     atom   55 type  1   force =    -0.00357098    0.02859057    0.00263096
     atom   56 type  1   force =     0.02272368   -0.00844575   -0.00934210
     atom   57 type  1   force =     0.00528224   -0.01935343   -0.01629293
     atom   58 type  1   force =     0.03098230   -0.02381658   -0.04998515
     atom   59 type  1   force =     0.00633464    0.05532879    0.00812812
     atom   60 type  1   force =    -0.00250428    0.01597685    0.03336388
     atom   61 type  1   force =     0.01427080    0.00867960   -0.00670160
     atom   62 type  1   force =     0.00110132    0.00489007    0.03731518
     atom   63 type  1   force =     0.00656388    0.01037071    0.01869782
     atom   64 type  1   force =     0.00790283    0.00622151    0.01081483

     Total force =     0.321709     Total SCF correction =     0.000701


     Computing stress (Cartesian axis) and pressure

          total   stress  (Ry/bohr**3)                   (kbar)     P=      -36.09
  -0.00026872  -0.00003476  -0.00000490          -39.53       -5.11       -0.72
  -0.00003476  -0.00025482  -0.00001783           -5.11      -37.49       -2.62
  -0.00000490  -0.00001783  -0.00021247           -0.72       -2.62      -31.26

 
     init_run     :      1.10s CPU      4.93s WALL (       1 calls)
     electrons    :      2.10s CPU      2.25s WALL (       1 calls)
     forces       :      0.03s CPU      0.04s WALL (       1 calls)
     stress       :      0.15s CPU      0.15s WALL (       1 calls)

     Called by init_run:
     wfcinit      :      0.56s CPU      4.21s WALL (       1 calls)
                                        4.21s GPU  (       1 calls)
     potinit      :      0.05s CPU      0.14s WALL (       1 calls)
     hinit0       :      0.47s CPU      0.50s WALL (       1 calls)

     Called by electrons:
     c_bands      :      1.27s CPU      1.34s WALL (      20 calls)
     sum_band     :      0.41s CPU      0.45s WALL (      20 calls)
     v_of_rho     :      0.20s CPU      0.30s WALL (      20 calls)
     mix_rho      :      0.19s CPU      0.21s WALL (      20 calls)

     Called by c_bands:
     init_us_2    :      0.07s CPU      0.08s WALL (      41 calls)
     init_us_2:gp :      0.07s CPU      0.07s WALL (      41 calls)
     regterg      :      1.09s CPU      1.15s WALL (      20 calls)

     Called by *egterg:
     rdiaghg      :      0.46s CPU      1.22s WALL (      95 calls)
                                        1.20s GPU  (      95 calls)
     h_psi        :      0.99s CPU      3.92s WALL (      97 calls)
                                        3.92s GPU  (      97 calls)
     g_psi        :      0.00s CPU      0.00s WALL (      76 calls)
                                        0.00s GPU  (      76 calls)

     Called by h_psi:
     h_psi:calbec :      0.52s CPU      3.38s WALL (      97 calls)
                                        3.38s GPU  (      97 calls)
     vloc_psi     :      0.41s CPU      0.48s WALL (      97 calls)
                                        0.47s GPU  (      97 calls)
     add_vuspsi   :      0.04s CPU      0.06s WALL (      97 calls)
                                        0.05s GPU  (      97 calls)

     General routines
     calbec       :      0.53s CPU      3.39s WALL (     102 calls)
     fft          :      0.64s CPU      0.77s WALL (     167 calls)
                                        0.14s GPU  (     106 calls)
     ffts         :      0.05s CPU      0.05s WALL (      20 calls)
     fftw         :      0.50s CPU      0.64s WALL (    2114 calls)
                                        0.56s GPU  (    2114 calls)
 
     Parallel routines
 
     PWSCF        :      3.43s CPU      7.45s WALL

 
   This run was terminated on:  10:45:43  10May2023            

=------------------------------------------------------------------------------=
   JOB DONE.
=------------------------------------------------------------------------------=
