An instance of this daemon is already running
An instance of this daemon is already running

     Program PWSCF v.7.1 starts on 10May2023 at 10:52:14 

     This program is part of the open-source Quantum ESPRESSO suite
     for quantum simulation of materials; please cite
         "P. Giannozzi et al., J. Phys.:Condens. Matter 21 395502 (2009);
         "P. Giannozzi et al., J. Phys.:Condens. Matter 29 465901 (2017);
         "P. Giannozzi et al., J. Chem. Phys. 152 154105 (2020);
          URL http://www.quantum-espresso.org", 
     in publications or presentations arising from this work. More details at
     http://www.quantum-espresso.org/quote

     Parallel version (MPI & OpenMP), running on       4 processor cores
     Number of MPI processes:                 4
     Threads/MPI process:                     1

     MPI processes distributed on     1 nodes
     753536 MiB available memory on the printing compute node when the environment starts
 
     Reading input from pw-si-91.in
Warning: card &CELL ignored
Warning: card / ignored

     Current dimensions of program PWSCF are:
     Max number of different atomic species (ntypx) = 10
     Max number of k-points (npk) =  40000
     Max angular momentum in pseudopotentials (lmaxx) =  4

     IMPORTANT: XC functional enforced from input :
     Exchange-correlation= PBE
                           (   1   4   3   4   0   0   0)
     Any further DFT definition will be discarded
     Please, verify this is what you really want


     gamma-point specific algorithms are used
 
     K-points division:     npool     =       2
     R & G space division:  proc/nbgrp/npool/nimage =       2
     Subspace diagonalization in iterative solution of the eigenvalue problem:
     a serial algorithm will be used

     Message from routine divide_et_impera:
     suboptimal parallelization: some nodes have no k-points
 
     Parallelization info
     --------------------
     sticks:   dense  smooth     PW     G-vecs:    dense   smooth      PW
     Min        1908    1908    502                89100    89100   12102
     Max        1909    1909    503                89105    89105   12105
     Sum        3817    3817   1005               178205   178205   24207
 
     Using Slab Decomposition
 


     bravais-lattice index     =            0
     lattice parameter (alat)  =      20.0197  a.u.
     unit-cell volume          =    8023.6440 (a.u.)^3
     number of atoms/cell      =           64
     number of atomic types    =            1
     number of electrons       =       256.00
     number of Kohn-Sham states=          154
     kinetic-energy cutoff     =      30.0000  Ry
     charge density cutoff     =     120.0000  Ry
     scf convergence threshold =      1.0E-06
     mixing beta               =       0.5000
     number of iterations used =            8  plain     mixing
     Exchange-correlation= PBE
                           (   1   4   3   4   0   0   0)

     GPU acceleration is ACTIVE.
     GPU-aware MPI enabled

     Message from routine print_cuda_info:
     High GPU oversubscription detected. Are you sure this is what you want?

     celldm(1)=  20.019684  celldm(2)=   0.000000  celldm(3)=   0.000000
     celldm(4)=   0.000000  celldm(5)=   0.000000  celldm(6)=   0.000000

     crystal axes: (cart. coord. in units of alat)
               a(1) = (   1.000000   0.000000   0.000000 )  
               a(2) = (   0.000000   1.000000   0.000000 )  
               a(3) = (   0.000000   0.000000   1.000000 )  

     reciprocal axes: (cart. coord. in units 2 pi/alat)
               b(1) = (  1.000000  0.000000  0.000000 )  
               b(2) = (  0.000000  1.000000  0.000000 )  
               b(3) = (  0.000000  0.000000  1.000000 )  


     PseudoPot. # 1 for Si read from file:
     /home/ppiaggi/pseudos/Si_ONCV_PBE_sr.upf
     MD5 check sum: 8553c464762ac42b85b1eed164b4d029
     Pseudo is Norm-conserving, Zval =  4.0
     Generated using ONCVPSP code by D. R. Hamann
     Using radial grid of 1510 points,  4 beta functions with: 
                l(1) =   0
                l(2) =   0
                l(3) =   1
                l(4) =   1

     atomic species   valence    mass     pseudopotential
        Si             4.00    28.08500     Si( 1.00)

     No symmetry found



   Cartesian axes

     site n.     atom                  positions (alat units)
         1           Si  tau(   1) = (   0.5368810   0.4965360   0.9861350  )
         2           Si  tau(   2) = (   0.4194410   0.2389390   0.8779240  )
         3           Si  tau(   3) = (   0.5259900   0.8680000   0.3144460  )
         4           Si  tau(   4) = (   0.4021820   0.6833150   0.0156131  )
         5           Si  tau(   5) = (   0.3801410   0.9161090   0.9822470  )
         6           Si  tau(   6) = (   0.0028506   0.9167920   0.7439580  )
         7           Si  tau(   7) = (   0.8355960   0.1291930   0.0657081  )
         8           Si  tau(   8) = (   0.2799730   0.8636090   0.2650840  )
         9           Si  tau(   9) = (   0.7519440   0.4257150   0.7644490  )
        10           Si  tau(  10) = (   0.0844338   0.0938346   0.9119070  )
        11           Si  tau(  11) = (   0.3165620   0.5849490   0.4697530  )
        12           Si  tau(  12) = (   0.5147410   0.0949059   0.1767040  )
        13           Si  tau(  13) = (   0.7409770   0.3319950   0.9721750  )
        14           Si  tau(  14) = (   0.6503440   0.1675360   0.8445450  )
        15           Si  tau(  15) = (   0.9741650   0.2874220   0.8945220  )
        16           Si  tau(  16) = (   0.5927310   0.7030410   0.1813720  )
        17           Si  tau(  17) = (   0.2013840   0.8611150   0.5000310  )
        18           Si  tau(  18) = (   0.5881470   0.5543540   0.3654280  )
        19           Si  tau(  19) = (   0.3572050   0.0145251   0.7850640  )
        20           Si  tau(  20) = (   0.7869310   0.9064720   0.2931060  )
        21           Si  tau(  21) = (   0.0316607   0.8842880   0.2481830  )
        22           Si  tau(  22) = (   0.1582350   0.3329000   0.5451290  )
        23           Si  tau(  23) = (   0.7989910   0.7004370   0.3535080  )
        24           Si  tau(  24) = (   0.1421700   0.3833400   0.0030764  )
        25           Si  tau(  25) = (   0.2804880   0.6177250   0.1995770  )
        26           Si  tau(  26) = (   0.6980380   0.6737880   0.9172450  )
        27           Si  tau(  27) = (   0.4887420   0.4568710   0.7521600  )
        28           Si  tau(  28) = (   0.1614920   0.6144370   0.6116060  )
        29           Si  tau(  29) = (   0.3914710   0.0688920   0.4276980  )
        30           Si  tau(  30) = (   0.2117210   0.0635304   0.0895142  )
        31           Si  tau(  31) = (   0.8904190   0.4135540   0.2867240  )
        32           Si  tau(  32) = (   0.7683400   0.9841810   0.7663130  )
        33           Si  tau(  33) = (   0.8832930   0.5919800   0.7982040  )
        34           Si  tau(  34) = (   0.9800860   0.0947442   0.3543960  )
        35           Si  tau(  35) = (   0.2304690   0.3544600   0.7619580  )
        36           Si  tau(  36) = (   0.6155040   0.6306200   0.6339500  )
        37           Si  tau(  37) = (   0.8268480   0.6549900   0.5813320  )
        38           Si  tau(  38) = (   0.7428950   0.8465310   0.0750214  )
        39           Si  tau(  39) = (   0.5915370   0.8006160   0.8013320  )
        40           Si  tau(  40) = (   0.9716460   0.8469270   0.5513560  )
        41           Si  tau(  41) = (   0.6133590   0.0045188   0.9994730  )
        42           Si  tau(  42) = (   0.4881130   0.0852281   0.6149520  )
        43           Si  tau(  43) = (   0.4733620   0.7489960   0.5085240  )
        44           Si  tau(  44) = (   0.1297390   0.1045570   0.4997360  )
        45           Si  tau(  45) = (   0.3212160   0.2450670   0.0815700  )
        46           Si  tau(  46) = (   0.3663960   0.3542840   0.4365190  )
        47           Si  tau(  47) = (   0.5284990   0.3235730   0.5782510  )
        48           Si  tau(  48) = (   0.3417080   0.8164100   0.6985310  )
        49           Si  tau(  49) = (   0.6504510   0.9363390   0.5393700  )
        50           Si  tau(  50) = (   0.9474620   0.9075070   0.0191404  )
        51           Si  tau(  51) = (   0.1806580   0.0934438   0.7173710  )
        52           Si  tau(  52) = (   0.8455390   0.5972620   0.1315620  )
        53           Si  tau(  53) = (   0.6844150   0.3888390   0.1678150  )
        54           Si  tau(  54) = (   0.9829160   0.4866500   0.4979710  )
        55           Si  tau(  55) = (   0.0701576   0.7203320   0.8573090  )
        56           Si  tau(  56) = (   0.7021160   0.1895390   0.2588780  )
        57           Si  tau(  57) = (   0.7340280   0.3871650   0.5177110  )
        58           Si  tau(  58) = (   0.2720490   0.6120070   0.8266380  )
        59           Si  tau(  59) = (   0.0035591   0.2332830   0.1884390  )
        60           Si  tau(  60) = (   0.7950720   0.1315750   0.4797970  )
        61           Si  tau(  61) = (   0.1030680   0.5964600   0.0606911  )
        62           Si  tau(  62) = (   0.0546742   0.6729830   0.3139460  )
        63           Si  tau(  63) = (   0.4168400   0.4253260   0.2051770  )
        64           Si  tau(  64) = (   0.9201660   0.2444030   0.6500700  )

     number of k points=     1  Fermi-Dirac smearing, width (Ry)=  0.0100
                       cart. coord. in units 2pi/alat
        k(    1) = (   0.0000000   0.0000000   0.0000000), wk =   2.0000000

     Dense  grid:    89103 G-vectors     FFT dimensions: (  72,  72,  72)

     Estimated max dynamical RAM per process >     143.24 MB

     Estimated total dynamical RAM >     551.22 MB

     Initial potential from superposition of free atoms

     starting charge     255.9608, renormalised to     256.0000
     Starting wfcs are  256 randomized atomic wfcs

     total cpu time spent up to now is        5.0 secs

     Self-consistent Calculation

     iteration #  1     ecut=    30.00 Ry     beta= 0.50
     Davidson diagonalization with overlap
     ethr =  1.00E-02,  avg # of iterations =  3.0

     Threshold (ethr) on eigenvalues was too large:
     Diagonalizing with lowered threshold

     Davidson diagonalization with overlap
     ethr =  4.97E-04,  avg # of iterations =  4.0

     total cpu time spent up to now is        5.3 secs

     total energy              =    -501.07597288 Ry
     estimated scf accuracy    <       1.53504753 Ry

     iteration #  2     ecut=    30.00 Ry     beta= 0.50
     Davidson diagonalization with overlap
     ethr =  6.00E-04,  avg # of iterations =  5.0

     total cpu time spent up to now is        5.4 secs

     total energy              =    -500.34798654 Ry
     estimated scf accuracy    <       9.88315035 Ry

     iteration #  3     ecut=    30.00 Ry     beta= 0.50
     Davidson diagonalization with overlap
     ethr =  6.00E-04,  avg # of iterations =  5.0

     total cpu time spent up to now is        5.6 secs

     total energy              =    -501.23481974 Ry
     estimated scf accuracy    <       2.53904655 Ry

     iteration #  4     ecut=    30.00 Ry     beta= 0.50
     Davidson diagonalization with overlap
     ethr =  6.00E-04,  avg # of iterations =  2.0

     total cpu time spent up to now is        5.7 secs

     total energy              =    -501.41666786 Ry
     estimated scf accuracy    <       0.53036719 Ry

     iteration #  5     ecut=    30.00 Ry     beta= 0.50
     Davidson diagonalization with overlap
     ethr =  2.07E-04,  avg # of iterations =  2.0

     total cpu time spent up to now is        5.8 secs

     total energy              =    -501.43943276 Ry
     estimated scf accuracy    <       0.49442447 Ry

     iteration #  6     ecut=    30.00 Ry     beta= 0.50
     Davidson diagonalization with overlap
     ethr =  1.93E-04,  avg # of iterations =  2.0

     total cpu time spent up to now is        5.8 secs

     total energy              =    -501.48572086 Ry
     estimated scf accuracy    <       0.08771705 Ry

     iteration #  7     ecut=    30.00 Ry     beta= 0.50
     Davidson diagonalization with overlap
     ethr =  3.43E-05,  avg # of iterations = 16.0

     total cpu time spent up to now is        6.0 secs

     total energy              =    -501.49562379 Ry
     estimated scf accuracy    <       0.01996284 Ry

     iteration #  8     ecut=    30.00 Ry     beta= 0.50
     Davidson diagonalization with overlap
     ethr =  7.80E-06,  avg # of iterations =  9.0

     total cpu time spent up to now is        6.2 secs

     total energy              =    -501.49714031 Ry
     estimated scf accuracy    <       0.02968815 Ry

     iteration #  9     ecut=    30.00 Ry     beta= 0.50
     Davidson diagonalization with overlap
     ethr =  7.80E-06,  avg # of iterations =  2.0

     total cpu time spent up to now is        6.3 secs

     total energy              =    -501.49938631 Ry
     estimated scf accuracy    <       0.00158303 Ry

     iteration # 10     ecut=    30.00 Ry     beta= 0.50
     Davidson diagonalization with overlap
     ethr =  6.18E-07,  avg # of iterations = 17.0

     total cpu time spent up to now is        6.5 secs

     total energy              =    -501.49952940 Ry
     estimated scf accuracy    <       0.00288315 Ry

     iteration # 11     ecut=    30.00 Ry     beta= 0.50
     Davidson diagonalization with overlap
     ethr =  6.18E-07,  avg # of iterations =  2.0

     total cpu time spent up to now is        6.6 secs

     total energy              =    -501.49974672 Ry
     estimated scf accuracy    <       0.00056559 Ry

     iteration # 12     ecut=    30.00 Ry     beta= 0.50
     Davidson diagonalization with overlap
     ethr =  2.21E-07,  avg # of iterations =  2.0

     total cpu time spent up to now is        6.7 secs

     total energy              =    -501.49978846 Ry
     estimated scf accuracy    <       0.00033341 Ry

     iteration # 13     ecut=    30.00 Ry     beta= 0.50
     Davidson diagonalization with overlap
     ethr =  1.30E-07,  avg # of iterations =  2.0

     total cpu time spent up to now is        6.8 secs

     total energy              =    -501.49981387 Ry
     estimated scf accuracy    <       0.00020943 Ry

     iteration # 14     ecut=    30.00 Ry     beta= 0.50
     Davidson diagonalization with overlap
     ethr =  8.18E-08,  avg # of iterations =  2.0

     total cpu time spent up to now is        6.9 secs

     total energy              =    -501.49982723 Ry
     estimated scf accuracy    <       0.00004062 Ry

     iteration # 15     ecut=    30.00 Ry     beta= 0.50
     Davidson diagonalization with overlap
     ethr =  1.59E-08,  avg # of iterations =  2.0

     total cpu time spent up to now is        7.0 secs

     total energy              =    -501.49983176 Ry
     estimated scf accuracy    <       0.00002346 Ry

     iteration # 16     ecut=    30.00 Ry     beta= 0.50
     Davidson diagonalization with overlap
     ethr =  9.17E-09,  avg # of iterations =  2.0

     total cpu time spent up to now is        7.1 secs

     total energy              =    -501.49983335 Ry
     estimated scf accuracy    <       0.00001257 Ry

     iteration # 17     ecut=    30.00 Ry     beta= 0.50
     Davidson diagonalization with overlap
     ethr =  4.91E-09,  avg # of iterations =  2.0

     total cpu time spent up to now is        7.1 secs

     total energy              =    -501.49983422 Ry
     estimated scf accuracy    <       0.00000220 Ry

     iteration # 18     ecut=    30.00 Ry     beta= 0.50
     Davidson diagonalization with overlap
     ethr =  8.58E-10,  avg # of iterations =  3.0

     total cpu time spent up to now is        7.3 secs

     total energy              =    -501.49983456 Ry
     estimated scf accuracy    <       0.00000309 Ry

     iteration # 19     ecut=    30.00 Ry     beta= 0.50
     Davidson diagonalization with overlap
     ethr =  8.58E-10,  avg # of iterations =  2.0

     total cpu time spent up to now is        7.3 secs

     End of self-consistent calculation

          k = 0.0000 0.0000 0.0000 ( 11072 PWs)   bands (ev):

    -5.3403  -4.4751  -4.3235  -4.2504  -4.0686  -3.8584  -3.7960  -3.3649
    -3.2136  -3.1899  -3.1192  -2.9855  -2.8976  -2.7867  -2.7332  -2.6917
    -2.5799  -2.4353  -2.4225  -2.0126  -1.8956  -1.8650  -1.7336  -1.6782
    -1.4627  -1.3802  -1.0753  -0.9151  -0.6559  -0.5728  -0.4525  -0.3791
    -0.2324  -0.0093   0.0256   0.1037   0.2109   0.2202   0.3483   0.4217
     0.4918   0.5231   0.6258   0.6830   0.7949   0.9208   0.9957   1.0664
     1.1820   1.2083   1.3079   1.4956   1.5582   1.6872   1.7400   1.7860
     1.8742   2.0303   2.1417   2.1750   2.2652   2.3825   2.5123   2.5456
     2.5967   2.7029   2.7717   2.8369   2.9214   2.9823   3.0631   3.0973
     3.2313   3.3061   3.3349   3.3589   3.4906   3.5360   3.6036   3.7907
     3.9248   4.2153   4.5013   4.6280   4.7054   4.7342   4.7705   4.8096
     4.8843   4.8909   5.0069   5.0802   5.1291   5.2026   5.2548   5.2883
     5.4086   5.4397   5.4909   5.5528   5.5815   5.6127   5.7088   5.7837
     5.7954   5.9138   5.9478   5.9967   6.1193   6.1782   6.2177   6.2811
     6.3059   6.4405   6.4652   6.5295   6.6010   6.6251   6.6990   6.7363
     6.7605   6.8903   6.8963   6.9935   7.0500   7.1427   7.2295   7.2685
     7.3351   7.3598   7.3768   7.4524   7.5104   7.5963   7.6890   7.7632
     7.8057   7.9074   7.9637   7.9809   8.0584   8.0826   8.1671   8.2479
     8.3032   8.3776   8.4053   8.5278   8.5902   8.6278   8.7965   8.8232
     8.8292   8.8876

     the Fermi energy is     7.2758 ev

!    total energy              =    -501.49983467 Ry
     estimated scf accuracy    <       0.00000016 Ry
     smearing contrib. (-TS)   =      -0.14838858 Ry
     internal energy E=F+TS    =    -501.35144609 Ry

     The total energy is F=E-TS. E is the sum of the following terms:
     one-electron contribution =     187.67560740 Ry
     hartree contribution      =      25.82219936 Ry
     xc contribution           =    -151.48827900 Ry
     ewald contribution        =    -563.36097385 Ry

     convergence has been achieved in  19 iterations

     Forces acting on atoms (cartesian axes, Ry/au):

     atom    1 type  1   force =     0.01319043    0.02725051   -0.00797464
     atom    2 type  1   force =     0.00093254   -0.01356956   -0.02429963
     atom    3 type  1   force =    -0.02226882    0.04980603    0.02187094
     atom    4 type  1   force =     0.01191165    0.01798672    0.00600523
     atom    5 type  1   force =     0.02801225   -0.00585878    0.02468743
     atom    6 type  1   force =     0.00307127    0.03683969    0.08935090
     atom    7 type  1   force =     0.02306608   -0.00131736    0.00273012
     atom    8 type  1   force =    -0.03180260   -0.00587184    0.03113842
     atom    9 type  1   force =    -0.01504376   -0.02145170   -0.01811739
     atom   10 type  1   force =    -0.03809217   -0.01569814    0.00595214
     atom   11 type  1   force =     0.04713607   -0.01012818   -0.06021115
     atom   12 type  1   force =    -0.02218805   -0.00217823    0.03915411
     atom   13 type  1   force =     0.04351117   -0.03779825   -0.04514872
     atom   14 type  1   force =    -0.02686206   -0.01188210    0.02825213
     atom   15 type  1   force =    -0.03812320   -0.01353819   -0.01628013
     atom   16 type  1   force =    -0.00240981   -0.01464019   -0.01589135
     atom   17 type  1   force =     0.00916472   -0.01629878   -0.00786376
     atom   18 type  1   force =     0.00102564   -0.00287075   -0.02217413
     atom   19 type  1   force =     0.08005241    0.02485883    0.01857795
     atom   20 type  1   force =    -0.02193673    0.03046162    0.00717619
     atom   21 type  1   force =     0.02140446    0.04905183   -0.02703580
     atom   22 type  1   force =    -0.00516161   -0.02502616    0.00550412
     atom   23 type  1   force =     0.01812437   -0.04174520   -0.02270666
     atom   24 type  1   force =     0.00697115   -0.01597866   -0.00496522
     atom   25 type  1   force =     0.00540500    0.01425885    0.02508480
     atom   26 type  1   force =     0.05572849   -0.07720092    0.07094474
     atom   27 type  1   force =     0.01956355    0.00247031    0.01903237
     atom   28 type  1   force =    -0.04172240    0.02790640    0.03043431
     atom   29 type  1   force =    -0.05368220   -0.00106525   -0.06680959
     atom   30 type  1   force =    -0.01120192   -0.04612497    0.01390488
     atom   31 type  1   force =     0.00565989    0.00283901   -0.00320123
     atom   32 type  1   force =    -0.01139478   -0.01674668   -0.01684883
     atom   33 type  1   force =     0.01157216    0.05040454   -0.00221988
     atom   34 type  1   force =    -0.04838729   -0.04809515   -0.03196834
     atom   35 type  1   force =     0.01217642   -0.00383963    0.03636940
     atom   36 type  1   force =    -0.01999347   -0.00106351    0.02250224
     atom   37 type  1   force =     0.04180610   -0.00723631   -0.00057823
     atom   38 type  1   force =    -0.01042685   -0.04604394   -0.01166069
     atom   39 type  1   force =    -0.05674363    0.08612036   -0.06482323
     atom   40 type  1   force =    -0.00770291   -0.04800813   -0.07245381
     atom   41 type  1   force =    -0.05066618    0.00698726   -0.02929566
     atom   42 type  1   force =     0.04384689    0.02807817    0.03436288
     atom   43 type  1   force =    -0.00581124   -0.01061757   -0.00634664
     atom   44 type  1   force =     0.07623903    0.01385087    0.04502319
     atom   45 type  1   force =     0.04820875    0.04580808   -0.00258258
     atom   46 type  1   force =    -0.02373351    0.03287450   -0.05232751
     atom   47 type  1   force =    -0.00311858   -0.05305154    0.02839324
     atom   48 type  1   force =     0.01823614   -0.05904920   -0.04447637
     atom   49 type  1   force =     0.02075764    0.03193749    0.00321167
     atom   50 type  1   force =     0.02656448    0.03707346    0.01750808
     atom   51 type  1   force =    -0.07528213    0.03932868   -0.02108394
     atom   52 type  1   force =     0.03383942   -0.02408618    0.05047057
     atom   53 type  1   force =    -0.02191329    0.04703033    0.04172820
     atom   54 type  1   force =    -0.00992796    0.01248646   -0.01074833
     atom   55 type  1   force =    -0.02931032   -0.00869994    0.01396278
     atom   56 type  1   force =     0.02074798   -0.02767543    0.00992401
     atom   57 type  1   force =     0.02596643   -0.00307356   -0.00845737
     atom   58 type  1   force =     0.01115356    0.01305430   -0.03145518
     atom   59 type  1   force =     0.00414402    0.01764580   -0.02816919
     atom   60 type  1   force =    -0.02831741    0.00419575   -0.01955972
     atom   61 type  1   force =    -0.04610023    0.00399341    0.00017661
     atom   62 type  1   force =    -0.01059438   -0.02932692    0.00961609
     atom   63 type  1   force =    -0.00044957    0.00126662    0.02535054
     atom   64 type  1   force =     0.00117892    0.01099102    0.01933461

     Total force =     0.434408     Total SCF correction =     0.000716


     Computing stress (Cartesian axis) and pressure

          total   stress  (Ry/bohr**3)                   (kbar)     P=      -15.75
  -0.00003383  -0.00000935   0.00004128           -4.98       -1.37        6.07
  -0.00000935  -0.00019028  -0.00000760           -1.37      -27.99       -1.12
   0.00004128  -0.00000760  -0.00009710            6.07       -1.12      -14.28

 
     init_run     :      1.08s CPU      4.96s WALL (       1 calls)
     electrons    :      2.13s CPU      2.31s WALL (       1 calls)
     forces       :      0.04s CPU      0.04s WALL (       1 calls)
     stress       :      0.15s CPU      0.15s WALL (       1 calls)

     Called by init_run:
     wfcinit      :      0.54s CPU      4.24s WALL (       1 calls)
                                        4.24s GPU  (       1 calls)
     potinit      :      0.05s CPU      0.15s WALL (       1 calls)
     hinit0       :      0.47s CPU      0.50s WALL (       1 calls)

     Called by electrons:
     c_bands      :      1.31s CPU      1.39s WALL (      20 calls)
     sum_band     :      0.41s CPU      0.46s WALL (      20 calls)
     v_of_rho     :      0.19s CPU      0.30s WALL (      20 calls)
     mix_rho      :      0.18s CPU      0.20s WALL (      20 calls)

     Called by c_bands:
     init_us_2    :      0.07s CPU      0.08s WALL (      41 calls)
     init_us_2:gp :      0.07s CPU      0.07s WALL (      41 calls)
     regterg      :      1.14s CPU      1.21s WALL (      20 calls)

     Called by *egterg:
     rdiaghg      :      0.51s CPU      1.27s WALL (     105 calls)
                                        1.25s GPU  (     105 calls)
     h_psi        :      0.98s CPU      3.97s WALL (     107 calls)
                                        3.96s GPU  (     107 calls)
     g_psi        :      0.00s CPU      0.00s WALL (      86 calls)
                                        0.00s GPU  (      86 calls)

     Called by h_psi:
     h_psi:calbec :      0.51s CPU      3.41s WALL (     107 calls)
                                        3.41s GPU  (     107 calls)
     vloc_psi     :      0.41s CPU      0.48s WALL (     107 calls)
                                        0.48s GPU  (     107 calls)
     add_vuspsi   :      0.04s CPU      0.06s WALL (     107 calls)
                                        0.06s GPU  (     107 calls)

     General routines
     calbec       :      0.51s CPU      3.41s WALL (     112 calls)
     fft          :      0.63s CPU      0.76s WALL (     167 calls)
                                        0.14s GPU  (     106 calls)
     ffts         :      0.05s CPU      0.05s WALL (      20 calls)
     fftw         :      0.50s CPU      0.65s WALL (    2142 calls)
                                        0.57s GPU  (    2142 calls)
 
     Parallel routines
 
     PWSCF        :      3.44s CPU      7.54s WALL

 
   This run was terminated on:  10:52:22  10May2023            

=------------------------------------------------------------------------------=
   JOB DONE.
=------------------------------------------------------------------------------=
