An instance of this daemon is already running

     Program PWSCF v.7.1 starts on 10May2023 at 10:40:35 

     This program is part of the open-source Quantum ESPRESSO suite
     for quantum simulation of materials; please cite
         "P. Giannozzi et al., J. Phys.:Condens. Matter 21 395502 (2009);
         "P. Giannozzi et al., J. Phys.:Condens. Matter 29 465901 (2017);
         "P. Giannozzi et al., J. Chem. Phys. 152 154105 (2020);
          URL http://www.quantum-espresso.org", 
     in publications or presentations arising from this work. More details at
     http://www.quantum-espresso.org/quote

     Parallel version (MPI & OpenMP), running on       4 processor cores
     Number of MPI processes:                 4
     Threads/MPI process:                     1

     MPI processes distributed on     1 nodes
     753568 MiB available memory on the printing compute node when the environment starts
 
     Reading input from pw-si-19.in
Warning: card &CELL ignored
Warning: card / ignored

     Current dimensions of program PWSCF are:
     Max number of different atomic species (ntypx) = 10
     Max number of k-points (npk) =  40000
     Max angular momentum in pseudopotentials (lmaxx) =  4

     IMPORTANT: XC functional enforced from input :
     Exchange-correlation= PBE
                           (   1   4   3   4   0   0   0)
     Any further DFT definition will be discarded
     Please, verify this is what you really want


     gamma-point specific algorithms are used
 
     K-points division:     npool     =       2
     R & G space division:  proc/nbgrp/npool/nimage =       2
     Subspace diagonalization in iterative solution of the eigenvalue problem:
     a serial algorithm will be used

     Message from routine divide_et_impera:
     suboptimal parallelization: some nodes have no k-points
 
     Parallelization info
     --------------------
     sticks:   dense  smooth     PW     G-vecs:    dense   smooth      PW
     Min        1916    1916    502                89460    89460   12150
     Max        1917    1917    503                89465    89465   12153
     Sum        3833    3833   1005               178925   178925   24303
 
     Using Slab Decomposition
 


     bravais-lattice index     =            0
     lattice parameter (alat)  =      20.0459  a.u.
     unit-cell volume          =    8055.2290 (a.u.)^3
     number of atoms/cell      =           64
     number of atomic types    =            1
     number of electrons       =       256.00
     number of Kohn-Sham states=          154
     kinetic-energy cutoff     =      30.0000  Ry
     charge density cutoff     =     120.0000  Ry
     scf convergence threshold =      1.0E-06
     mixing beta               =       0.5000
     number of iterations used =            8  plain     mixing
     Exchange-correlation= PBE
                           (   1   4   3   4   0   0   0)

     GPU acceleration is ACTIVE.
     GPU-aware MPI enabled

     Message from routine print_cuda_info:
     High GPU oversubscription detected. Are you sure this is what you want?

     celldm(1)=  20.045919  celldm(2)=   0.000000  celldm(3)=   0.000000
     celldm(4)=   0.000000  celldm(5)=   0.000000  celldm(6)=   0.000000

     crystal axes: (cart. coord. in units of alat)
               a(1) = (   1.000000   0.000000   0.000000 )  
               a(2) = (   0.000000   1.000000   0.000000 )  
               a(3) = (   0.000000   0.000000   1.000000 )  

     reciprocal axes: (cart. coord. in units 2 pi/alat)
               b(1) = (  1.000000  0.000000  0.000000 )  
               b(2) = (  0.000000  1.000000  0.000000 )  
               b(3) = (  0.000000  0.000000  1.000000 )  


     PseudoPot. # 1 for Si read from file:
     /home/ppiaggi/pseudos/Si_ONCV_PBE_sr.upf
     MD5 check sum: 8553c464762ac42b85b1eed164b4d029
     Pseudo is Norm-conserving, Zval =  4.0
     Generated using ONCVPSP code by D. R. Hamann
     Using radial grid of 1510 points,  4 beta functions with: 
                l(1) =   0
                l(2) =   0
                l(3) =   1
                l(4) =   1

     atomic species   valence    mass     pseudopotential
        Si             4.00    28.08500     Si( 1.00)

     No symmetry found



   Cartesian axes

     site n.     atom                  positions (alat units)
         1           Si  tau(   1) = (   0.2967890   0.9071070   0.7393370  )
         2           Si  tau(   2) = (   0.4293810   0.2533080   0.4704770  )
         3           Si  tau(   3) = (   0.3915300   0.8721870   0.9384820  )
         4           Si  tau(   4) = (   0.1698920   0.2097110   0.7289120  )
         5           Si  tau(   5) = (   0.7617250   0.7230100   0.0123325  )
         6           Si  tau(   6) = (   0.2874880   0.9818530   0.3505740  )
         7           Si  tau(   7) = (   0.7783600   0.1789370   0.1672840  )
         8           Si  tau(   8) = (   0.1561790   0.7402350   0.9787930  )
         9           Si  tau(   9) = (   0.9435910   0.3991400   0.1161720  )
        10           Si  tau(  10) = (   0.8563460   0.1909260   0.8036340  )
        11           Si  tau(  11) = (   0.4533460   0.7528570   0.4260710  )
        12           Si  tau(  12) = (   0.4553570   0.9399420   0.5392980  )
        13           Si  tau(  13) = (   0.6158090   0.6206420   0.5202910  )
        14           Si  tau(  14) = (   0.8576570   0.8021360   0.6704200  )
        15           Si  tau(  15) = (   0.0795805   0.5914740   0.5046040  )
        16           Si  tau(  16) = (   0.1154250   0.7588550   0.6818020  )
        17           Si  tau(  17) = (   0.9741180   0.6070770   0.0109795  )
        18           Si  tau(  18) = (   0.0591160   0.1623630   0.5351670  )
        19           Si  tau(  19) = (   0.6321060   0.3281820   0.8773920  )
        20           Si  tau(  20) = (   0.7721260   0.4138030   0.2380090  )
        21           Si  tau(  21) = (   0.1501380   0.4406160   0.6992840  )
        22           Si  tau(  22) = (   0.8801230   0.6282780   0.2828900  )
        23           Si  tau(  23) = (   0.7156890   0.1347940   0.9656640  )
        24           Si  tau(  24) = (   0.2959000   0.6214850   0.8112600  )
        25           Si  tau(  25) = (   0.5156240   0.6301660   0.0195723  )
        26           Si  tau(  26) = (   0.3744210   0.4373800   0.6054120  )
        27           Si  tau(  27) = (   0.5683400   0.4470770   0.4057640  )
        28           Si  tau(  28) = (   0.3931310   0.1703780   0.0819438  )
        29           Si  tau(  29) = (   0.4599250   0.3431460   0.1950310  )
        30           Si  tau(  30) = (   0.2482900   0.4633090   0.9616630  )
        31           Si  tau(  31) = (   0.5012130   0.0772969   0.8945920  )
        32           Si  tau(  32) = (   0.3949550   0.9307210   0.1748990  )
        33           Si  tau(  33) = (   0.6135160   0.0483746   0.2301880  )
        34           Si  tau(  34) = (   0.3002870   0.4950080   0.2384610  )
        35           Si  tau(  35) = (   0.0277635   0.3259930   0.9293240  )
        36           Si  tau(  36) = (   0.8049620   0.9282120   0.9367610  )
        37           Si  tau(  37) = (   0.9817300   0.9191980   0.1173860  )
        38           Si  tau(  38) = (   0.8484760   0.6245680   0.4926430  )
        39           Si  tau(  39) = (   0.3890260   0.1600400   0.6689520  )
        40           Si  tau(  40) = (   0.7545470   0.8110530   0.2319300  )
        41           Si  tau(  41) = (   0.3961340   0.3269920   0.8710510  )
        42           Si  tau(  42) = (   0.1121440   0.9886850   0.9409630  )
        43           Si  tau(  43) = (   0.9327920   0.5754810   0.7793550  )
        44           Si  tau(  44) = (   0.5443240   0.7578560   0.8037750  )
        45           Si  tau(  45) = (   0.6093740   0.4452930   0.0906594  )
        46           Si  tau(  46) = (   0.8034640   0.1409100   0.5956360  )
        47           Si  tau(  47) = (   0.3179780   0.5753810   0.4491830  )
        48           Si  tau(  48) = (   0.7259350   0.8592850   0.4684580  )
        49           Si  tau(  49) = (   0.6024770   0.0707738   0.4615820  )
        50           Si  tau(  50) = (   0.0724355   0.7475640   0.2842290  )
        51           Si  tau(  51) = (   0.9912130   0.1112440   0.2308360  )
        52           Si  tau(  52) = (   0.6380130   0.9366590   0.7285300  )
        53           Si  tau(  53) = (   0.0133533   0.3609400   0.4730530  )
        54           Si  tau(  54) = (   0.5408460   0.7699880   0.2268440  )
        55           Si  tau(  55) = (   0.0877646   0.9003050   0.4597440  )
        56           Si  tau(  56) = (   0.1636940   0.1925450   0.0426986  )
        57           Si  tau(  57) = (   0.2468410   0.1776720   0.3494400  )
        58           Si  tau(  58) = (   0.7457980   0.4557520   0.7236660  )
        59           Si  tau(  59) = (   0.7912060   0.3834430   0.4910770  )
        60           Si  tau(  60) = (   0.1026220   0.3453660   0.2737920  )
        61           Si  tau(  61) = (   0.9915360   0.9829360   0.7514140  )
        62           Si  tau(  62) = (   0.5464890   0.5480170   0.7248190  )
        63           Si  tau(  63) = (   0.8918970   0.0377862   0.3858160  )
        64           Si  tau(  64) = (   0.2599150   0.6972090   0.1576240  )

     number of k points=     1  Fermi-Dirac smearing, width (Ry)=  0.0100
                       cart. coord. in units 2pi/alat
        k(    1) = (   0.0000000   0.0000000   0.0000000), wk =   2.0000000

     Dense  grid:    89463 G-vectors     FFT dimensions: (  72,  72,  72)

     Estimated max dynamical RAM per process >     143.75 MB

     Estimated total dynamical RAM >     553.16 MB

     Initial potential from superposition of free atoms

     starting charge     255.9608, renormalised to     256.0000
     Starting wfcs are  256 randomized atomic wfcs

     total cpu time spent up to now is        5.0 secs

     Self-consistent Calculation

     iteration #  1     ecut=    30.00 Ry     beta= 0.50
     Davidson diagonalization with overlap
     ethr =  1.00E-02,  avg # of iterations =  3.0

     Threshold (ethr) on eigenvalues was too large:
     Diagonalizing with lowered threshold

     Davidson diagonalization with overlap
     ethr =  5.02E-04,  avg # of iterations =  4.0

     total cpu time spent up to now is        5.3 secs

     total energy              =    -501.25160031 Ry
     estimated scf accuracy    <       1.50944958 Ry

     iteration #  2     ecut=    30.00 Ry     beta= 0.50
     Davidson diagonalization with overlap
     ethr =  5.90E-04,  avg # of iterations =  6.0

     total cpu time spent up to now is        5.4 secs

     total energy              =    -500.50292926 Ry
     estimated scf accuracy    <       9.51983538 Ry

     iteration #  3     ecut=    30.00 Ry     beta= 0.50
     Davidson diagonalization with overlap
     ethr =  5.90E-04,  avg # of iterations =  5.0

     total cpu time spent up to now is        5.5 secs

     total energy              =    -501.43311503 Ry
     estimated scf accuracy    <       1.67466230 Ry

     iteration #  4     ecut=    30.00 Ry     beta= 0.50
     Davidson diagonalization with overlap
     ethr =  5.90E-04,  avg # of iterations =  2.0

     total cpu time spent up to now is        5.6 secs

     total energy              =    -501.53007257 Ry
     estimated scf accuracy    <       0.47120341 Ry

     iteration #  5     ecut=    30.00 Ry     beta= 0.50
     Davidson diagonalization with overlap
     ethr =  1.84E-04,  avg # of iterations =  2.0

     total cpu time spent up to now is        5.7 secs

     total energy              =    -501.55886319 Ry
     estimated scf accuracy    <       0.35606705 Ry

     iteration #  6     ecut=    30.00 Ry     beta= 0.50
     Davidson diagonalization with overlap
     ethr =  1.39E-04,  avg # of iterations =  2.0

     total cpu time spent up to now is        5.8 secs

     total energy              =    -501.59418868 Ry
     estimated scf accuracy    <       0.08603864 Ry

     iteration #  7     ecut=    30.00 Ry     beta= 0.50
     Davidson diagonalization with overlap
     ethr =  3.36E-05,  avg # of iterations =  3.0

     total cpu time spent up to now is        5.9 secs

     total energy              =    -501.60383717 Ry
     estimated scf accuracy    <       0.00602268 Ry

     iteration #  8     ecut=    30.00 Ry     beta= 0.50
     Davidson diagonalization with overlap
     ethr =  2.35E-06,  avg # of iterations = 17.0

     total cpu time spent up to now is        6.1 secs

     total energy              =    -501.60390484 Ry
     estimated scf accuracy    <       0.01613554 Ry

     iteration #  9     ecut=    30.00 Ry     beta= 0.50
     Davidson diagonalization with overlap
     ethr =  2.35E-06,  avg # of iterations =  3.0

     total cpu time spent up to now is        6.2 secs

     total energy              =    -501.60545962 Ry
     estimated scf accuracy    <       0.00239044 Ry

     iteration # 10     ecut=    30.00 Ry     beta= 0.50
     Davidson diagonalization with overlap
     ethr =  9.34E-07,  avg # of iterations =  2.0

     total cpu time spent up to now is        6.3 secs

     total energy              =    -501.60558024 Ry
     estimated scf accuracy    <       0.00121532 Ry

     iteration # 11     ecut=    30.00 Ry     beta= 0.50
     Davidson diagonalization with overlap
     ethr =  4.75E-07,  avg # of iterations =  2.0

     total cpu time spent up to now is        6.4 secs

     total energy              =    -501.60566072 Ry
     estimated scf accuracy    <       0.00050362 Ry

     iteration # 12     ecut=    30.00 Ry     beta= 0.50
     Davidson diagonalization with overlap
     ethr =  1.97E-07,  avg # of iterations =  2.0

     total cpu time spent up to now is        6.5 secs

     total energy              =    -501.60572083 Ry
     estimated scf accuracy    <       0.00025367 Ry

     iteration # 13     ecut=    30.00 Ry     beta= 0.50
     Davidson diagonalization with overlap
     ethr =  9.91E-08,  avg # of iterations =  2.0

     total cpu time spent up to now is        6.6 secs

     total energy              =    -501.60573998 Ry
     estimated scf accuracy    <       0.00002904 Ry

     iteration # 14     ecut=    30.00 Ry     beta= 0.50
     Davidson diagonalization with overlap
     ethr =  1.13E-08,  avg # of iterations =  3.0

     total cpu time spent up to now is        6.7 secs

     total energy              =    -501.60574324 Ry
     estimated scf accuracy    <       0.00002740 Ry

     iteration # 15     ecut=    30.00 Ry     beta= 0.50
     Davidson diagonalization with overlap
     ethr =  1.07E-08,  avg # of iterations =  2.0

     total cpu time spent up to now is        6.8 secs

     total energy              =    -501.60574490 Ry
     estimated scf accuracy    <       0.00000441 Ry

     iteration # 16     ecut=    30.00 Ry     beta= 0.50
     Davidson diagonalization with overlap
     ethr =  1.72E-09,  avg # of iterations =  5.0

     total cpu time spent up to now is        6.9 secs

     total energy              =    -501.60574409 Ry
     estimated scf accuracy    <       0.00003077 Ry

     iteration # 17     ecut=    30.00 Ry     beta= 0.50
     Davidson diagonalization with overlap
     ethr =  1.72E-09,  avg # of iterations =  3.0

     total cpu time spent up to now is        7.1 secs

     total energy              =    -501.60574608 Ry
     estimated scf accuracy    <       0.00000245 Ry

     iteration # 18     ecut=    30.00 Ry     beta= 0.50
     Davidson diagonalization with overlap
     ethr =  9.57E-10,  avg # of iterations =  2.0

     total cpu time spent up to now is        7.1 secs

     total energy              =    -501.60574629 Ry
     estimated scf accuracy    <       0.00000134 Ry

     iteration # 19     ecut=    30.00 Ry     beta= 0.50
     Davidson diagonalization with overlap
     ethr =  5.24E-10,  avg # of iterations =  2.0

     total cpu time spent up to now is        7.2 secs

     End of self-consistent calculation

          k = 0.0000 0.0000 0.0000 ( 11168 PWs)   bands (ev):

    -5.3303  -4.3776  -4.3194  -4.2235  -4.0883  -4.0249  -3.9884  -3.3057
    -3.2766  -3.2439  -3.0851  -3.0521  -2.9944  -2.9352  -2.8537  -2.8275
    -2.6976  -2.6455  -2.4436  -2.0764  -1.9688  -1.9299  -1.8123  -1.7458
    -1.6759  -1.5254  -1.3108  -1.0004  -0.8315  -0.6737  -0.4558  -0.3796
    -0.3074  -0.1138  -0.0518  -0.0283   0.0756   0.1897   0.2708   0.2838
     0.4478   0.5033   0.5539   0.6703   0.7975   0.8915   0.9739   1.0258
     1.1306   1.1633   1.2337   1.2700   1.3528   1.6008   1.6896   1.7982
     1.8396   1.9284   2.0939   2.1361   2.1937   2.3788   2.4429   2.4780
     2.5958   2.6933   2.7296   2.7893   2.8779   2.9585   3.0090   3.1088
     3.2032   3.2681   3.3518   3.4291   3.5021   3.5703   3.6764   3.7445
     3.8445   4.1770   4.2231   4.2579   4.5244   4.6206   4.6679   4.7085
     4.7672   4.8341   4.8939   4.9447   5.0414   5.1376   5.2034   5.3031
     5.3441   5.4004   5.4273   5.4744   5.4778   5.5502   5.6331   5.6692
     5.7779   5.8188   5.8321   5.8895   5.9425   5.9964   6.1307   6.1614
     6.2365   6.2724   6.3244   6.4363   6.4948   6.6276   6.6591   6.7021
     6.7604   6.7917   6.8095   6.9003   7.0033   7.0365   7.0917   7.1660
     7.2053   7.2759   7.4211   7.4475   7.4896   7.5337   7.5814   7.6570
     7.8146   7.9351   7.9566   8.0881   8.1110   8.2282   8.2478   8.3004
     8.3255   8.3493   8.4792   8.5761   8.6123   8.6430   8.7272   8.8352
     8.8663   8.9007

     the Fermi energy is     7.2015 ev

!    total energy              =    -501.60574632 Ry
     estimated scf accuracy    <       0.00000012 Ry
     smearing contrib. (-TS)   =      -0.13867234 Ry
     internal energy E=F+TS    =    -501.46707399 Ry

     The total energy is F=E-TS. E is the sum of the following terms:
     one-electron contribution =     191.22097508 Ry
     hartree contribution      =      23.50169820 Ry
     xc contribution           =    -151.72460754 Ry
     ewald contribution        =    -564.46513973 Ry

     convergence has been achieved in  19 iterations

     Forces acting on atoms (cartesian axes, Ry/au):

     atom    1 type  1   force =     0.00082887    0.01230844   -0.03266291
     atom    2 type  1   force =     0.02574591    0.01627283   -0.01183760
     atom    3 type  1   force =    -0.00815249    0.00483749   -0.00223502
     atom    4 type  1   force =     0.00837650   -0.00176430    0.00576153
     atom    5 type  1   force =     0.00114418   -0.00431060    0.00334535
     atom    6 type  1   force =    -0.01410442   -0.09213284    0.06428703
     atom    7 type  1   force =     0.02672487    0.04165957    0.02018327
     atom    8 type  1   force =     0.00601053    0.02378338   -0.05385388
     atom    9 type  1   force =     0.04477558    0.03195904   -0.01853017
     atom   10 type  1   force =     0.04883449    0.01004239    0.01195390
     atom   11 type  1   force =     0.00665831   -0.02844204    0.00722572
     atom   12 type  1   force =    -0.05091007   -0.01639415    0.04684040
     atom   13 type  1   force =    -0.00390574    0.04316867    0.02291716
     atom   14 type  1   force =     0.00206772   -0.00310982   -0.00384967
     atom   15 type  1   force =     0.02105943   -0.02269767    0.01962279
     atom   16 type  1   force =     0.01164274    0.00768760   -0.01693189
     atom   17 type  1   force =    -0.04718040   -0.01162450   -0.01966564
     atom   18 type  1   force =     0.02554126   -0.05564078    0.00432022
     atom   19 type  1   force =    -0.02927909    0.01838811    0.04126574
     atom   20 type  1   force =    -0.03375722    0.00429256    0.03309284
     atom   21 type  1   force =     0.00539788    0.01926019   -0.00237912
     atom   22 type  1   force =     0.00135876    0.00368332   -0.03349426
     atom   23 type  1   force =    -0.01426969   -0.01314055   -0.01075878
     atom   24 type  1   force =    -0.03333941    0.02754436    0.00745159
     atom   25 type  1   force =     0.02186302    0.03697811    0.00687679
     atom   26 type  1   force =    -0.00186714   -0.01373225    0.02410760
     atom   27 type  1   force =    -0.00113600   -0.07651738   -0.03589538
     atom   28 type  1   force =    -0.03188533   -0.03683737   -0.03119457
     atom   29 type  1   force =    -0.02580022    0.00980724    0.05440177
     atom   30 type  1   force =    -0.02640442    0.00256917    0.00254334
     atom   31 type  1   force =     0.00262055   -0.00214958   -0.02496028
     atom   32 type  1   force =     0.02146440   -0.00571215   -0.04956855
     atom   33 type  1   force =    -0.02102563   -0.03333102    0.02297891
     atom   34 type  1   force =    -0.03855809   -0.02011659    0.01534356
     atom   35 type  1   force =     0.00752635   -0.00803735   -0.04471140
     atom   36 type  1   force =     0.02201806    0.00013748   -0.02152843
     atom   37 type  1   force =    -0.01935680   -0.02827019    0.00024492
     atom   38 type  1   force =     0.01038443    0.01141228    0.05341818
     atom   39 type  1   force =    -0.02624436   -0.02421830    0.06889883
     atom   40 type  1   force =     0.01149475    0.01781608    0.00411167
     atom   41 type  1   force =     0.03580693   -0.03384443   -0.01137209
     atom   42 type  1   force =     0.01744286   -0.03407073    0.00570721
     atom   43 type  1   force =     0.02499811    0.00848697    0.01412060
     atom   44 type  1   force =    -0.02048900   -0.03940198    0.04483362
     atom   45 type  1   force =     0.04433950   -0.00197437   -0.07180566
     atom   46 type  1   force =    -0.01741696    0.00250621   -0.05000807
     atom   47 type  1   force =    -0.02760403    0.02771937   -0.03489058
     atom   48 type  1   force =     0.01636550    0.00575404   -0.00826998
     atom   49 type  1   force =     0.02761946    0.03899280   -0.01347398
     atom   50 type  1   force =    -0.01019774    0.01851987   -0.01124717
     atom   51 type  1   force =     0.05947138    0.06221363   -0.09982731
     atom   52 type  1   force =     0.02230552    0.02834864   -0.01833155
     atom   53 type  1   force =    -0.02219921    0.07417556   -0.01306916
     atom   54 type  1   force =    -0.01872546   -0.01246117   -0.02439452
     atom   55 type  1   force =     0.00946735   -0.00605212   -0.01382750
     atom   56 type  1   force =     0.02591302   -0.03836592    0.00073091
     atom   57 type  1   force =    -0.03951132    0.12136905    0.02457453
     atom   58 type  1   force =     0.02592780   -0.03498037   -0.02752256
     atom   59 type  1   force =    -0.01741364   -0.00531375    0.02710451
     atom   60 type  1   force =     0.03454832    0.00511711   -0.01759953
     atom   61 type  1   force =    -0.02851177    0.01621155    0.01494089
     atom   62 type  1   force =    -0.02517723    0.01360716   -0.02618506
     atom   63 type  1   force =    -0.04292418   -0.07132038    0.13618482
     atom   64 type  1   force =     0.01960272    0.00933437    0.04649205

     Total force =     0.446728     Total SCF correction =     0.000635


     Computing stress (Cartesian axis) and pressure

          total   stress  (Ry/bohr**3)                   (kbar)     P=       -9.87
  -0.00012513   0.00000001  -0.00008233          -18.41        0.00      -12.11
   0.00000001  -0.00002821  -0.00005534            0.00       -4.15       -8.14
  -0.00008233  -0.00005534  -0.00004794          -12.11       -8.14       -7.05

 
     init_run     :      1.08s CPU      4.93s WALL (       1 calls)
     electrons    :      2.07s CPU      2.23s WALL (       1 calls)
     forces       :      0.04s CPU      0.04s WALL (       1 calls)
     stress       :      0.15s CPU      0.16s WALL (       1 calls)

     Called by init_run:
     wfcinit      :      0.54s CPU      4.21s WALL (       1 calls)
                                        4.21s GPU  (       1 calls)
     potinit      :      0.05s CPU      0.15s WALL (       1 calls)
     hinit0       :      0.47s CPU      0.50s WALL (       1 calls)

     Called by electrons:
     c_bands      :      1.23s CPU      1.31s WALL (      20 calls)
     sum_band     :      0.41s CPU      0.46s WALL (      20 calls)
     v_of_rho     :      0.19s CPU      0.30s WALL (      20 calls)
     mix_rho      :      0.19s CPU      0.20s WALL (      20 calls)

     Called by c_bands:
     init_us_2    :      0.07s CPU      0.08s WALL (      41 calls)
     init_us_2:gp :      0.07s CPU      0.08s WALL (      41 calls)
     regterg      :      1.06s CPU      1.13s WALL (      20 calls)

     Called by *egterg:
     rdiaghg      :      0.44s CPU      1.20s WALL (      91 calls)
                                        1.18s GPU  (      91 calls)
     h_psi        :      0.97s CPU      3.93s WALL (      93 calls)
                                        3.93s GPU  (      93 calls)
     g_psi        :      0.00s CPU      0.00s WALL (      72 calls)
                                        0.00s GPU  (      72 calls)

     Called by h_psi:
     h_psi:calbec :      0.51s CPU      3.38s WALL (      93 calls)
                                        3.38s GPU  (      93 calls)
     vloc_psi     :      0.40s CPU      0.48s WALL (      93 calls)
                                        0.48s GPU  (      93 calls)
     add_vuspsi   :      0.04s CPU      0.05s WALL (      93 calls)
                                        0.05s GPU  (      93 calls)

     General routines
     calbec       :      0.52s CPU      3.39s WALL (      98 calls)
     fft          :      0.63s CPU      0.77s WALL (     167 calls)
                                        0.14s GPU  (     106 calls)
     ffts         :      0.05s CPU      0.05s WALL (      20 calls)
     fftw         :      0.50s CPU      0.65s WALL (    2116 calls)
                                        0.57s GPU  (    2116 calls)
 
     Parallel routines
 
     PWSCF        :      3.38s CPU      7.44s WALL

 
   This run was terminated on:  10:40:42  10May2023            

=------------------------------------------------------------------------------=
   JOB DONE.
=------------------------------------------------------------------------------=
