0.03011373346331162 0.0024882071371905142 -0.006501474073227317 0.0024882071371905142 0.01647817471998456 -0.002617667360933637 -0.006501474073227317 -0.002617667360933637 0.006509737491764113
0.024084192404296816 0.00045356986190852916 -0.007965935469470444 0.00045356986190852916 0.027827521001464982 -0.0030464469672317803 -0.007965935469470444 -0.0030464469672317803 0.026717468444688842
0.018711134040149627 -0.004209752665689486 0.0019033407363084633 -0.004209752665689486 0.030030181120328465 0.0028196620362775163 0.0019033407363084633 0.0028196620362775163 0.028579492088313334
0.017464275998708773 0.0015259779564614888 -0.0033338303007892094 0.0015259779564614888 0.021139660932352176 -0.0008942855172042659 -0.0033338303007892094 -0.0008942855172042659 0.0033687202901667886
0.011578885685280284 0.0001918949415766854 -0.0005022322155141001 0.0001918949415766854 0.015178981694477334 0.0009062215662018589 -0.0005022322155141001 0.0009062215662018589 0.02618585518548836
0.011511860179370725 0.002583695529171257 0.002838025188581505 0.002583695529171257 0.012369419391967014 -0.00018546783827028926 0.002838025188581505 -0.00018546783827028926 0.01870562509445843
0.027852311257075366 -0.00037001751892537906 0.0015443411087654778 -0.00037001751892537906 0.028993581172768283 -0.0023688466472145853 0.0015443411087654778 -0.0023688466472145853 0.03719181051888419
0.03108238974734704 0.0012496125142864537 0.0012496125142864537 0.0012496125142864537 0.013225142289332904 0.004728511718277176 0.0012496125142864537 0.004728511718277176 0.02255270550214413
0.027564927923517942 -0.0026084857847816422 0.0009383570827338397 -0.0026084857847816422 0.01679493909722837 0.0006509737491764112 0.0009383570827338397 0.0006509737491764112 0.010452306291430558
0.02204129171047804 -0.0012027864759112817 0.0014350803525567432 -0.0012027864759112817 0.010839768805044727 0.002563496061636869 0.0014350803525567432 0.002563496061636869 0.028851266742412368
0.019486977224993162 -0.007387496171894789 -0.0005003959002837012 -0.007387496171894789 0.015402093994970804 0.002046573324279578 -0.0005003959002837012 0.002046573324279578 0.024860035589140354
0.029822677499293387 -0.003808517787847326 -0.008949282275349055 -0.003808517787847326 0.012929495537238678 0.0034486000026891406 -0.008949282275349055 0.0034486000026891406 0.023267032126769303
0.028741087828588436 -0.0036983388740233917 -0.002823334666738314 -0.0036983388740233917 0.013320630681313644 -0.0020924812050395506 -0.002823334666738314 -0.0020924812050395506 0.014760301821946386
0.019453923550845985 0.007306698301757236 0.001786734719178133 0.007306698301757236 0.0160741853692968 0.005059966617364178 0.001786734719178133 0.005059966617364178 0.008524175299511709
0.01934099016417645 0.004257496861679857 0.003747001227628962 0.004257496861679857 0.010529431531107313 0.0017729623549501412 0.003747001227628962 0.0017729623549501412 0.023784873021741794
0.023919842191176113 0.0003865443559989692 0.0033613750292451924 0.0003865443559989692 0.013332566730311237 0.00022862124618466345 0.0033613750292451924 0.00022862124618466345 0.017531301504618332
0.011843315078457727 -0.0016903281695821908 0.00048570537844050995 -0.0016903281695821908 0.027343651938254873 0.003541333921824285 0.00048570537844050995 0.003541333921824285 0.023572778612630723
0.0010953620349329458 0.008026533872073607 -0.0022834579890010365 0.008026533872073607 0.02004338073980403 -0.0010522086270185716 -0.0022834579890010365 -0.0010522086270185716 0.01818502972664034
0.012967139999461856 0.0006858637385539904 0.001773880512565341 0.0006858637385539904 0.02452031727151656 0.0007179992550859712 0.001773880512565341 0.0007179992550859712 0.004551307298543682
0.011488906238990739 -9.181576151994517e-07 0.007559191645937087 -9.181576151994517e-07 0.002590122632477653 0.005081084242513766 0.007559191645937087 0.005081084242513766 0.004401647607266171
0.015918098574712894 -0.006198482060211498 0.003962768267200834 -0.006198482060211498 0.013510689307659932 -0.0026617389264632103 0.003962768267200834 -0.0026617389264632103 0.019987373125276865
0.002510242919955301 -5.417129929676765e-05 0.004375021036425388 -5.417129929676765e-05 0.028158975900551983 0.0017050186914253818 0.004375021036425388 0.0017050186914253818 0.014515153738688133
0.026253798849013122 -0.0005003959002837012 0.002123698563956332 -0.0005003959002837012 0.02116996013365376 -0.002004338073980403 0.002123698563956332 -0.002004338073980403 0.025196081276303354
0.020805451560419574 0.0002754472845598355 0.0009172394575842522 0.0002754472845598355 0.01051749548210972 0.0015581134729934693 0.0009172394575842522 0.0015581134729934693 0.020057153104032024
0.020606211357921293 0.0014662977114735245 0.004845117735407506 0.0014662977114735245 0.02213769826007398 -0.0005435493081980754 0.004845117735407506 -0.0005435493081980754 0.01716587477376895
0.010755298304446378 -0.003998576414193612 -0.006420676203089766 -0.003998576414193612 0.010831505386507932 0.0005417129929676765 -0.006420676203089766 0.0005417129929676765 0.02597100630353169
0.025278715461671306 -0.0025818592139408582 0.0024074092670529623 -0.0025818592139408582 0.021910913329119715 0.005195853944413697 0.0024074092670529623 0.005195853944413697 0.008503975831977323
0.02484718138252756 -0.002804053356819126 -0.00015241416412310898 -0.002804053356819126 0.02192468569334771 -0.0023449745492193997 -0.00015241416412310898 -0.0023449745492193997 0.022458135267778588
0.02488115321428994 -0.001969448084602824 -0.007165302029016521 -0.001969448084602824 0.024131018442671986 0.0009576383926530282 -0.007165302029016521 0.0009576383926530282 0.02437983915639104
0.001994238340213209 0.006409658311707372 -0.003797499896464932 0.006409658311707372 0.01182036113807774 -0.0023440563916042 -0.003797499896464932 -0.0023440563916042 0.006633688769816038
0.03280760790630681 -0.0017518447298005538 -0.0013166380201960137 -0.0017518447298005538 0.015980533292546457 -0.0022953940379986295 -0.0013166380201960137 -0.0022953940379986295 0.015605006827929882
0.01165601092495704 -0.001451607189630333 0.0021007446235763454 -0.001451607189630333 0.020725571847897223 0.003570714965510668 0.0021007446235763454 0.003570714965510668 0.010837932489814328
0.02821406535746395 0.004878171409554687 -0.0020520822699707747 0.004878171409554687 0.020306891975366274 -0.006693369014804003 -0.0020520822699707747 -0.006693369014804003 0.034540171326188175
0.017108030844011385 0.0031382627287517262 -0.0037919909507737356 0.0031382627287517262 0.01291021422731949 -0.0037727096408545473 -0.0037919909507737356 -0.0037727096408545473 0.014781419447095972
0.021742890485538215 -0.000638119542563619 0.0005022322155141001 -0.000638119542563619 0.009864685417702908 0.0015112874346182976 0.0005022322155141001 0.0015112874346182976 0.020126014925171982
0.014135954643610758 -0.005869781633970095 -0.002622258149009634 -0.005869781633970095 0.022752863862257614 0.005435493081980754 -0.002622258149009634 0.005435493081980754 0.007760268163665766
0.018344789151685047 -0.0008116513318363153 -0.0033925923881619737 -0.0008116513318363153 0.019312527278105267 -0.00398664036519602 -0.0033925923881619737 -0.00398664036519602 0.019615519291121087
0.019781705819472188 -0.0027737541555175435 -0.0035633697045890722 -0.0027737541555175435 0.01890394713934151 -0.0004801964327493132 -0.0035633697045890722 -0.0004801964327493132 0.02389780640841133
0.010342127377606624 0.007574800325395477 0.005197690259644097 0.007574800325395477 0.020760461837274802 -0.004351148938430202 0.005197690259644097 -0.004351148938430202 0.0008952036748194654
0.018314489950383463 0.0024422992564305415 0.004853381153944301 0.0024422992564305415 0.01002995378843881 -0.0031685619300533077 0.004853381153944301 -0.0031685619300533077 0.017127312153930572
0.016787593836306774 0.0015847400438342538 -4.5907880759972583e-05 0.0015847400438342538 0.013774200543222174 -0.00044897907383253184 -4.5907880759972583e-05 -0.00044897907383253184 0.01845313175027858
0.011115216089604562 0.0008979581476650637 0.0002736109693294366 0.0008979581476650637 0.012716482970512406 0.0020722817375051624 0.0002736109693294366 0.0020722817375051624 0.0009080578814322578
0.013992722055639643 0.0019538394051444334 5.049866883596985e-05 0.0019538394051444334 0.013641067689018254 0.005641160387785431 5.049866883596985e-05 0.005641160387785431 0.012965303684231459
0.0006445466458700151 -0.0004875416936709088 -0.0041711900458511085 -0.0004875416936709088 0.0038599346142984946 0.004625678065374838 -0.0041711900458511085 0.004625678065374838 0.009733388878729387
0.017842556936170945 0.001954757562759633 0.004599969652149253 0.001954757562759633 0.019199593891435735 0.002268767467157845 0.004599969652149253 0.002268767467157845 0.013743901341920594
0.022132189314382784 -7.98797125223523e-05 -0.0052839970754728445 -7.98797125223523e-05 0.02050980480832535 -0.006443630143469751 -0.0052839970754728445 -0.006443630143469751 0.023045756141506234
0.02489951636659393 0.0020089288620564003 0.00017995889257909253 0.0020089288620564003 0.012841352406179531 -0.0011642238560729049 0.00017995889257909253 -0.0011642238560729049 0.022699610720576042
0.01979180555323938 0.002962894624248631 -0.002312839032687419 0.002962894624248631 0.01410198281184838 0.00303083828777339 -0.002312839032687419 0.00303083828777339 0.008119267791208752
0.015550835528633115 -0.0006904545266299876 0.00028187438786623164 -0.0006904545266299876 0.02600405997767887 0.00190884968199966 0.00028187438786623164 0.00190884968199966 0.02181726125236937
0.016037459064688824 -0.00333291214317401 0.00758673637439307 -0.00333291214317401 0.007614281102849053 0.005856009269742103 0.00758673637439307 0.005856009269742103 0.011305274715950848
0.024672731435639667 0.003191515870433294 0.0004498972314477313 0.003191515870433294 0.02339649235051243 0.0016370750279006223 0.0004498972314477313 0.0016370750279006223 0.01950809485014275
0.014157990426375546 0.0065299369592985 -0.0019446578289924387 0.0065299369592985 0.015836382546960143 -0.005988223966330824 -0.0019446578289924387 -0.005988223966330824 0.012329020456898238
0.020453797193798185 0.00885746651382911 0.0011476970189993147 0.00885746651382911 0.025315441766279284 0.002644293931774421 0.0011476970189993147 0.002644293931774421 0.013742065026690193
0.007831884457651322 0.004093146648559156 0.001120152290543331 0.004093146648559156 0.009820613852173336 0.0002965649097094229 0.001120152290543331 0.0002965649097094229 0.016548872856354917
0.022399373180405822 -0.001215640682524074 -0.0009062215662018589 -0.001215640682524074 0.02036749037796944 -0.0004921324817469061 -0.0009062215662018589 -0.0004921324817469061 0.029044997999219457
0.010561567047639293 -0.003634985998574629 -0.0020906448898091517 -0.003634985998574629 0.028499612375790982 -0.0020539185852011736 -0.0020906448898091517 -0.0020539185852011736 0.014472000330773758
0.014609723973053676 -0.0034421728993827448 0.0017940799800997284 -0.0034421728993827448 0.024943587932123507 0.0020924812050395506 0.0017940799800997284 0.0020924812050395506 0.010455060764276157
0.0028894420150326746 0.001760108148337349 -0.0021723609175619027 0.001760108148337349 0.028457377125491803 0.0005049866883596985 -0.0021723609175619027 0.0005049866883596985 0.022596777067673705
0.019156440483521362 -0.003144689832058122 -0.0022999848260746264 -0.003144689832058122 0.026576072171948132 -0.00288026043888068 -0.0022999848260746264 -0.00288026043888068 0.014978823334363857
0.024778319561387603 -0.004637614114372431 0.0037919909507737356 -0.004637614114372431 0.016962043783194672 -0.0036900754554865965 0.0037919909507737356 -0.0036900754554865965 0.02250312499092336
0.021361855075230446 -0.0025120792351857 -0.0029996209288566085 -0.0025120792351857 0.0045659978203868735 -0.0004067438235333571 -0.0029996209288566085 -0.0004067438235333571 0.018110658959809185
0.007825457354344926 -2.8462886071183002e-05 0.000977837860187416 -2.8462886071183002e-05 0.028963281971466703 -0.0038277990977665143 0.000977837860187416 -0.0038277990977665143 0.022485679996234572
0.00956169340468709 -0.005935888982264455 0.00032594595339580535 -0.005935888982264455 0.009963846440144449 0.0011357609700017217 0.00032594595339580535 0.0011357609700017217 0.02011040624571359
0.022592186279597706 0.0033127126756396217 0.0033430118769412036 0.0033127126756396217 0.00679987529816714 0.005248188928480066 0.0033430118769412036 0.005248188928480066 0.028108477231716014
0.0309795560944447 -0.0033466845074020014 -0.0003975622473813626 -0.0033466845074020014 0.012408900169420591 0.002600222366244847 -0.0003975622473813626 0.002600222366244847 0.018561474348872117
0.016396458692231806 0.002150325134797116 0.0016517655497438135 0.002150325134797116 0.0054933370117383196 -0.00865638999610043 0.0016517655497438135 -0.00865638999610043 0.02174839943122941
0.022817134895321577 -0.0044870362654797205 -0.008285454319559852 -0.0044870362654797205 0.019877194211452932 0.001447016401554336 -0.008285454319559852 0.001447016401554336 0.016334942132013447
0.013696157145930222 -0.0011844233236072926 -0.0005784392975756546 -0.0011844233236072926 0.014510562950612135 -0.003963686424816033 -0.0005784392975756546 -0.003963686424816033 0.016227517691035108
0.028180093525701572 -0.001796834452945327 -0.004532944146239694 -0.001796834452945327 0.025458674354250393 0.00540886651113997 -0.004532944146239694 0.00540886651113997 0.02728580800849731
0.03044151573193782 0.003085927744685357 -0.00694953498944465 0.003085927744685357 0.021662092615400665 -0.0026167492033184374 -0.00694953498944465 -0.0026167492033184374 0.019685299269876246
0.020366572220354238 0.001234003834828063 -0.0016719650172782015 0.001234003834828063 0.024433092298072612 0.00019373125680708432 -0.0016719650172782015 0.00019373125680708432 0.02941042473006884
0.020690681858519643 -0.0016389113431310213 -0.0005215135254332886 -0.0016389113431310213 0.017775531430261383 0.003858098299068096 -0.0005215135254332886 0.003858098299068096 0.011959002937972857
0.023197252148014148 -0.002266931151927446 0.008384615342001392 -0.002266931151927446 0.023048510614351838 -0.004362166829812595 0.008384615342001392 -0.004362166829812595 0.019395161463473216
0.02208444511839241 0.000994364697261006 0.0022485679996234573 0.000994364697261006 0.019919429461752104 0.0018996681058476657 0.0022485679996234573 0.0018996681058476657 0.03257806850250695
0.018690016415000038 0.001311129074504817 -0.0016884918543517914 0.001311129074504817 0.025626697197831897 -0.005415293614446366 -0.0016884918543517914 -0.005415293614446366 0.03104749975796946
0.02510518367239861 0.0004746874870581165 -0.004747793028196365 0.0004746874870581165 0.02345892706834599 -0.0011522878070753118 -0.004747793028196365 -0.0011522878070753118 0.022586677333906513
0.02122045880248973 -0.0020952356778851486 -0.0011779962203008966 -0.0020952356778851486 0.018911292400263107 0.0022044964340938835 -0.0011779962203008966 0.0022044964340938835 0.017106194528780986
0.028821885698725985 0.001605857668983841 -0.0006142474445684332 0.001605857668983841 0.02237733739764104 -0.004901125349934673 -0.0006142474445684332 -0.004901125349934673 0.022028437503865246
0.02051439559640135 0.010795697239515152 0.0059707789716420346 0.010795697239515152 0.019663263487111456 -0.005045276095520987 0.0059707789716420346 -0.005045276095520987 0.0321465344233632
0.016856455657446732 0.0026644933993088087 -0.0008548047397506895 0.0026644933993088087 0.017672697777359046 0.006974325245055035 -0.0008548047397506895 0.006974325245055035 0.021445407418213592
0.004778092229497947 -0.0019685299269876244 0.0033246487246372147 -0.0019685299269876244 0.014238788296513098 -0.005210544466256888 0.0033246487246372147 -0.005210544466256888 0.02280887147678478
0.02032800960051586 0.0008492957940594928 -0.004549470983313283 0.0008492957940594928 0.012964385526616258 0.0032934313657204334 -0.004549470983313283 0.0032934313657204334 0.020924812050395505
0.027885364931222546 -0.0050296674160625965 -0.0052289076185608775 -0.0050296674160625965 0.0123914551747318 -0.001860187328394089 -0.0052289076185608775 -0.001860187328394089 0.027573191342054732
0.015838218862190542 -0.0029729943580158245 -0.0010990346653937438 -0.0029729943580158245 0.007673961347837017 -0.007857592870876909 -0.0010990346653937438 -0.007857592870876909 0.010590948091325676
0.029597728883569523 0.001441507455863139 -0.0021356346129539246 0.001441507455863139 0.017614853847601482 0.0022467316843930584 -0.0021356346129539246 0.0022467316843930584 0.028075423557568837
0.01887272978042473 -0.0012982748678920246 -0.009581892872221477 -0.0012982748678920246 0.01498616859528545 -0.004569670450847671 -0.009581892872221477 -0.004569670450847671 0.008952036748194654
0.008778504958921957 0.003543170237054684 -0.002455153463043334 0.003543170237054684 0.02448267280929338 0.002681020236382399 -0.002455153463043334 0.002681020236382399 0.017923354806308495
0.017041923495717023 -0.004113346116093543 0.0070716499522661775 -0.004113346116093543 0.02434311285178306 0.006110338929152351 0.0070716499522661775 0.006110338929152351 0.020087452305333604
0.03205471866184326 -0.0013717274771079808 0.003521134454289897 -0.0013717274771079808 0.017178728980381742 0.0022044964340938835 0.003521134454289897 0.0022044964340938835 0.020091124935794402
0.02684325603797117 0.001311129074504817 -0.0035486791827458804 0.001311129074504817 0.02265921178550727 0.003288840577644436 -0.0035486791827458804 0.003288840577644436 0.014156154111145146
0.001036599947560181 0.004205161877613489 0.004320849737128619 0.004205161877613489 0.0025882863172472545 -0.002864651759422289 0.004320849737128619 -0.002864651759422289 0.012231695749687096
0.003106127212219745 0.0008584773702114874 -0.0037901546355433363 0.0008584773702114874 0.017470703102015168 0.0006977997875515833 -0.0037901546355433363 0.0006977997875515833 0.008915310443586677
0.020738426054510015 -0.001952921247529234 0.008100904638904763 -0.001952921247529234 0.01650939207890134 0.010395380519288193 0.008100904638904763 0.010395380519288193 0.016003487232926442
0.017589145434375897 -0.0026938744429951915 0.0033981013338531705 -0.0026938744429951915 0.01484018153446874 0.0006004750803404414 0.0033981013338531705 0.0006004750803404414 0.01713098478439137
0.021524368973120746 -0.0025010613438033063 0.0020658546341987666 -0.0025010613438033063 0.01220874180930711 -0.00140661746648556 0.0020658546341987666 -0.00140661746648556 0.024896761893748332
0.02476821982762041 -0.0007822702881499328 -0.00018730415350068813 -0.0007822702881499328 0.03462739629963212 0.00614614707614513 -0.00018730415350068813 0.00614614707614513 0.02242049080555541
0.02096521098546428 -0.0013285740691936067 0.0028104804601255216 -0.0013285740691936067 0.01899209027040066 -0.00078686107622593 0.0028104804601255216 -0.00078686107622593 0.03262581269849732
0.0034486000026891406 0.0038929882884456753 -0.008661898941791627 0.0038929882884456753 0.008633436055720445 -0.0046862764679780015 -0.008661898941791627 -0.0046862764679780015 0.015955743036936074
0.018599118811095293 -0.0010356817899449815 0.004580688342230064 -0.0010356817899449815 0.014894352833765506 -0.004240051866991068 0.004580688342230064 -0.004240051866991068 0.0026700023450000054
0.020877067854405133 0.00012027864759112817 0.0008015515980691213 0.00012027864759112817 0.022534342349840142 -6.977997875515833e-05 0.0008015515980691213 -6.977997875515833e-05 0.010738771467372787
0.023183479783786157 -0.003085927744685357 0.006574008524828074 -0.003085927744685357 0.029534376008120762 0.0017142002675773762 0.006574008524828074 0.0017142002675773762 0.015381894527436414
