2.4346446437498583 9.98072275626489 3.948072395270041 7.205051114812485 1.1623815086074174 5.873822432407354 7.125898012907315 9.207228508080457 3.7930030145669313 3.959028615590248 1.0604460698517626 10.38559183077984 0.3831440288965326 6.8371499673643585 8.995131415001225 5.679975059084036 2.847265057811077 3.1787625927472623 5.1003388316673535 6.0903701572590325 4.1266832756116125 3.6241026035470587 9.378865312319274 8.213672878381892 6.600510514870084 3.637891044086096 1.046916362212416 9.136146169054507 6.738724991037831 2.726661454733343 8.09976651785169 1.781935005198499 0.35690233735019355 8.936155220294104 10.58512493942968 4.5267929424655975 4.259850863118738 2.8963391291967286 5.356186273916393 0.19488336966652142 8.703221078462057 2.8921227412017796 2.989589447529455 3.351219250207319 0.1353513783600655 7.2543913723089295 6.724137992166418 5.608658476280588 4.786185983710389 6.186165214810932 9.543602572566357 10.331587992622316 3.082019912640942 3.3782318167305116 7.143349174330851 5.996491639704836 7.677041679024799 7.989086332984289 5.424319270834767 0.4232912828706567 6.706324817632203 7.1343946735638015 2.5995842054411424 0.906932280780123 3.7734223642570566 6.855431629453567 10.356439127925876 4.5707030033018805 1.5778767326651917 6.257822515836194 7.582524314804701 10.300369685548606 4.610567035254121 5.531517741373005 7.075248119745773 8.871780771260116 3.7375511239666985 5.626642009925709 1.2667158165935315 10.565682705897416 0.21326405298894502 8.48414990928007 0.5378918567778048 8.145092688797387 1.32573460107838 5.745882740116188 5.066746144485377 1.9644641450909324 5.978976593614708 2.1629005669643084 4.781107152716474 8.589623493820374 1.6634076537849443 1.0563893935232893 4.55146307121382 9.369612683108137 8.534959514108087 7.1838201106157 9.262861405236029 8.09018381786317 1.9382288420112523 3.148055363006273 5.963037369300471 2.696806020546889 7.87740528834031 2.449891784176036 3.552360122966343 4.1462319835881924 2.3625082077251696 1.8091072833881678 2.5523947317199 3.3616963355280998 3.305467181484353 7.455681309289997 1.6552304164614078 7.813254435639387 7.098906741272984 0.1462181601470466 0.6876258030761948 2.563468073928856 3.1100439863851452 8.97963938335312 10.5096984430756 6.180766960484067 0.9813142628354548 9.382453501092753 2.6638734749196766 6.513904201862731 10.640874958473999 6.889833522412352 10.355140139705211 1.4904079766588718 5.024859098091115 3.9351570451744027 9.89609686792183 4.702741961699248 0.9630900969461769 2.3468138746328613 8.83378004208342 9.68494739739702 10.149207916951926 0.1969841104528935 1.0740503096021308 8.80526618589536 8.146764337573162 3.7201638472097516 8.088192745754444 9.600736759386796 6.11407136856397 4.894023300914529 4.506317906823461 0.34735157969496905 4.855458257182954 5.908501158921363 9.396678486853489 8.21266137116088 4.0213694027377835 7.375974540274378 5.90621195836855 10.170023670815878 8.537653317549303 5.591803571745225 5.676259100977377 9.067587274358864 5.750876391554649 8.38986678883747 8.74870696107423 7.067400953199619 1.4802609621154732 10.287496925230695 5.981521332833881 6.62073001184586 4.16545062078739 5.118929269645082 10.598040289525317 1.3807925362346403 5.937313143553512 9.576492528415843 3.262036255647496 10.215392431539302 3.2373022422326847 7.794206157551097 3.340912523997444 0.16658246236709376 8.4906448503834 0.11268083967611464 2.7405457222722647 0.919217302165405 8.127109155152265 3.8443449916165324 4.55089875665894 2.1872406249351477
6.567825101726072 10.568465802014956 4.463011278704568 10.337232614199806 0.2713498680561986 6.139026124966114 6.003803034466958 8.41260270773763 4.727645762016126 6.659449815439607 4.4113552917561725 1.6828803133090868 0.5411318550331682 6.335697806574498 8.373698394468231 9.722086766740167 6.439063001146075 6.158590045017866 4.406458989675756 3.7543567056439295 1.4667511529985255 8.14945840332011 7.948007505115842 6.098876447906698 5.684180949965331 5.324143085030351 8.55376522554303 9.078446569999494 6.450494802090352 1.109384965937861 7.6993392242404255 7.130995638188595 9.741757128141492 0.6977358194213089 2.1327866096896244 4.5826726438959655 8.738824155912862 0.1350091433865122 8.374624434209528 1.7708008680574365 9.937534702413453 3.441812970888992 4.570123208781159 7.389754559003652 2.8941083625196122 2.852553659645816 4.655510459409641 7.141096922263193 7.894563303494599 8.527857401056652 2.227274595706706 2.3634130818122014 8.495616316270604 7.205291700191437 3.4093909358086685 1.8676092754952378 4.813341692558373 7.5989969639967585 1.8678753788691735 2.1113173894804933 5.20102237597779 1.4203959452589296 2.8751937347002645 8.923031555486098 5.26622834672699 8.756482775807234 4.8070403646635755 0.5775997258108099 6.209660604543601 5.773985516601144 6.831938022424717 0.791201968482478 0.3105554103448906 0.5622774935395932 9.122438779778541 10.17432412867638 0.3823330700168059 2.561755892608902 1.8423507432412627 9.36609367308901 9.389681076154668 9.032985469596323 2.3609968631768656 4.160590116294143 0.5338384937603389 3.4837508626212554 6.927022079999415 1.3920931904071303 6.662536614577261 1.3577871434393423 1.9615863430343636 1.9354124151740497 0.8343735154563074 7.884323645665555 1.2963491964650715 6.360168672841623 3.878041553849235 9.363368774539907 0.3535428137839565 5.7629156162454205 2.211021001626715 7.645362815871311 6.182422263187545 10.152514296148611 1.3735830397161641 7.342984230000717 1.109310456993159 9.998302068885405 10.311495095872745 7.4255507848654805 3.5612295209763687 9.186026842014213 9.586842387971096 4.448492678622637 2.3348868001262963 7.710622007295298 3.3835363319970773 0.07963409568399239 7.839054139691616 10.177815404942416 3.791951790313563 2.034040969689571 9.45645173474261 3.246599535769775 6.976038321478367 0.170438146592309 8.95442110947555 4.81955786737351 3.5236450804416926 6.9600082542324815 3.434223702664346 9.690548194861309 1.3922422082965342 4.211788405439369 1.4602688748094523 5.02204124666865 10.370868080665275 9.192338814043966 7.2624932814526515 8.948364596684776 8.269843569688614 2.946264623811006 4.31769754826577 9.875575192826268 3.6209537622224937 6.755236385921496 8.343724510428117 9.22414348929676 9.707674608007808 0.3207184304022422 4.453963763990754 3.9546261048679248 5.622125643163529 0.7195978082103688 4.846157560632121 4.15634310644613 6.681717345770545 5.990742680874194 3.7960604264071303 6.484715695978481 5.180394042430296 6.285233962741335 8.649690169779365 4.23871806688166 6.524588625529003 1.7237218591407355 6.752532775642309 5.485657188874353 2.004067085649456 1.4081445459229307 7.7412771159726885 5.013962348235962 8.780070178872892 6.841805135530252 3.5619533221534736 4.752318866847442 3.4167566771992077 9.315959797439527 3.855635649763851 0.7023724046087642 3.0444993453331026 0.30227320893451637 1.925981711601769 10.145372081592178 1.4738827234200018 0.48276793423460274 2.1465175437847055 10.297338396379368 5.886855923689704 0.5406358383441521 3.844352866708978 9.39216115959975
2.4898421345196504 8.293813952804705 8.481695433821848 3.8483394679119414 0.0759020318234587 6.658939543647949 8.92043685592171 5.587336986923571 4.2462449581640085 0.9714512628685702 5.553495113267641 1.4573296564566653 8.811714913283144 1.8142075968282823 5.638360610840799 10.082802487446484 9.688058694733206 5.710558027366282 0.557508407827998 4.852460540803374 5.109846140442587 0.7669426593401996 6.442911502723202 8.245728472054838 5.926532841059736 1.8639324763019676 9.276548324162713 7.7622974665615825 7.1270836883139275 9.127160776816485 3.5304345062928744 0.9270320738101461 0.2328276196653643 5.583419462700424 0.18533721936134864 3.448698769919731 6.732265377476839 8.307493351246942 0.23995687502471497 1.4120865098578295 10.600554411677303 9.099429389312965 2.4318989705343648 6.1504385122158105 3.9788207027029836 0.16116247545280835 2.8301025332816714 3.6142354592401764 5.299441538307355 3.145186451642223 6.4935305996826065 5.5344610553573546 4.974148636984855 9.219595186679472 10.016215221099255 9.158202898106417 0.5108813532155507 7.855040594366066 3.367516596752031 3.4927070447525743 8.263240231150151 8.935819525765316 2.8574506847198853 3.663907111482569 1.8347745989998003 3.325147720643004 5.185066863705498 6.27690641376738 4.4808173664711495 10.123329701352782 7.115128852165576 2.7891601469712897 9.449909416483193 9.712309021310183 8.760414507763194 10.088274246823378 0.4602707726131542 3.6766071288690187 9.863048540331244 3.3455443956743847 8.418706328310009 5.961556359250365 7.157412564704535 7.611025675227593 2.110278748171064 1.5183387089644134 6.991311666732386 7.095700912743723 10.536820124927367 8.07997887380922 1.9103892037742782 0.2504809631959171 3.3191756252919573 1.1923751445276243 4.324041879421489 7.548057860608272 0.28873005160288584 2.492833504918303 10.544037737490662 1.0928721583489611 0.14473974550974386 0.768569283528506 2.4400320914758966 2.9347472700032142 5.029536893868088 4.484213263827627 8.511960437534905 2.7896604829454414 5.534045882953271 2.38195053668925 1.2144218637290805 3.0462476741152624 9.162269458577182 5.0159107226571455 10.230901935795426 6.676525820867073 10.406605026292787 5.828264726647065 0.8834900695234266 5.795572561187059 7.755569544526179 0.009513835321265783 0.3634344707222577 3.3969193193181453 4.439864334714509 2.3301391497488892 6.442240839608914 5.079932436456062 1.818966111305854 9.959038529244587 3.723457737852896 1.4019201086809148 2.4323567247234825 4.042778543824349 10.079055290363476 10.205799973517767 1.0953419018809447 7.291353569529606 7.483652910744047 9.484741316641166 5.324447691568688 7.611600529325554 0.8479353435644966 2.5139434248490065 4.253345470818461 5.288391565090981 0.4788822063069765 9.41006351113744 7.73942040255196 7.142892176007874 5.2366227599356545 9.20493640718145 8.219742937737717 0.8414852676764415 7.816355042662497 5.306808187118271 6.5568390685822 7.3349998991896594 2.5665106384737246 7.704907865781741 3.648747996010395 9.236755646048254 3.665929746271694 6.827637930507185 6.881940351872047 7.328697795004598 7.230131608096688 5.473324257494505 8.480098616883065 5.044046637118492 0.5590881920527668 3.663864529697535 4.648355399688203 7.347018608015562 7.819527385647545 3.987794813898941 6.36447585469021 1.77716144384853 8.068194364801005 2.2258457127538787 5.511690445810316 3.876454091480771 4.249342783025247 3.5317332507364174 2.3334073017502637 8.708060203063646 4.63663476335754 9.323846041889448 10.560176234018625 3.0030910349831026 7.550878903866787 0.049919691140216674
2.8079488177676857 10.519897740767458 6.931146705904131 10.661276862357234 3.8338131666241373 0.8848015881677224 5.923793744906273 0.8324192769473069 10.470273968349758 0.19621002343282748 7.8894316636347765 0.8238860829136452 4.0069566327380155 10.276876991847868 4.536155742686323 8.562617735032847 6.940755099486623 2.1361307935092797 7.717196666324582 4.529593391563242 3.0546461933751266 0.03555640018936118 9.878529453234881 9.838278941297544 7.143632215151662 3.7889027441173155 8.866858593452456 8.94659009081107 4.975256123045742 7.446740159533736 5.227169178373157 2.382667851092541 8.208090456362264 0.060004898876737545 3.1506018747807074 8.782445809787802 8.98063095127852 2.038400925969446 4.163833163331813 0.23338884202688534 6.519033192948264 3.887295259490424 1.05439881958675 9.923728448185226 5.3295162050093605 2.9632114802514087 8.653069164274932 8.391355333736009 4.140629801298897 4.793882998357315 6.238786598814189 0.7963049700338011 4.124031541862178 6.3715512985713865 0.7003193625970405 6.6876236271754435 6.480129352414035 7.620706591505069 4.870279880812994 0.38655881990165175 2.5989154899741527 7.789222210654299 4.376446926998689 7.8144348919235975 9.26186082929423 4.2213552704074235 1.689773350588668 3.368174809328869 4.173345366099798 5.248309781828296 5.499431934903092 8.456230694187319 5.928934609548296 7.650825004314261 6.99188586133161 8.487578211848554 6.81076924548187 5.023757669294185 2.6923808980708115 3.4679567475782003 8.414868643949005 1.6972227947788763 1.0702403779493421 8.74348852991218 10.086761190907517 1.5805540246493022 0.45563023743915493 5.221109157059171 1.0749323521236624 6.288217989602873 5.783975052085177 6.087104372203808 3.3268555105636683 1.3667966590766127 6.221750136778045 8.913137063098944 8.811153423984214 1.857316373724542 7.746844812929513 7.434128474964948 10.259284760661235 1.8164673411636012 4.215359376303109 3.9625057885671753 3.9630188062445497 2.3308530656777213 5.61590832340365 2.641859344717706 9.902374087364516 5.957674287349545 10.138490473376109 1.8636115281406578 0.4659611309172831 0.9402395609289994 2.1461667018229176 4.186876207340549 0.6372545270321299 2.600775179054635 8.574481268822131 0.6162015640968758 1.7101871790008598 0.9550390521344245 3.3346576544070716 6.089519830434781 6.895705734692179 10.476237798849237 5.695575693552591 8.178025482894464 4.801097309445393 8.26948157175474 0.07060833299597082 9.430387136311738 3.2183629596672496 5.667135276063146 9.694676743105811 5.106321451746637 9.091549648274189 2.2759281105938185 7.755373731815864 2.531453665399412 1.4469663590346502 7.24383098026386 2.522379665230851 5.796490545839458 3.1938556777043408 7.089551601661772 6.505919178570379 5.86082082500856 2.448227235113685 3.5642758165052544 10.687098752118416 1.228228446844117 6.27790419671399 10.227295970903281 4.337746155961753 3.2701777450820697 6.543112960180027 9.8879240894518 7.451122185527977 5.424948180869288 9.387336402885397 9.520710311134478 8.194837499696757 7.3796951618218625 8.175663464004886 4.143344519841671 7.023468512094975 1.0761400812391482 9.73045972610268 0.6577474456695837 2.595281614759417 8.537832568494695 10.189792241113553 6.272314441604266 6.861483180463991 4.991982636901805 5.466898063862928 10.379330897166858 8.91308362375755 3.1330203314623533 10.067704721766711 8.695617567892175 7.522966036096958 4.354643675710275 0.7283140959792678 2.276676261373323 3.6554433329220064 2.2825118374534576 0.10524023257923011 7.981336642962755 8.391868351413382 10.618247504667451
4.277604778376172 3.4352211770942946 8.215813779958467 5.378657846240569 0.3385442423749585 10.351512940480594 10.054916300339052 1.9414243365642543 5.747571364645446 6.509408706525938 1.9789702260551043 7.655506250555239 9.701804888315092 3.7337666024731613 7.725493059513076 6.670702458586912 5.837586178406443 2.0980261763418873 4.5208216489736 5.062403894139924 3.5920666150265927 2.599510047005431 9.352569864317548 8.648444102644573 4.667817248478115 2.6130985875461255 2.634958874121334 10.575993935617003 5.572307787975604 10.357994769639523 1.380195370662943 5.501886738829016 3.0454959033016817 6.246386246831785 4.665105895104446 10.476489385048165 0.41270399363445986 7.737058676247636 7.88410723187273 5.033987639836976 10.257155724832081 2.348169707511111 9.33969093579262 6.799883619128491 2.1148450402379297 2.6199934744455735 1.115488906334363 7.4131896340076615 1.8447476428343585 7.189968994541045 5.178917950638892 1.3041503815108122 3.144216703285945 8.93287142627695 0.27532416650476566 9.110507437148753 9.97735676613835 2.3577653565601127 1.3377351531823174 10.312420732268825 3.156407202243341 9.460600350299684 0.34040300220729813 2.541152402126846 10.122255303267918 3.1815084033980137 2.816534820364249 6.808896750851119 7.595295141456371 7.921981449311173 0.11968295075444416 6.004546235369423 6.325587420770452 5.458409763833263 5.349510797473624 4.899966289874432 7.325515480776278 0.49394397821543756 6.3705365759183135 5.429612225462143 7.974153819306075 1.7409854201709287 7.356674862125242 1.1831562372108202 4.513217150058386 1.4937227019612287 5.8081002104677895 7.5269181985641485 3.1195285598717923 5.848654007607554 8.170642209104171 9.019751237699642 3.087373603455933 7.81090069078366 2.950090156465693 9.295271341850551 7.20267846348012 8.70924832029393 8.250277623231591 8.597013118337783 0.6575582674802053 3.0342692057388323 8.754525803389383 6.090006822760585 7.8576715364794545 10.532516960621253 8.934502474790799 5.6302311926654385 8.822743877919867 7.560375875546264 10.27147505983677 0.4308298145864037 0.19168421053912604 6.985759602362461 6.858897919902263 2.1673775118527723 3.6783850915711422 7.8435852084053135 0.7629494204126599 0.5652568084325863 4.587980601092494 8.511033560964941 6.146489820970657 6.174334149171346 7.982256105754735 4.2224986393011665 4.485976521632303 2.8029145061512075 0.014463375652667115 5.888572331300365 0.07315782145813769 4.606832980018788 5.486656558550357 10.419678058890499 7.903086705488415 3.444657957781557 5.337839268497906 1.0512266540111659 1.7228850181568633 3.232812293015412 5.8135652821115915 8.474144327369277 7.98100634130906 5.928596567234335 3.732654523940992 7.631347668346881 3.0025908544081887 10.158519654640745 3.9881042583922794 1.530357746178112 0.3998017644164758 1.7831384921521938 3.178839414920808 0.5011047048401946 0.20969035065856026 1.3870373014418116 0.19549069648637893 8.545635090151574 3.041820748533466 5.27502271826653 7.296357840785217 8.413350700944036 10.098319136765994 2.0337480371825167 10.44764948178058 2.2234050874258604 5.301786741607398 9.50507290036233 9.224087724567617 10.414986146607157 8.875964779102244 3.661820417053882 4.582420208431649 6.307868302824558 8.414081495408034 5.749742565589204 4.363520788404317 7.968815842351664 3.4173961469072416 1.5049388082999622 10.578715880214789 4.823465878085318 5.016988725130964 2.7732696698508157 9.640227511305275 5.367049864609547 2.595273557359073 2.124578375200438 3.8319790236998617 6.821627402238425 8.841786898880247 1.0915951047289023
2.1761866052636476 5.395604696207546 5.087085244730625 1.8369184493565733 0.2877212364104764 5.115801064928808 9.399173288671514 8.660874437786646 3.5317052964423765 4.4490256802158425 2.6194192280705932 0.08124086566817348 6.6050856672457 8.73008829203008 0.1453618659587422 4.874260359377448 4.527701493004934 6.40356404395719 9.185518220228841 2.2581937937836627 1.0720430962349148 9.148670863102783 7.408777401487734 1.3165107293453926 5.384993253384126 0.19036949711962328 4.909000328660944 3.7732034285019673 9.586496652455066 9.068079243184085 1.527175009991293 4.470067628522666 9.288939875108658 9.756875766514561 0.9416809357636817 7.2116834213432 2.112666955544316 2.536496709477545 0.4190072416530966 7.228063572301318 2.914144868214363 7.54136189822931 7.060739106276249 0.44099432147719103 7.9537606696225644 4.1553218038745285 7.20472265543897 5.301794007094579 6.705548464447573 3.4180447167921177 1.6301389998345932 10.165208769443877 4.860615555265487 4.86365955992697 0.4632102338195438 2.2954988159462397 5.963077411369345 5.906082149263611 1.1367228736049515 2.3309199610980387 2.8684954416650643 6.639995930496272 9.174938707524248 1.4374939495799175 6.483240333802853 1.0988963261682048 0.3922881182188791 6.60143499032651 3.33877287511826 3.637660074082448 8.073072880305157 0.794919466263034 3.4778285426087208 0.13675563459764106 6.907964131063232 4.268971740151845 2.259439068417906 7.612363839127041 2.5174131417920953 4.072548292502672 3.007902340462619 0.11742514065993155 3.975108213216398 1.8346407675469325 6.192729469344214 9.21174349115854 6.231929011890511 7.643846936290209 1.6103955430267245 5.219414300521586 4.655166527361288 5.093779926311298 9.00207968756921 0.9795958231958493 9.734812054405282 7.515370781504341 3.8053357714146117 2.300298977143193 4.671791475897079 9.86073379968501 5.4515569077649415 10.359695123217561 9.021333549221737 9.824727269021388 9.880966851648221 8.910759547724728 3.3815166608543255 9.360207900329947 8.004870146491236 10.409208094144896 1.765160828979942 0.24135976821134153 8.303704128590713 10.12657332566352 1.5758045809644208 7.150973622080621 7.113636669799218 6.906899793769007 6.021903333621146 6.465327537141051 2.1221076273440893 3.50070115106161 7.239994793369578 1.6622606993742957 9.696400121456712 1.6499782469989421 6.30590045383913 3.260480223755089 4.319783202578134 8.298659169816087 5.327625473225413 2.9025223049614284 4.820681619986176 8.16326482261776 7.75799711109581 3.394118414417946 5.0610941280056565 0.9961036946292747 5.804342147308669 6.3891954904851564 0.9870759856996607 10.595765135076608 10.640169286991663 2.940167915058157 7.028766413957738 5.299846269846148 10.185899486443606 1.4066600981662272 8.581634526231616 4.708500469174889 1.7143067930618845 0.15229602343061632 9.875815459144174 9.498348237747374 2.584849552754174 3.9108648141369935 10.085734703684118 1.1745387776687561 9.472144253563561 6.747706864671815 7.267678206392363 8.537283591181271 5.488319117907463 0.5016253597799969 10.026951354924085 3.4017603561904792 1.0387335962748578 2.4068072101762614 8.975343534738286 8.320531301212407 7.723235855066431 8.84877254370908 4.810740709658116 6.770302745428205 5.2853925693905754 5.364802774912683 3.490057778119363 9.96725267609102 6.375082377963737 7.845070545136335 8.819886429543821 9.463725345566244 5.877302468827774 5.763939903619899 9.033892729293587 2.731153357218305 7.070807737079615 7.29054017147231 4.302445148055213 3.6515496757720807 8.909099181545738 3.4036016597094885
3.375589706646472 8.125895493257525 3.8097519559161865 3.840384077805585 2.9260742086323326 3.693609144825999 4.210243308804526 0.5531483332761704 3.36217022348785 1.263800811007443 7.50186296366747 8.721612169626892 0.19184654624868966 3.0692791128381276 4.645627442922413 3.2791670544972225 7.989012515005318 6.2891369393136305 6.380151422874013 2.7071868194393076 4.217000863269201 4.306474709412323 9.192569090455047 10.472020652604732 5.538325887911469 5.5323120894413345 7.374489437059734 8.584357313377414 10.12036219330074 7.943728400023488 5.276693779203686 9.938152599724157 6.487039784374999 3.884786310679603 7.117362364661734 1.176526357591031 8.532273143588366 8.92232003729624 5.84079020071948 6.7622295023546775 1.3342345036903498 6.024497931370779 9.451778679637759 1.715048197980297 10.58655907576384 9.0595111430319 10.365387293159017 3.638560576144427 8.323681462376896 10.061265466991745 0.41978225836957134 0.8338471581582599 3.2168190519835256 9.19052907401288 1.9147148072572895 6.208662540704437 0.22949972472654226 1.0228429939307353 9.865785141455447 1.7707661470569547 6.244936583066701 8.170212725446454 7.322267141157412 8.899752355404779 4.161346664706361 3.748625838250662 9.07905067551702 3.8095713294603697 7.506336124720344 9.943985771738475 8.198337327125689 0.550266810051611 6.2681842704388835 5.3187053678095415 3.420948197227756 0.8656533520104671 8.876653419231506 6.314159015987072 1.3837049024128742 0.8900156108658959 9.550241348229175 3.2580231340810233 2.848861711313478 5.834946403619526 9.56019705347037 7.8793935064958065 8.806538479117686 3.1607823503377794 4.06603964654892 10.20632976118389 1.0299554262556618 8.880223448005296 3.7710022686006694 1.6300581379756853 0.7763813824944341 4.61466594337829 6.940220936933656 7.33576099991549 5.00438345943144 10.048100985888393 7.054376857009859 4.128748901974251 7.270321097481634 9.226452488549148 2.428533323542202 5.023019859637477 5.66494503343903 10.16415879629349 0.22336480028015362 0.29207722908998285 7.4516275587791325 9.172785181000291 1.3572803144354433 5.5801355998902356 3.320254260652721 0.35977283720441994 6.867375349811314 5.499820577565587 9.303718111296183 4.240567303210472 4.0294999770457505 5.818339394770018 3.775794182222633 2.563397535523517 2.735470797403088 1.6287406273567866 1.3876149339270254 4.849065957600285 3.0299025454700703 9.98611423628633 5.879125509695181 1.7911450613073416 3.019946840228875 0.18302453764488555 1.1190127690418419 9.543791921247951 5.114087468626042 9.308775652059053 7.638799067347859 1.8976827949823312 8.652464112305976 9.538702505228173 6.509331214039917 6.4988655046881805 3.752854622333902 5.712014162807755 6.039861805200841 6.141937002908593 0.7548549589953288 1.6058754430675097 0.14386897205806284 1.626721861085893 2.3135273966150964 6.5401120871282235 8.584601690347048 9.754285492788314 7.598859370441079 6.744485609342087 1.7929619509511456 3.9575575222024915 1.6637609096139687 9.02014520074948 1.4373403347048208 5.987628884212883 7.0125140196029125 2.707877450005666 9.401957653089237 8.89955047877769 5.9331965704982155 4.163482306919254 1.2509869577300883 7.957562261521925 1.9960073374604754 2.633129972554429 5.279668803181845 2.8495735920511094 7.240889610269137 5.8937881278732505 2.0999631753258488 10.493918954101106 0.8691660053218216 3.7660828539510716 6.848951451318003 7.3321484707991536 4.597995184014965 5.875757357548482 7.333040977992601 6.444635067600602 9.95505711097148 8.528394987331122 3.940939888267348 0.8702954519249583
2.7681772201681705 9.634496953947936 4.379358692885705 7.718199302726852 4.492138823778706 2.0588831174760007 3.549589302597962 9.147119166970914 1.8007631257980539 5.93589169202884 9.710719731759493 1.4152550664783496 10.510608764266216 4.345255644657868 2.005477872561069 8.740229718206038 9.309531986846665 8.83694433392194 4.760504734408825 4.1274226920397705 1.671853174797292 8.53130299848465 5.136184856825661 8.973903118743916 4.744407066766396 5.00883965913768 5.1800193845603735 7.675050694252536 10.284791282757565 6.976077532931646 4.289717619542642 6.747505656892965 3.179171467006981 6.563100550730751 6.764675073379764 2.554663415392881 1.3212841278040333 9.54618484917189 9.610371887461179 7.077507843562773 2.1921014988311276 6.914023274842652 8.871293884383983 2.889756409073444 5.345411666223472 7.552571236317991 2.3271847231754577 2.5197351205548797 8.870983077219114 8.662227837312827 4.905576657982679 3.6184598833371453 2.048197781497637 8.261372334541752 6.278519080085322 1.2537425156318682 4.619119626859604 0.35352064331065236 1.751505548910832 10.358549038227073 5.674910130936427 3.994643727710835 8.046293776453682 2.4040505502936376 5.1006885351001445 5.97461397777591 1.126215120640343 0.9931692908491595 8.288894844865158 3.2084730804120425 6.030044828006701 0.8335987489086755 4.072999285722688 7.920127502494506 5.522636055128411 0.4596323528939864 4.968177507982301 4.410953848817718 1.4765591003762844 3.990185252518258 0.4470950349125522 6.991650043640334 5.828159498192821 6.951984618910219 1.9231782788019363 0.21327909177837204 0.7426490702266365 5.39914915328016 0.3097900752138442 7.756632216285943 4.2381236301746945 0.6739156733395327 5.487536280475311 6.194226033475662 3.2882433468984633 10.4385658069477 1.602178782424832 6.928641929079853 3.3775093081459975 4.873799304747124 8.717883754800933 8.436999817668578 0.4498933711452009 8.757141914970187 3.754336201826309 2.5692284821878624 7.295083576458223 7.192645821913387 1.0763252119349436 0.2541620231956904 5.923727342645247 8.999592938543453 6.255154955278067 0.4690273032637293 10.452198452248078 7.718274325145958 9.155007238465473 9.687259149556246 0.463877550066534 4.916937195732996 2.012476392514802 4.27610640921915 8.558975553646269 8.097812743402523 8.537454836851332 2.1150856268747367 7.046084167445859 0.8772307161118017 0.5928518059979578 10.6984649017073 5.462253725236635 7.931734542479028 0.3518830110764558 8.553895464123958 6.749327629928393 6.412937820146142 8.108808886545756 6.499267189560104 6.2753145510406565 9.323914856338103 4.098678388033781 10.396467512340866 2.8080034072249402 7.150065240326587 2.7568917048369594 2.6674649812627695 5.703225735404669 3.4157278719362134 8.322086906575283 10.273098502865494 9.196773290930551 0.3193072049518453 10.346770518427453 4.9662912300162105 3.1155953255589828 4.080512245121718 6.196080158976421 6.261413968529184 0.10545365579289119 8.084823147408766 5.091878759599427 4.709382314532402 4.072667043580934 5.841567076235883 8.949917379606928 1.0712987098548508 2.5379012634669427 4.029154040499533 2.759903319089638 2.4443590243303737 1.7569285980633418 10.686836426745892 9.581756193316513 1.3721386104693654 0.6433311765677606 6.962680672377027 0.6870756773995456 6.747141262285879 8.38583452783838 10.154016488767601 8.81209047822101 2.7267969972870643 8.791094918359814 9.97373761565621 1.3397610778809632 2.530892026024766 4.506414518385708 1.5637565863541858 10.549245310105736 9.80001784547236 6.253043610054659 5.72231358232289