An instance of this daemon is already running

     Program PWSCF v.7.1 starts on 10May2023 at 10:46:50 

     This program is part of the open-source Quantum ESPRESSO suite
     for quantum simulation of materials; please cite
         "P. Giannozzi et al., J. Phys.:Condens. Matter 21 395502 (2009);
         "P. Giannozzi et al., J. Phys.:Condens. Matter 29 465901 (2017);
         "P. Giannozzi et al., J. Chem. Phys. 152 154105 (2020);
          URL http://www.quantum-espresso.org", 
     in publications or presentations arising from this work. More details at
     http://www.quantum-espresso.org/quote

     Parallel version (MPI & OpenMP), running on       4 processor cores
     Number of MPI processes:                 4
     Threads/MPI process:                     1

     MPI processes distributed on     1 nodes
     153202 MiB available memory on the printing compute node when the environment starts
 
     Reading input from pw-si-42.in
Warning: card &CELL ignored
Warning: card / ignored

     Current dimensions of program PWSCF are:
     Max number of different atomic species (ntypx) = 10
     Max number of k-points (npk) =  40000
     Max angular momentum in pseudopotentials (lmaxx) =  4

     IMPORTANT: XC functional enforced from input :
     Exchange-correlation= PBE
                           (   1   4   3   4   0   0   0)
     Any further DFT definition will be discarded
     Please, verify this is what you really want


     gamma-point specific algorithms are used
 
     K-points division:     npool     =       2
     R & G space division:  proc/nbgrp/npool/nimage =       2
     Subspace diagonalization in iterative solution of the eigenvalue problem:
     a serial algorithm will be used

     Message from routine divide_et_impera:
     suboptimal parallelization: some nodes have no k-points
 
     Parallelization info
     --------------------
     sticks:   dense  smooth     PW     G-vecs:    dense   smooth      PW
     Min        1908    1908    502                89172    89172   12102
     Max        1909    1909    503                89177    89177   12105
     Sum        3817    3817   1005               178349   178349   24207
 
     Using Slab Decomposition
 


     bravais-lattice index     =            0
     lattice parameter (alat)  =      20.0269  a.u.
     unit-cell volume          =    8032.3104 (a.u.)^3
     number of atoms/cell      =           64
     number of atomic types    =            1
     number of electrons       =       256.00
     number of Kohn-Sham states=          154
     kinetic-energy cutoff     =      30.0000  Ry
     charge density cutoff     =     120.0000  Ry
     scf convergence threshold =      1.0E-06
     mixing beta               =       0.5000
     number of iterations used =            8  plain     mixing
     Exchange-correlation= PBE
                           (   1   4   3   4   0   0   0)

     GPU acceleration is ACTIVE.
     GPU-aware MPI enabled

     Message from routine print_cuda_info:
     High GPU oversubscription detected. Are you sure this is what you want?

     celldm(1)=  20.026889  celldm(2)=   0.000000  celldm(3)=   0.000000
     celldm(4)=   0.000000  celldm(5)=   0.000000  celldm(6)=   0.000000

     crystal axes: (cart. coord. in units of alat)
               a(1) = (   1.000000   0.000000   0.000000 )  
               a(2) = (   0.000000   1.000000   0.000000 )  
               a(3) = (   0.000000   0.000000   1.000000 )  

     reciprocal axes: (cart. coord. in units 2 pi/alat)
               b(1) = (  1.000000  0.000000  0.000000 )  
               b(2) = (  0.000000  1.000000  0.000000 )  
               b(3) = (  0.000000  0.000000  1.000000 )  


     PseudoPot. # 1 for Si read from file:
     /home/ppiaggi/pseudos/Si_ONCV_PBE_sr.upf
     MD5 check sum: 8553c464762ac42b85b1eed164b4d029
     Pseudo is Norm-conserving, Zval =  4.0
     Generated using ONCVPSP code by D. R. Hamann
     Using radial grid of 1510 points,  4 beta functions with: 
                l(1) =   0
                l(2) =   0
                l(3) =   1
                l(4) =   1

     atomic species   valence    mass     pseudopotential
        Si             4.00    28.08500     Si( 1.00)

     No symmetry found



   Cartesian axes

     site n.     atom                  positions (alat units)
         1           Si  tau(   1) = (   0.4221930   0.3126750   0.4482340  )
         2           Si  tau(   2) = (   0.4682200   0.0880076   0.3465430  )
         3           Si  tau(   3) = (   0.2728750   0.1349340   0.6169380  )
         4           Si  tau(   4) = (   0.2227800   0.4101180   0.2367320  )
         5           Si  tau(   5) = (   0.8985250   0.3693510   0.7183470  )
         6           Si  tau(   6) = (   0.8325720   0.3992440   0.1325130  )
         7           Si  tau(   7) = (   0.9764240   0.2224380   0.1629900  )
         8           Si  tau(   8) = (   0.9884940   0.5286980   0.0047440  )
         9           Si  tau(   9) = (   0.4512600   0.6574170   0.0965786  )
        10           Si  tau(  10) = (   0.6961080   0.4764160   0.4913720  )
        11           Si  tau(  11) = (   0.9536590   0.2208730   0.9123510  )
        12           Si  tau(  12) = (   0.4689500   0.2963370   0.0676938  )
        13           Si  tau(  13) = (   0.2709000   0.8720490   0.7256780  )
        14           Si  tau(  14) = (   0.4025320   0.6874770   0.7916950  )
        15           Si  tau(  15) = (   0.5853230   0.7444450   0.5902050  )
        16           Si  tau(  16) = (   0.0846693   0.1210280   0.7646170  )
        17           Si  tau(  17) = (   0.7357570   0.2776780   0.9277440  )
        18           Si  tau(  18) = (   0.1234860   0.4337670   0.6521540  )
        19           Si  tau(  19) = (   0.4177560   0.6213810   0.3006380  )
        20           Si  tau(  20) = (   0.8548230   0.6401880   0.2487250  )
        21           Si  tau(  21) = (   0.7384390   0.5510860   0.8929290  )
        22           Si  tau(  22) = (   0.8777480   0.8645030   0.3823890  )
        23           Si  tau(  23) = (   0.3466980   0.6940400   0.5193250  )
        24           Si  tau(  24) = (   0.2494510   0.5566820   0.0536859  )
        25           Si  tau(  25) = (   0.6063680   0.1413140   0.1579210  )
        26           Si  tau(  26) = (   0.6635610   0.8919280   0.2590000  )
        27           Si  tau(  27) = (   0.5575010   0.8833500   0.0567493  )
        28           Si  tau(  28) = (   0.2737770   0.8097860   0.2780980  )
        29           Si  tau(  29) = (   0.2768530   0.0495432   0.8937650  )
        30           Si  tau(  30) = (   0.8264610   0.0154898   0.0880416  )
        31           Si  tau(  31) = (   0.4512330   0.2279930   0.7391610  )
        32           Si  tau(  32) = (   0.7761320   0.6004940   0.6767350  )
        33           Si  tau(  33) = (   0.4675460   0.4027210   0.2531210  )
        34           Si  tau(  34) = (   0.4813700   0.4857960   0.5786760  )
        35           Si  tau(  35) = (   0.1088890   0.6759980   0.1818040  )
        36           Si  tau(  36) = (   0.6284990   0.6843750   0.3652000  )
        37           Si  tau(  37) = (   0.5914070   0.1891770   0.5527870  )
        38           Si  tau(  38) = (   0.0688425   0.1067090   0.4068240  )
        39           Si  tau(  39) = (   0.6558420   0.0093195   0.7879800  )
        40           Si  tau(  40) = (   0.1929960   0.2977840   0.4772630  )
        41           Si  tau(  41) = (   0.0340668   0.4855170   0.3295610  )
        42           Si  tau(  42) = (   0.0171742   0.9290110   0.1977030  )
        43           Si  tau(  43) = (   0.5341320   0.4900020   0.9572680  )
        44           Si  tau(  44) = (   0.0287971   0.9160720   0.6843480  )
        45           Si  tau(  45) = (   0.8548490   0.7400330   0.0154708  )
        46           Si  tau(  46) = (   0.2166190   0.2182790   0.0861197  )
        47           Si  tau(  47) = (   0.1586440   0.3700950   0.9133560  )
        48           Si  tau(  48) = (   0.9843060   0.6811800   0.6822920  )
        49           Si  tau(  49) = (   0.7842080   0.1864300   0.3135970  )
        50           Si  tau(  50) = (   0.0963345   0.8322830   0.4593580  )
        51           Si  tau(  51) = (   0.6412980   0.9452540   0.5253920  )
        52           Si  tau(  52) = (   0.6822850   0.4009810   0.2928220  )
        53           Si  tau(  53) = (   0.1024340   0.8579050   0.9671270  )
        54           Si  tau(  54) = (   0.3239960   0.8962810   0.0669402  )
        55           Si  tau(  55) = (   0.5274500   0.0985364   0.9292090  )
        56           Si  tau(  56) = (   0.7911490   0.2662640   0.5630490  )
        57           Si  tau(  57) = (   0.1608420   0.6509960   0.8430660  )
        58           Si  tau(  58) = (   0.1237540   0.6119310   0.5105270  )
        59           Si  tau(  59) = (   0.3842860   0.4309400   0.8019540  )
        60           Si  tau(  60) = (   0.2242270   0.0590199   0.2627190  )
        61           Si  tau(  61) = (   0.8984250   0.0523866   0.5508970  )
        62           Si  tau(  62) = (   0.6359030   0.7846050   0.8637320  )
        63           Si  tau(  63) = (   0.3787780   0.9325710   0.4912560  )
        64           Si  tau(  64) = (   0.8813480   0.9697330   0.8721850  )

     number of k points=     1  Fermi-Dirac smearing, width (Ry)=  0.0100
                       cart. coord. in units 2pi/alat
        k(    1) = (   0.0000000   0.0000000   0.0000000), wk =   2.0000000

     Dense  grid:    89175 G-vectors     FFT dimensions: (  72,  72,  72)

     Estimated max dynamical RAM per process >     143.38 MB

     Estimated total dynamical RAM >     551.74 MB

     Initial potential from superposition of free atoms

     starting charge     255.9608, renormalised to     256.0000
     Starting wfcs are  256 randomized atomic wfcs

     total cpu time spent up to now is        4.2 secs

     Self-consistent Calculation

     iteration #  1     ecut=    30.00 Ry     beta= 0.50
     Davidson diagonalization with overlap
     ethr =  1.00E-02,  avg # of iterations =  3.0

     Threshold (ethr) on eigenvalues was too large:
     Diagonalizing with lowered threshold

     Davidson diagonalization with overlap
     ethr =  3.92E-04,  avg # of iterations =  4.0

     total cpu time spent up to now is        4.4 secs

     total energy              =    -501.20430787 Ry
     estimated scf accuracy    <       1.24601077 Ry

     iteration #  2     ecut=    30.00 Ry     beta= 0.50
     Davidson diagonalization with overlap
     ethr =  4.87E-04,  avg # of iterations =  6.0

     total cpu time spent up to now is        4.5 secs

     total energy              =    -500.64250670 Ry
     estimated scf accuracy    <       7.29583376 Ry

     iteration #  3     ecut=    30.00 Ry     beta= 0.50
     Davidson diagonalization with overlap
     ethr =  4.87E-04,  avg # of iterations =  4.0

     total cpu time spent up to now is        4.6 secs

     total energy              =    -501.31426069 Ry
     estimated scf accuracy    <       1.78198183 Ry

     iteration #  4     ecut=    30.00 Ry     beta= 0.50
     Davidson diagonalization with overlap
     ethr =  4.87E-04,  avg # of iterations =  2.0

     total cpu time spent up to now is        4.7 secs

     total energy              =    -501.43677878 Ry
     estimated scf accuracy    <       0.61840238 Ry

     iteration #  5     ecut=    30.00 Ry     beta= 0.50
     Davidson diagonalization with overlap
     ethr =  2.42E-04,  avg # of iterations =  2.0

     total cpu time spent up to now is        4.8 secs

     total energy              =    -501.45818714 Ry
     estimated scf accuracy    <       0.57642396 Ry

     iteration #  6     ecut=    30.00 Ry     beta= 0.50
     Davidson diagonalization with overlap
     ethr =  2.25E-04,  avg # of iterations =  2.0

     total cpu time spent up to now is        4.8 secs

     total energy              =    -501.50780381 Ry
     estimated scf accuracy    <       0.06291387 Ry

     iteration #  7     ecut=    30.00 Ry     beta= 0.50
     Davidson diagonalization with overlap
     ethr =  2.46E-05,  avg # of iterations = 19.0

     total cpu time spent up to now is        5.0 secs

     total energy              =    -501.51510297 Ry
     estimated scf accuracy    <       0.02650049 Ry

     iteration #  8     ecut=    30.00 Ry     beta= 0.50
     Davidson diagonalization with overlap
     ethr =  1.04E-05,  avg # of iterations =  3.0

     total cpu time spent up to now is        5.1 secs

     total energy              =    -501.51762269 Ry
     estimated scf accuracy    <       0.02339432 Ry

     iteration #  9     ecut=    30.00 Ry     beta= 0.50
     Davidson diagonalization with overlap
     ethr =  9.14E-06,  avg # of iterations =  2.0

     total cpu time spent up to now is        5.2 secs

     total energy              =    -501.51940429 Ry
     estimated scf accuracy    <       0.00171924 Ry

     iteration # 10     ecut=    30.00 Ry     beta= 0.50
     Davidson diagonalization with overlap
     ethr =  6.72E-07,  avg # of iterations =  4.0

     total cpu time spent up to now is        5.3 secs

     total energy              =    -501.51962610 Ry
     estimated scf accuracy    <       0.00149568 Ry

     iteration # 11     ecut=    30.00 Ry     beta= 0.50
     Davidson diagonalization with overlap
     ethr =  5.84E-07,  avg # of iterations =  2.0

     total cpu time spent up to now is        5.4 secs

     total energy              =    -501.51972916 Ry
     estimated scf accuracy    <       0.00083522 Ry

     iteration # 12     ecut=    30.00 Ry     beta= 0.50
     Davidson diagonalization with overlap
     ethr =  3.26E-07,  avg # of iterations =  2.0

     total cpu time spent up to now is        5.5 secs

     total energy              =    -501.51980486 Ry
     estimated scf accuracy    <       0.00015890 Ry

     iteration # 13     ecut=    30.00 Ry     beta= 0.50
     Davidson diagonalization with overlap
     ethr =  6.21E-08,  avg # of iterations =  3.0

     total cpu time spent up to now is        5.5 secs

     total energy              =    -501.51981744 Ry
     estimated scf accuracy    <       0.00020332 Ry

     iteration # 14     ecut=    30.00 Ry     beta= 0.50
     Davidson diagonalization with overlap
     ethr =  6.21E-08,  avg # of iterations =  2.0

     total cpu time spent up to now is        5.6 secs

     total energy              =    -501.51983017 Ry
     estimated scf accuracy    <       0.00001273 Ry

     iteration # 15     ecut=    30.00 Ry     beta= 0.50
     Davidson diagonalization with overlap
     ethr =  4.97E-09,  avg # of iterations =  5.0

     total cpu time spent up to now is        5.8 secs

     total energy              =    -501.51983145 Ry
     estimated scf accuracy    <       0.00003594 Ry

     iteration # 16     ecut=    30.00 Ry     beta= 0.50
     Davidson diagonalization with overlap
     ethr =  4.97E-09,  avg # of iterations =  3.0

     total cpu time spent up to now is        5.8 secs

     total energy              =    -501.51983394 Ry
     estimated scf accuracy    <       0.00001081 Ry

     iteration # 17     ecut=    30.00 Ry     beta= 0.50
     Davidson diagonalization with overlap
     ethr =  4.22E-09,  avg # of iterations =  2.0

     total cpu time spent up to now is        5.9 secs

     total energy              =    -501.51983447 Ry
     estimated scf accuracy    <       0.00000369 Ry

     iteration # 18     ecut=    30.00 Ry     beta= 0.50
     Davidson diagonalization with overlap
     ethr =  1.44E-09,  avg # of iterations =  2.0

     total cpu time spent up to now is        6.0 secs

     total energy              =    -501.51983481 Ry
     estimated scf accuracy    <       0.00000216 Ry

     iteration # 19     ecut=    30.00 Ry     beta= 0.50
     Davidson diagonalization with overlap
     ethr =  8.44E-10,  avg # of iterations =  2.0

     total cpu time spent up to now is        6.1 secs

     End of self-consistent calculation

          k = 0.0000 0.0000 0.0000 ( 11072 PWs)   bands (ev):

    -5.3131  -4.3911  -4.2604  -4.1697  -3.9892  -3.9141  -3.8475  -3.2808
    -3.2472  -3.0717  -3.0475  -2.9573  -2.9055  -2.8663  -2.6823  -2.6343
    -2.5886  -2.5512  -2.4426  -1.9248  -1.8620  -1.7454  -1.6747  -1.6091
    -1.5231  -1.3602  -1.3098  -0.7559  -0.6952  -0.6280  -0.4431  -0.2663
    -0.0634   0.0166   0.1398   0.1466   0.2640   0.3068   0.4017   0.4659
     0.5425   0.5820   0.6150   0.7778   0.8014   0.8802   1.0870   1.1175
     1.2308   1.2789   1.3218   1.4411   1.5128   1.6157   1.6463   1.6821
     1.7987   1.9728   2.0700   2.1379   2.2516   2.2872   2.4470   2.4828
     2.5227   2.5867   2.7212   2.7500   2.8550   2.9445   3.0252   3.1234
     3.2209   3.3544   3.3976   3.4835   3.5620   3.6705   3.7659   3.9149
     4.0344   4.3084   4.4600   4.5798   4.6083   4.6813   4.8102   4.8510
     4.8807   4.9940   5.0030   5.0968   5.2033   5.2609   5.3068   5.3584
     5.4464   5.4634   5.5343   5.5998   5.6449   5.7364   5.7769   5.8093
     5.8694   5.9396   6.0360   6.0703   6.1093   6.1747   6.2081   6.2559
     6.3666   6.3982   6.4592   6.5659   6.5844   6.6115   6.6543   6.7566
     6.7762   6.8920   6.9655   7.0869   7.1037   7.1343   7.1560   7.2119
     7.2539   7.3626   7.4190   7.5272   7.5519   7.5806   7.6577   7.7621
     7.7969   7.8356   7.9148   7.9677   8.0215   8.1072   8.2101   8.2487
     8.3268   8.4132   8.4453   8.4876   8.4947   8.5736   8.6455   8.7029
     8.7975   8.8461

     the Fermi energy is     7.2729 ev

!    total energy              =    -501.51983478 Ry
     estimated scf accuracy    <       0.00000030 Ry
     smearing contrib. (-TS)   =      -0.15034232 Ry
     internal energy E=F+TS    =    -501.36949246 Ry

     The total energy is F=E-TS. E is the sum of the following terms:
     one-electron contribution =     192.13953321 Ry
     hartree contribution      =      23.53180123 Ry
     xc contribution           =    -151.13679202 Ry
     ewald contribution        =    -565.90403488 Ry

     convergence has been achieved in  19 iterations

     Forces acting on atoms (cartesian axes, Ry/au):

     atom    1 type  1   force =    -0.01389394   -0.02962006    0.00146517
     atom    2 type  1   force =    -0.00584342    0.00927190    0.01005484
     atom    3 type  1   force =     0.01516441   -0.00638695    0.02464484
     atom    4 type  1   force =     0.00227710   -0.01871329   -0.02354874
     atom    5 type  1   force =     0.03105474    0.03299749    0.04156731
     atom    6 type  1   force =     0.02340038   -0.00554338   -0.03760591
     atom    7 type  1   force =    -0.00521369   -0.03009799    0.01134437
     atom    8 type  1   force =    -0.00090742    0.01456504    0.00775294
     atom    9 type  1   force =    -0.00875766    0.01982382   -0.06695276
     atom   10 type  1   force =    -0.00581425    0.03878726    0.05659201
     atom   11 type  1   force =     0.00530349    0.00959155   -0.00970991
     atom   12 type  1   force =    -0.02130090   -0.01191963   -0.03226020
     atom   13 type  1   force =    -0.00389818   -0.00181714   -0.01656543
     atom   14 type  1   force =    -0.00997059    0.00652574   -0.03045475
     atom   15 type  1   force =    -0.01679846   -0.03691799    0.00397166
     atom   16 type  1   force =     0.03203991   -0.00858032   -0.00730655
     atom   17 type  1   force =     0.00667258    0.01518713    0.02528821
     atom   18 type  1   force =    -0.00861255   -0.02055402    0.02509836
     atom   19 type  1   force =     0.01326707   -0.01004767    0.05412664
     atom   20 type  1   force =     0.00885559    0.01265591   -0.00445823
     atom   21 type  1   force =     0.01975116    0.01537636   -0.00807228
     atom   22 type  1   force =     0.00500068   -0.00086284   -0.02484572
     atom   23 type  1   force =     0.02578915   -0.00484427    0.02188526
     atom   24 type  1   force =    -0.01072821   -0.00344336   -0.02466569
     atom   25 type  1   force =     0.03719225   -0.01637747    0.02247923
     atom   26 type  1   force =     0.01834072    0.00304243    0.01126090
     atom   27 type  1   force =    -0.02374059   -0.00641795    0.00818114
     atom   28 type  1   force =    -0.02462602    0.00830929    0.01595085
     atom   29 type  1   force =     0.00326897   -0.00881069    0.00578360
     atom   30 type  1   force =     0.00073939    0.01736099    0.02069138
     atom   31 type  1   force =    -0.00504981   -0.03712747   -0.01592319
     atom   32 type  1   force =    -0.01436026   -0.02098139   -0.00122028
     atom   33 type  1   force =    -0.01551614    0.02384091    0.01809086
     atom   34 type  1   force =    -0.01313870    0.02058171    0.02102155
     atom   35 type  1   force =    -0.03000118    0.00241098   -0.01033306
     atom   36 type  1   force =     0.00640768   -0.01412636    0.00965162
     atom   37 type  1   force =    -0.04001482   -0.03138644    0.01151193
     atom   38 type  1   force =    -0.01108060    0.02654318    0.00721570
     atom   39 type  1   force =     0.06833824   -0.04612812   -0.06228534
     atom   40 type  1   force =     0.00556109   -0.01244948   -0.00127652
     atom   41 type  1   force =    -0.00720444    0.05194944    0.01191063
     atom   42 type  1   force =     0.01082410   -0.00994663   -0.00152487
     atom   43 type  1   force =    -0.00935482   -0.01418888    0.00640595
     atom   44 type  1   force =     0.00098811   -0.01515052   -0.00605462
     atom   45 type  1   force =     0.00854194   -0.02360666   -0.00007381
     atom   46 type  1   force =     0.01550783    0.01187514    0.01588297
     atom   47 type  1   force =    -0.01227191    0.01976178   -0.00507041
     atom   48 type  1   force =     0.03102469    0.02642933    0.00087323
     atom   49 type  1   force =    -0.01057159    0.02122412   -0.00278074
     atom   50 type  1   force =    -0.01277253    0.01271709   -0.00515529
     atom   51 type  1   force =     0.00100385    0.06081717    0.00584280
     atom   52 type  1   force =     0.00264553   -0.02746144   -0.01489692
     atom   53 type  1   force =    -0.00810105   -0.02376727    0.01419547
     atom   54 type  1   force =     0.00400890   -0.01227565    0.00101750
     atom   55 type  1   force =    -0.04939054    0.03985883    0.01832597
     atom   56 type  1   force =     0.00930990   -0.02278235   -0.05097408
     atom   57 type  1   force =    -0.00109587    0.03237885    0.01449544
     atom   58 type  1   force =    -0.01276408   -0.00231574   -0.00717579
     atom   59 type  1   force =    -0.00482801    0.02856707   -0.02692854
     atom   60 type  1   force =     0.01834848   -0.02106199   -0.02185738
     atom   61 type  1   force =    -0.00132801   -0.00807812   -0.02186622
     atom   62 type  1   force =     0.00491331   -0.00756390    0.00463995
     atom   63 type  1   force =    -0.00724832   -0.00721802    0.02066052
     atom   64 type  1   force =    -0.00934265   -0.00387909   -0.00803757

     Total force =     0.295098     Total SCF correction =     0.000986


     Computing stress (Cartesian axis) and pressure

          total   stress  (Ry/bohr**3)                   (kbar)     P=      -28.37
  -0.00030876   0.00002003  -0.00001074          -45.42        2.95       -1.58
   0.00002003  -0.00017690  -0.00000565            2.95      -26.02       -0.83
  -0.00001074  -0.00000565  -0.00009285           -1.58       -0.83      -13.66

 
     init_run     :      1.02s CPU      4.11s WALL (       1 calls)
     electrons    :      1.70s CPU      1.90s WALL (       1 calls)
     forces       :      0.03s CPU      0.03s WALL (       1 calls)
     stress       :      0.14s CPU      0.14s WALL (       1 calls)

     Called by init_run:
     wfcinit      :      0.51s CPU      3.44s WALL (       1 calls)
                                        3.44s GPU  (       1 calls)
     potinit      :      0.04s CPU      0.13s WALL (       1 calls)
     hinit0       :      0.45s CPU      0.48s WALL (       1 calls)

     Called by electrons:
     c_bands      :      1.11s CPU      1.23s WALL (      20 calls)
     sum_band     :      0.30s CPU      0.37s WALL (      20 calls)
     v_of_rho     :      0.13s CPU      0.23s WALL (      20 calls)
     mix_rho      :      0.14s CPU      0.15s WALL (      20 calls)

     Called by c_bands:
     init_us_2    :      0.05s CPU      0.05s WALL (      41 calls)
     init_us_2:gp :      0.05s CPU      0.05s WALL (      41 calls)
     regterg      :      0.97s CPU      1.08s WALL (      20 calls)

     Called by *egterg:
     rdiaghg      :      0.43s CPU      1.04s WALL (      93 calls)
                                        1.03s GPU  (      93 calls)
     h_psi        :      0.90s CPU      3.28s WALL (      95 calls)
                                        3.27s GPU  (      95 calls)
     g_psi        :      0.00s CPU      0.00s WALL (      74 calls)
                                        0.00s GPU  (      74 calls)

     Called by h_psi:
     h_psi:calbec :      0.49s CPU      2.80s WALL (      95 calls)
                                        2.80s GPU  (      95 calls)
     vloc_psi     :      0.36s CPU      0.42s WALL (      95 calls)
                                        0.42s GPU  (      95 calls)
     add_vuspsi   :      0.03s CPU      0.05s WALL (      95 calls)
                                        0.05s GPU  (      95 calls)

     General routines
     calbec       :      0.49s CPU      2.80s WALL (     100 calls)
     fft          :      0.55s CPU      0.67s WALL (     167 calls)
                                        0.12s GPU  (     106 calls)
     ffts         :      0.03s CPU      0.03s WALL (      20 calls)
     fftw         :      0.44s CPU      0.57s WALL (    2118 calls)
                                        0.50s GPU  (    2118 calls)
 
     Parallel routines
 
     PWSCF        :      2.92s CPU      6.26s WALL

 
   This run was terminated on:  10:46:56  10May2023            

=------------------------------------------------------------------------------=
   JOB DONE.
=------------------------------------------------------------------------------=
