An instance of this daemon is already running
An instance of this daemon is already running

     Program PWSCF v.7.1 starts on 10May2023 at 10:45:57 

     This program is part of the open-source Quantum ESPRESSO suite
     for quantum simulation of materials; please cite
         "P. Giannozzi et al., J. Phys.:Condens. Matter 21 395502 (2009);
         "P. Giannozzi et al., J. Phys.:Condens. Matter 29 465901 (2017);
         "P. Giannozzi et al., J. Chem. Phys. 152 154105 (2020);
          URL http://www.quantum-espresso.org", 
     in publications or presentations arising from this work. More details at
     http://www.quantum-espresso.org/quote

     Parallel version (MPI & OpenMP), running on       4 processor cores
     Number of MPI processes:                 4
     Threads/MPI process:                     1

     MPI processes distributed on     1 nodes
     153218 MiB available memory on the printing compute node when the environment starts
 
     Reading input from pw-si-36.in
Warning: card &CELL ignored
Warning: card / ignored

     Current dimensions of program PWSCF are:
     Max number of different atomic species (ntypx) = 10
     Max number of k-points (npk) =  40000
     Max angular momentum in pseudopotentials (lmaxx) =  4

     IMPORTANT: XC functional enforced from input :
     Exchange-correlation= PBE
                           (   1   4   3   4   0   0   0)
     Any further DFT definition will be discarded
     Please, verify this is what you really want


     gamma-point specific algorithms are used
 
     K-points division:     npool     =       2
     R & G space division:  proc/nbgrp/npool/nimage =       2
     Subspace diagonalization in iterative solution of the eigenvalue problem:
     a serial algorithm will be used

     Message from routine divide_et_impera:
     suboptimal parallelization: some nodes have no k-points
 
     Parallelization info
     --------------------
     sticks:   dense  smooth     PW     G-vecs:    dense   smooth      PW
     Min        1953    1953    519                91863    91863   12442
     Max        1956    1956    522                91868    91868   12443
     Sum        3909    3909   1041               183731   183731   24885
 
     Using Slab Decomposition
 


     bravais-lattice index     =            0
     lattice parameter (alat)  =      20.2252  a.u.
     unit-cell volume          =    8273.3406 (a.u.)^3
     number of atoms/cell      =           64
     number of atomic types    =            1
     number of electrons       =       256.00
     number of Kohn-Sham states=          154
     kinetic-energy cutoff     =      30.0000  Ry
     charge density cutoff     =     120.0000  Ry
     scf convergence threshold =      1.0E-06
     mixing beta               =       0.5000
     number of iterations used =            8  plain     mixing
     Exchange-correlation= PBE
                           (   1   4   3   4   0   0   0)

     GPU acceleration is ACTIVE.
     GPU-aware MPI enabled

     Message from routine print_cuda_info:
     High GPU oversubscription detected. Are you sure this is what you want?

     celldm(1)=  20.225238  celldm(2)=   0.000000  celldm(3)=   0.000000
     celldm(4)=   0.000000  celldm(5)=   0.000000  celldm(6)=   0.000000

     crystal axes: (cart. coord. in units of alat)
               a(1) = (   1.000000   0.000000   0.000000 )  
               a(2) = (   0.000000   1.000000   0.000000 )  
               a(3) = (   0.000000   0.000000   1.000000 )  

     reciprocal axes: (cart. coord. in units 2 pi/alat)
               b(1) = (  1.000000  0.000000  0.000000 )  
               b(2) = (  0.000000  1.000000  0.000000 )  
               b(3) = (  0.000000  0.000000  1.000000 )  


     PseudoPot. # 1 for Si read from file:
     /home/ppiaggi/pseudos/Si_ONCV_PBE_sr.upf
     MD5 check sum: 8553c464762ac42b85b1eed164b4d029
     Pseudo is Norm-conserving, Zval =  4.0
     Generated using ONCVPSP code by D. R. Hamann
     Using radial grid of 1510 points,  4 beta functions with: 
                l(1) =   0
                l(2) =   0
                l(3) =   1
                l(4) =   1

     atomic species   valence    mass     pseudopotential
        Si             4.00    28.08500     Si( 1.00)

     No symmetry found



   Cartesian axes

     site n.     atom                  positions (alat units)
         1           Si  tau(   1) = (   0.5886570   0.2064340   0.5124100  )
         2           Si  tau(   2) = (   0.0865894   0.1645400   0.5202510  )
         3           Si  tau(   3) = (   0.9653940   0.4587140   0.2758290  )
         4           Si  tau(   4) = (   0.9269700   0.1738100   0.3317520  )
         5           Si  tau(   5) = (   0.7418580   0.6684490   0.4558990  )
         6           Si  tau(   6) = (   0.1767440   0.1574840   0.9099690  )
         7           Si  tau(   7) = (   0.3492100   0.2259060   0.5659630  )
         8           Si  tau(   8) = (   0.5765220   0.7778440   0.2926450  )
         9           Si  tau(   9) = (   0.2308630   0.1338270   0.3206340  )
        10           Si  tau(  10) = (   0.1792820   0.9517710   0.8010140  )
        11           Si  tau(  11) = (   0.2728020   0.5584020   0.8334330  )
        12           Si  tau(  12) = (   0.0240577   0.4409130   0.8899290  )
        13           Si  tau(  13) = (   0.2907450   0.2903380   0.1693940  )
        14           Si  tau(  14) = (   0.6119740   0.2612170   0.7144310  )
        15           Si  tau(  15) = (   0.7086640   0.7903460   0.8348550  )
        16           Si  tau(  16) = (   0.3878860   0.6951680   0.3433900  )
        17           Si  tau(  17) = (   0.1500510   0.5218510   0.6038890  )
        18           Si  tau(  18) = (   0.7717720   0.3199210   0.2240500  )
        19           Si  tau(  19) = (   0.7272100   0.4481480   0.8083830  )
        20           Si  tau(  20) = (   0.5471790   0.6128170   0.8013110  )
        21           Si  tau(  21) = (   0.3907590   0.3634220   0.7997020  )
        22           Si  tau(  22) = (   0.8429850   0.0437275   0.7932200  )
        23           Si  tau(  23) = (   0.1857980   0.8936560   0.4490110  )
        24           Si  tau(  24) = (   0.6194330   0.5425810   0.5849100  )
        25           Si  tau(  25) = (   0.0706482   0.6729780   0.9307300  )
        26           Si  tau(  26) = (   0.9099050   0.6469130   0.0863182  )
        27           Si  tau(  27) = (   0.3642550   0.9899230   0.6741060  )
        28           Si  tau(  28) = (   0.1756290   0.3165460   0.7274590  )
        29           Si  tau(  29) = (   0.5774010   0.0306838   0.7702530  )
        30           Si  tau(  30) = (   0.7060480   0.1406800   0.0689479  )
        31           Si  tau(  31) = (   0.2599490   0.6874020   0.1161820  )
        32           Si  tau(  32) = (   0.3262280   0.4913980   0.0306129  )
        33           Si  tau(  33) = (   0.8688350   0.3815370   0.5031780  )
        34           Si  tau(  34) = (   0.3389400   0.7983910   0.9021010  )
        35           Si  tau(  35) = (   0.6013730   0.7767010   0.0680119  )
        36           Si  tau(  36) = (   0.8008410   0.0994177   0.5456520  )
        37           Si  tau(  37) = (   0.3989290   0.4571460   0.2964230  )
        38           Si  tau(  38) = (   0.1668740   0.4045410   0.4231930  )
        39           Si  tau(  39) = (   0.5329220   0.5607770   0.0287525  )
        40           Si  tau(  40) = (   0.2008660   0.9807880   0.1479290  )
        41           Si  tau(  41) = (   0.8979410   0.3022790   0.7138560  )
        42           Si  tau(  42) = (   0.9389090   0.5803140   0.6052450  )
        43           Si  tau(  43) = (   0.2566290   0.7200050   0.5412830  )
        44           Si  tau(  44) = (   0.0293102   0.1467140   0.1078840  )
        45           Si  tau(  45) = (   0.9795960   0.9380840   0.9493030  )
        46           Si  tau(  46) = (   0.8638030   0.2154300   0.9589220  )
        47           Si  tau(  47) = (   0.6524880   0.3779650   0.3975800  )
        48           Si  tau(  48) = (   0.3759730   0.2212730   0.9710520  )
        49           Si  tau(  49) = (   0.0406862   0.8431920   0.2286270  )
        50           Si  tau(  50) = (   0.8693480   0.8630930   0.4654950  )
        51           Si  tau(  51) = (   0.8266290   0.8513320   0.0755139  )
        52           Si  tau(  52) = (   0.7653340   0.4574250   0.0078852  )
        53           Si  tau(  53) = (   0.9344550   0.7424220   0.7651260  )
        54           Si  tau(  54) = (   0.6497890   0.8619780   0.6052860  )
        55           Si  tau(  55) = (   0.3967910   0.9986260   0.4444870  )
        56           Si  tau(  56) = (   0.0142687   0.6680450   0.3907540  )
        57           Si  tau(  57) = (   0.0316943   0.9343540   0.6122400  )
        58           Si  tau(  58) = (   0.5939900   0.9786620   0.3905820  )
        59           Si  tau(  59) = (   0.4188270   0.9252710   0.0798899  )
        60           Si  tau(  60) = (   0.7852160   0.0086279   0.2483760  )
        61           Si  tau(  61) = (   0.0944001   0.3673470   0.1147150  )
        62           Si  tau(  62) = (   0.4082000   0.4689240   0.5200920  )
        63           Si  tau(  63) = (   0.5297480   0.0684519   0.9775070  )
        64           Si  tau(  64) = (   0.4251550   0.7819910   0.6900670  )

     number of k points=     1  Fermi-Dirac smearing, width (Ry)=  0.0100
                       cart. coord. in units 2pi/alat
        k(    1) = (   0.0000000   0.0000000   0.0000000), wk =   2.0000000

     Dense  grid:    91866 G-vectors     FFT dimensions: (  72,  72,  72)

     Estimated max dynamical RAM per process >     147.20 MB

     Estimated total dynamical RAM >     566.38 MB

     Initial potential from superposition of free atoms

     starting charge     255.9608, renormalised to     256.0000
     Starting wfcs are  256 randomized atomic wfcs

     total cpu time spent up to now is        4.1 secs

     Self-consistent Calculation

     iteration #  1     ecut=    30.00 Ry     beta= 0.50
     Davidson diagonalization with overlap
     ethr =  1.00E-02,  avg # of iterations =  3.0

     Threshold (ethr) on eigenvalues was too large:
     Diagonalizing with lowered threshold

     Davidson diagonalization with overlap
     ethr =  4.19E-04,  avg # of iterations =  4.0

     total cpu time spent up to now is        4.3 secs

     total energy              =    -501.23892038 Ry
     estimated scf accuracy    <       1.30472520 Ry

     iteration #  2     ecut=    30.00 Ry     beta= 0.50
     Davidson diagonalization with overlap
     ethr =  5.10E-04,  avg # of iterations =  3.0

     total cpu time spent up to now is        4.4 secs

     total energy              =    -500.87263463 Ry
     estimated scf accuracy    <       3.77500381 Ry

     iteration #  3     ecut=    30.00 Ry     beta= 0.50
     Davidson diagonalization with overlap
     ethr =  5.10E-04,  avg # of iterations =  3.0

     total cpu time spent up to now is        4.5 secs

     total energy              =    -501.24388551 Ry
     estimated scf accuracy    <       2.71378290 Ry

     iteration #  4     ecut=    30.00 Ry     beta= 0.50
     Davidson diagonalization with overlap
     ethr =  5.10E-04,  avg # of iterations =  2.0

     total cpu time spent up to now is        4.6 secs

     total energy              =    -501.40741467 Ry
     estimated scf accuracy    <       0.66414374 Ry

     iteration #  5     ecut=    30.00 Ry     beta= 0.50
     Davidson diagonalization with overlap
     ethr =  2.59E-04,  avg # of iterations =  2.0

     total cpu time spent up to now is        4.7 secs

     total energy              =    -501.44106605 Ry
     estimated scf accuracy    <       0.65576816 Ry

     iteration #  6     ecut=    30.00 Ry     beta= 0.50
     Davidson diagonalization with overlap
     ethr =  2.56E-04,  avg # of iterations =  2.0

     total cpu time spent up to now is        4.8 secs

     total energy              =    -501.49383771 Ry
     estimated scf accuracy    <       0.06547534 Ry

     iteration #  7     ecut=    30.00 Ry     beta= 0.50
     Davidson diagonalization with overlap
     ethr =  2.56E-05,  avg # of iterations = 10.0

     total cpu time spent up to now is        4.9 secs

     total energy              =    -501.50074430 Ry
     estimated scf accuracy    <       0.05246215 Ry

     iteration #  8     ecut=    30.00 Ry     beta= 0.50
     Davidson diagonalization with overlap
     ethr =  2.05E-05,  avg # of iterations =  2.0

     total cpu time spent up to now is        5.0 secs

     total energy              =    -501.50582059 Ry
     estimated scf accuracy    <       0.01633950 Ry

     iteration #  9     ecut=    30.00 Ry     beta= 0.50
     Davidson diagonalization with overlap
     ethr =  6.38E-06,  avg # of iterations =  2.0

     total cpu time spent up to now is        5.1 secs

     total energy              =    -501.50733390 Ry
     estimated scf accuracy    <       0.00166828 Ry

     iteration # 10     ecut=    30.00 Ry     beta= 0.50
     Davidson diagonalization with overlap
     ethr =  6.52E-07,  avg # of iterations =  9.0

     total cpu time spent up to now is        5.2 secs

     total energy              =    -501.50749428 Ry
     estimated scf accuracy    <       0.00219821 Ry

     iteration # 11     ecut=    30.00 Ry     beta= 0.50
     Davidson diagonalization with overlap
     ethr =  6.52E-07,  avg # of iterations =  2.0

     total cpu time spent up to now is        5.3 secs

     total energy              =    -501.50768703 Ry
     estimated scf accuracy    <       0.00037922 Ry

     iteration # 12     ecut=    30.00 Ry     beta= 0.50
     Davidson diagonalization with overlap
     ethr =  1.48E-07,  avg # of iterations =  3.0

     total cpu time spent up to now is        5.4 secs

     total energy              =    -501.50770922 Ry
     estimated scf accuracy    <       0.00038220 Ry

     iteration # 13     ecut=    30.00 Ry     beta= 0.50
     Davidson diagonalization with overlap
     ethr =  1.48E-07,  avg # of iterations =  2.0

     total cpu time spent up to now is        5.5 secs

     total energy              =    -501.50774165 Ry
     estimated scf accuracy    <       0.00014671 Ry

     iteration # 14     ecut=    30.00 Ry     beta= 0.50
     Davidson diagonalization with overlap
     ethr =  5.73E-08,  avg # of iterations =  2.0

     total cpu time spent up to now is        5.6 secs

     total energy              =    -501.50775293 Ry
     estimated scf accuracy    <       0.00001461 Ry

     iteration # 15     ecut=    30.00 Ry     beta= 0.50
     Davidson diagonalization with overlap
     ethr =  5.71E-09,  avg # of iterations =  4.0

     total cpu time spent up to now is        5.7 secs

     total energy              =    -501.50775469 Ry
     estimated scf accuracy    <       0.00004081 Ry

     iteration # 16     ecut=    30.00 Ry     beta= 0.50
     Davidson diagonalization with overlap
     ethr =  5.71E-09,  avg # of iterations =  2.0

     total cpu time spent up to now is        5.7 secs

     total energy              =    -501.50775733 Ry
     estimated scf accuracy    <       0.00000361 Ry

     iteration # 17     ecut=    30.00 Ry     beta= 0.50
     Davidson diagonalization with overlap
     ethr =  1.41E-09,  avg # of iterations =  4.0

     total cpu time spent up to now is        5.8 secs

     total energy              =    -501.50775739 Ry
     estimated scf accuracy    <       0.00000673 Ry

     iteration # 18     ecut=    30.00 Ry     beta= 0.50
     Davidson diagonalization with overlap
     ethr =  1.41E-09,  avg # of iterations =  3.0

     total cpu time spent up to now is        5.9 secs

     total energy              =    -501.50775775 Ry
     estimated scf accuracy    <       0.00000387 Ry

     iteration # 19     ecut=    30.00 Ry     beta= 0.50
     Davidson diagonalization with overlap
     ethr =  1.41E-09,  avg # of iterations =  2.0

     total cpu time spent up to now is        6.0 secs

     End of self-consistent calculation

          k = 0.0000 0.0000 0.0000 ( 11492 PWs)   bands (ev):

    -5.4699  -4.5984  -4.4696  -4.4424  -4.2474  -4.1911  -3.9006  -3.5416
    -3.5254  -3.4325  -3.3177  -3.2824  -3.1500  -3.0725  -2.9720  -2.9508
    -2.8961  -2.6273  -2.4238  -2.3275  -2.2384  -2.1099  -2.0773  -1.8209
    -1.6621  -1.5451  -1.2192  -1.1414  -1.0588  -0.8842  -0.8737  -0.5197
    -0.4332  -0.3610  -0.2691  -0.2051  -0.0458   0.0346   0.0681   0.0935
     0.1873   0.2765   0.3353   0.4781   0.5942   0.6718   0.7657   0.7887
     0.8836   0.9554   1.0397   1.0699   1.2429   1.2902   1.4287   1.5005
     1.6333   1.7078   1.7682   1.8558   1.9348   2.0063   2.0634   2.1743
     2.3102   2.4636   2.5710   2.6090   2.6889   2.7649   2.7949   2.8498
     2.9578   3.0596   3.2321   3.2508   3.2946   3.4323   3.5325   3.7164
     3.8621   3.9297   4.1083   4.2450   4.2750   4.3487   4.3594   4.4906
     4.5442   4.6565   4.7084   4.7807   4.8119   4.8967   4.9368   4.9660
     5.1441   5.1772   5.2054   5.2938   5.3135   5.3469   5.4170   5.4718
     5.5048   5.5304   5.5927   5.6452   5.7137   5.7750   5.8489   6.0225
     6.0569   6.0940   6.1104   6.1671   6.2052   6.2659   6.2836   6.4145
     6.4472   6.4937   6.5860   6.6186   6.6530   6.7031   6.8186   6.8344
     6.8873   6.9447   7.0308   7.1415   7.2273   7.2998   7.3510   7.3872
     7.4090   7.5283   7.5766   7.6604   7.6968   7.7377   7.8697   7.9040
     7.9543   8.0705   8.1147   8.1530   8.1972   8.2132   8.3784   8.4302
     8.5424   8.6217

     the Fermi energy is     6.8879 ev

!    total energy              =    -501.50775740 Ry
     estimated scf accuracy    <       0.00000087 Ry
     smearing contrib. (-TS)   =      -0.14091388 Ry
     internal energy E=F+TS    =    -501.36684352 Ry

     The total energy is F=E-TS. E is the sum of the following terms:
     one-electron contribution =     175.10730279 Ry
     hartree contribution      =      28.94436011 Ry
     xc contribution           =    -150.71634798 Ry
     ewald contribution        =    -554.70215843 Ry

     convergence has been achieved in  19 iterations

     Forces acting on atoms (cartesian axes, Ry/au):

     atom    1 type  1   force =    -0.00680777   -0.02127352   -0.01716756
     atom    2 type  1   force =     0.00116998    0.01330585   -0.03699207
     atom    3 type  1   force =    -0.00221917    0.03072899    0.00243265
     atom    4 type  1   force =    -0.01404568   -0.00004084   -0.00907738
     atom    5 type  1   force =     0.01300682    0.02285417   -0.02645464
     atom    6 type  1   force =    -0.00781584   -0.00406888   -0.00565703
     atom    7 type  1   force =     0.01655931    0.00489328    0.00923142
     atom    8 type  1   force =     0.03426609   -0.00526047   -0.00028569
     atom    9 type  1   force =     0.01225166   -0.02711698    0.03910222
     atom   10 type  1   force =    -0.00191262    0.00185094    0.01163002
     atom   11 type  1   force =    -0.03371942    0.02104878   -0.04508839
     atom   12 type  1   force =     0.01978869   -0.00520799    0.02201604
     atom   13 type  1   force =     0.02920757    0.02808185    0.01085986
     atom   14 type  1   force =    -0.01106460   -0.00076908    0.04135714
     atom   15 type  1   force =     0.02756208   -0.00476724   -0.02184190
     atom   16 type  1   force =    -0.04926781   -0.06635082   -0.01811460
     atom   17 type  1   force =     0.04283922    0.02250107    0.03394858
     atom   18 type  1   force =     0.02521669   -0.00552986   -0.03383881
     atom   19 type  1   force =    -0.01211346   -0.02504127   -0.10215855
     atom   20 type  1   force =     0.01293041    0.00170935   -0.00873718
     atom   21 type  1   force =     0.01942555   -0.01368012   -0.00728021
     atom   22 type  1   force =    -0.00625601    0.01185762   -0.01708895
     atom   23 type  1   force =    -0.01583361    0.03577130   -0.03526005
     atom   24 type  1   force =    -0.01403904   -0.02357241    0.02465085
     atom   25 type  1   force =     0.01619677   -0.01500958    0.00380158
     atom   26 type  1   force =     0.00569645   -0.04192102    0.01490312
     atom   27 type  1   force =     0.01985868    0.05568559   -0.01554084
     atom   28 type  1   force =    -0.00964846   -0.00156529   -0.00266638
     atom   29 type  1   force =     0.01532131    0.01683749   -0.02879302
     atom   30 type  1   force =    -0.00065697   -0.00447710    0.08279287
     atom   31 type  1   force =    -0.00867073    0.01774066    0.00598522
     atom   32 type  1   force =    -0.01650534   -0.02422972    0.03874904
     atom   33 type  1   force =    -0.00907327    0.00688134   -0.00970292
     atom   34 type  1   force =    -0.03332796   -0.00158547    0.00151415
     atom   35 type  1   force =    -0.01880256   -0.01062121    0.02076749
     atom   36 type  1   force =    -0.01503197   -0.02169995    0.02302690
     atom   37 type  1   force =    -0.00863486    0.01941459    0.02137926
     atom   38 type  1   force =     0.01266573   -0.03622737   -0.03424687
     atom   39 type  1   force =     0.05751393    0.02048899   -0.02143749
     atom   40 type  1   force =    -0.01379792    0.01852430    0.01774330
     atom   41 type  1   force =    -0.00945984   -0.00402289    0.00924532
     atom   42 type  1   force =    -0.02756244    0.00221394   -0.01399269
     atom   43 type  1   force =     0.03450599   -0.06446859    0.01361900
     atom   44 type  1   force =     0.01763741    0.00501355   -0.01578045
     atom   45 type  1   force =     0.01269559    0.01780789   -0.02255824
     atom   46 type  1   force =     0.04466765    0.01896986   -0.04269238
     atom   47 type  1   force =    -0.00951931    0.02785165    0.01605703
     atom   48 type  1   force =    -0.01195203    0.03586657    0.00154007
     atom   49 type  1   force =     0.01967399   -0.01539249    0.01564175
     atom   50 type  1   force =    -0.01186542    0.01560107   -0.01134797
     atom   51 type  1   force =    -0.02306478   -0.00364001    0.02640697
     atom   52 type  1   force =     0.00370814    0.01286348    0.11269267
     atom   53 type  1   force =    -0.02240193    0.01858806   -0.00593030
     atom   54 type  1   force =    -0.01113087    0.02349031   -0.00240554
     atom   55 type  1   force =    -0.10215589    0.04516977    0.00594543
     atom   56 type  1   force =    -0.02866157   -0.00355863   -0.00451996
     atom   57 type  1   force =    -0.00093407    0.01113656    0.02891143
     atom   58 type  1   force =     0.07412453   -0.01489786    0.00376306
     atom   59 type  1   force =    -0.01885909   -0.06111585    0.00101990
     atom   60 type  1   force =    -0.00092739   -0.00073948    0.01715475
     atom   61 type  1   force =    -0.01761591   -0.01124447   -0.03804345
     atom   62 type  1   force =     0.00213244   -0.02405062   -0.01074722
     atom   63 type  1   force =     0.00315673    0.01627146   -0.01552304
     atom   64 type  1   force =     0.01157616   -0.03787328    0.00308266

     Total force =     0.371921     Total SCF correction =     0.001836


     Computing stress (Cartesian axis) and pressure

          total   stress  (Ry/bohr**3)                   (kbar)     P=      -30.93
  -0.00018515   0.00000843  -0.00004338          -27.24        1.24       -6.38
   0.00000843  -0.00018995  -0.00004073            1.24      -27.94       -5.99
  -0.00004338  -0.00004073  -0.00025561           -6.38       -5.99      -37.60

 
     init_run     :      1.09s CPU      4.09s WALL (       1 calls)
     electrons    :      1.71s CPU      1.85s WALL (       1 calls)
     forces       :      0.03s CPU      0.03s WALL (       1 calls)
     stress       :      0.14s CPU      0.14s WALL (       1 calls)

     Called by init_run:
     wfcinit      :      0.57s CPU      3.43s WALL (       1 calls)
                                        3.43s GPU  (       1 calls)
     potinit      :      0.05s CPU      0.12s WALL (       1 calls)
     hinit0       :      0.45s CPU      0.47s WALL (       1 calls)

     Called by electrons:
     c_bands      :      1.09s CPU      1.18s WALL (      20 calls)
     sum_band     :      0.31s CPU      0.34s WALL (      20 calls)
     v_of_rho     :      0.14s CPU      0.22s WALL (      20 calls)
     mix_rho      :      0.14s CPU      0.15s WALL (      20 calls)

     Called by c_bands:
     init_us_2    :      0.05s CPU      0.06s WALL (      41 calls)
     init_us_2:gp :      0.05s CPU      0.05s WALL (      41 calls)
     regterg      :      0.95s CPU      1.03s WALL (      20 calls)

     Called by *egterg:
     rdiaghg      :      0.41s CPU      1.00s WALL (      85 calls)
                                        0.99s GPU  (      85 calls)
     h_psi        :      0.95s CPU      3.27s WALL (      87 calls)
                                        3.27s GPU  (      87 calls)
     g_psi        :      0.00s CPU      0.00s WALL (      66 calls)
                                        0.00s GPU  (      66 calls)

     Called by h_psi:
     h_psi:calbec :      0.53s CPU      2.80s WALL (      87 calls)
                                        2.80s GPU  (      87 calls)
     vloc_psi     :      0.36s CPU      0.42s WALL (      87 calls)
                                        0.42s GPU  (      87 calls)
     add_vuspsi   :      0.03s CPU      0.05s WALL (      87 calls)
                                        0.05s GPU  (      87 calls)

     General routines
     calbec       :      0.54s CPU      2.80s WALL (      92 calls)
     fft          :      0.56s CPU      0.65s WALL (     167 calls)
                                        0.11s GPU  (     106 calls)
     ffts         :      0.03s CPU      0.03s WALL (      20 calls)
     fftw         :      0.44s CPU      0.57s WALL (    2096 calls)
                                        0.50s GPU  (    2096 calls)
 
     Parallel routines
 
     PWSCF        :      3.01s CPU      6.18s WALL

 
   This run was terminated on:  10:46: 3  10May2023            

=------------------------------------------------------------------------------=
   JOB DONE.
=------------------------------------------------------------------------------=
