11.07290819897668 0.0 0.0 0.0 10.765336027933705 0.0 0.0 0.0 11.091189570413192
10.956667545858116 0.0 0.0 0.0 11.047465449810641 0.0 0.0 0.0 10.742387998663768
10.922963191103662 0.0 0.0 0.0 10.999806237153075 0.0 0.0 0.0 10.830948149181804
10.846004949692807 0.0 0.0 0.0 10.985148347192416 0.0 0.0 0.0 10.79049509636028
11.104111662244456 0.0 0.0 0.0 10.978879490917663 0.0 0.0 0.0 11.157677896903122
11.00793635051224 0.0 0.0 0.0 10.76398947304854 0.0 0.0 0.0 10.791641409161025
10.943881566149878 0.0 0.0 0.0 11.166009530298023 0.0 0.0 0.0 11.069670540871204
10.840614750648518 0.0 0.0 0.0 10.989705725314186 0.0 0.0 0.0 11.12248157478013
10.854561215974675 0.0 0.0 0.0 11.109502295254272 0.0 0.0 0.0 11.092688579930728
10.97342764640109 0.0 0.0 0.0 10.973010656150526 0.0 0.0 0.0 10.850678884748447
10.903085707626278 0.0 0.0 0.0 10.805851989285667 0.0 0.0 0.0 10.969768979814122
10.743152479945588 0.0 0.0 0.0 10.942910657157697 0.0 0.0 0.0 10.970971771435314
11.010590174212133 0.0 0.0 0.0 11.126102275729792 0.0 0.0 0.0 10.959335876951176
11.022357487794292 0.0 0.0 0.0 10.89547913075229 0.0 0.0 0.0 10.83106447359362
11.06797838410366 0.0 0.0 0.0 11.032151338074316 0.0 0.0 0.0 11.062876046068586
11.057200102723915 0.0 0.0 0.0 11.126528747367994 0.0 0.0 0.0 10.843199051935796
11.07382420472434 0.0 0.0 0.0 10.819857120413193 0.0 0.0 0.0 11.151008759431269
11.068619217702976 0.0 0.0 0.0 10.83527058735536 0.0 0.0 0.0 11.157533435878783
10.837677287964947 0.0 0.0 0.0 10.886327621310622 0.0 0.0 0.0 10.849046011440024
11.0788831388362 0.0 0.0 0.0 10.782423304924082 0.0 0.0 0.0 10.783353931107746
10.964540644364 0.0 0.0 0.0 10.908380267183569 0.0 0.0 0.0 10.924980581719135
11.120805086459177 0.0 0.0 0.0 10.823290187981135 0.0 0.0 0.0 10.854673099935122
10.950056005816947 0.0 0.0 0.0 10.755780112161743 0.0 0.0 0.0 11.015077438379487
10.942683508950164 0.0 0.0 0.0 10.915053233090065 0.0 0.0 0.0 10.75708465395486
10.986787254203183 0.0 0.0 0.0 10.930941414590068 0.0 0.0 0.0 10.90138695687626
10.792904133543363 0.0 0.0 0.0 11.006733150237123 0.0 0.0 0.0 10.948678118902794
10.997827478301064 0.0 0.0 0.0 11.04729570629846 0.0 0.0 0.0 10.824347747658344
11.163662619386521 0.0 0.0 0.0 11.01046367726068 0.0 0.0 0.0 11.10401517001114
10.776760524448122 0.0 0.0 0.0 11.028225454525593 0.0 0.0 0.0 10.841237882665895
11.036576479382752 0.0 0.0 0.0 10.73355623556482 0.0 0.0 0.0 10.743665739619933
11.116138801835914 0.0 0.0 0.0 11.09916445788551 0.0 0.0 0.0 10.762656704076335
10.83874675510303 0.0 0.0 0.0 11.142979537772016 0.0 0.0 0.0 10.750378452808675
11.007244186723716 0.0 0.0 0.0 10.993540167711243 0.0 0.0 0.0 10.770478364267289
11.096476164305123 0.0 0.0 0.0 10.852520135832874 0.0 0.0 0.0 10.764813588230206
11.13109176221236 0.0 0.0 0.0 11.028507620531812 0.0 0.0 0.0 11.109007676156132
10.802125046398924 0.0 0.0 0.0 10.871701533822778 0.0 0.0 0.0 11.005529061022616
10.91788573578951 0.0 0.0 0.0 11.121810005562585 0.0 0.0 0.0 11.127312619973424
11.030902112177577 0.0 0.0 0.0 10.742234434804002 0.0 0.0 0.0 11.120748809881263
10.735075648214487 0.0 0.0 0.0 10.96713577850194 0.0 0.0 0.0 10.906257164500914
10.922634572057275 0.0 0.0 0.0 11.070778264758088 0.0 0.0 0.0 11.105981915983827
11.028628237713281 0.0 0.0 0.0 10.896769958503182 0.0 0.0 0.0 10.988164200709111
11.04432204618142 0.0 0.0 0.0 10.99257939739506 0.0 0.0 0.0 10.931559518089907
11.119028638570732 0.0 0.0 0.0 11.041884817876328 0.0 0.0 0.0 11.158267690636247
10.77333780626449 0.0 0.0 0.0 10.93876240827968 0.0 0.0 0.0 11.081336760807785
10.794629780419804 0.0 0.0 0.0 10.89178144844358 0.0 0.0 0.0 11.076153725093153
10.879257916288536 0.0 0.0 0.0 11.032100610754473 0.0 0.0 0.0 10.827352976769923
10.777076972418717 0.0 0.0 0.0 10.879189776732384 0.0 0.0 0.0 10.762883562046042
10.983604782472144 0.0 0.0 0.0 10.937616429247932 0.0 0.0 0.0 10.837182347117007
11.08589949944176 0.0 0.0 0.0 11.111153178501489 0.0 0.0 0.0 10.977789807523205
10.791432491726933 0.0 0.0 0.0 11.011534548828196 0.0 0.0 0.0 10.940645628790042
10.869456496035411 0.0 0.0 0.0 11.086171719653366 0.0 0.0 0.0 10.938205808372835
10.747470565965752 0.0 0.0 0.0 10.912111067565782 0.0 0.0 0.0 10.862339531374795
11.076693932725242 0.0 0.0 0.0 10.814320283540779 0.0 0.0 0.0 10.785321498824905
10.963867530954975 0.0 0.0 0.0 10.959438128472469 0.0 0.0 0.0 11.001035041884911
10.822664530563959 0.0 0.0 0.0 11.051141801468695 0.0 0.0 0.0 10.864591532955362
10.986792545975266 0.0 0.0 0.0 10.97466312700451 0.0 0.0 0.0 10.781075842344427
11.130674770572178 0.0 0.0 0.0 11.006679053628003 0.0 0.0 0.0 11.163120687528396
11.012445469504621 0.0 0.0 0.0 10.791811124523097 0.0 0.0 0.0 10.991081325293782
10.954346045445071 0.0 0.0 0.0 10.800207442239614 0.0 0.0 0.0 10.795124625674527
10.82117913014011 0.0 0.0 0.0 10.818040988192369 0.0 0.0 0.0 11.035752291111658
10.864480113568055 0.0 0.0 0.0 11.01232395895349 0.0 0.0 0.0 10.775576072798726
10.92072741739837 0.0 0.0 0.0 11.032348172331599 0.0 0.0 0.0 10.849709927003028
10.872359562200439 0.0 0.0 0.0 10.741358501835485 0.0 0.0 0.0 10.891810213457216
10.823825016181877 0.0 0.0 0.0 10.745168279789283 0.0 0.0 0.0 10.977231088136222
11.095986146210187 0.0 0.0 0.0 11.153418970502972 0.0 0.0 0.0 10.81508016093273
10.741327876931186 0.0 0.0 0.0 10.962513300572953 0.0 0.0 0.0 10.843467163712925
10.943838702796002 0.0 0.0 0.0 10.880856911061413 0.0 0.0 0.0 11.042333251121166
10.782616399435762 0.0 0.0 0.0 11.092918534178724 0.0 0.0 0.0 10.964077050821865
10.916426265048871 0.0 0.0 0.0 11.00025350233818 0.0 0.0 0.0 10.851702773723398
10.864116039648708 0.0 0.0 0.0 10.904780425985114 0.0 0.0 0.0 10.980731461218298
11.043121343095669 0.0 0.0 0.0 11.090960144753959 0.0 0.0 0.0 11.127943558131987
11.1620269326355 0.0 0.0 0.0 10.753742311493559 0.0 0.0 0.0 11.15639010903452
10.808886872767266 0.0 0.0 0.0 10.922390993818196 0.0 0.0 0.0 10.77425519922692
10.929384227349825 0.0 0.0 0.0 10.911317955222016 0.0 0.0 0.0 10.923110760803327
10.766859618879828 0.0 0.0 0.0 10.857172037362993 0.0 0.0 0.0 10.91833856685785
10.833662949662378 0.0 0.0 0.0 10.737210848421533 0.0 0.0 0.0 11.118967463441736
10.78583432603976 0.0 0.0 0.0 10.986925421214446 0.0 0.0 0.0 10.737006854045779
10.810484458759284 0.0 0.0 0.0 10.924102650420844 0.0 0.0 0.0 10.91871902916038
11.111698475880619 0.0 0.0 0.0 11.134821920408926 0.0 0.0 0.0 11.057517834112225
10.854063260221615 0.0 0.0 0.0 11.103543904257808 0.0 0.0 0.0 10.87096303671778
10.982294010527053 0.0 0.0 0.0 11.043113954757352 0.0 0.0 0.0 11.004258598548107
10.889026527554742 0.0 0.0 0.0 11.0169290331474 0.0 0.0 0.0 10.972142467039568
11.052023162094592 0.0 0.0 0.0 10.742699137833888 0.0 0.0 0.0 11.156431624906899
10.78834421353898 0.0 0.0 0.0 10.94899344722279 0.0 0.0 0.0 10.850981340042788
11.009404817265423 0.0 0.0 0.0 10.872117539194123 0.0 0.0 0.0 11.007335049159778
10.735930798583187 0.0 0.0 0.0 10.754804564927095 0.0 0.0 0.0 11.141995909177998
11.009846680234398 0.0 0.0 0.0 11.092783855276604 0.0 0.0 0.0 10.804799295661713
11.036944257542556 0.0 0.0 0.0 11.120560147237699 0.0 0.0 0.0 10.912734486868173
10.758189579498161 0.0 0.0 0.0 10.901854443142781 0.0 0.0 0.0 10.854367794338874
11.11138361544165 0.0 0.0 0.0 11.167196095342012 0.0 0.0 0.0 11.007747740460426
11.154516849694547 0.0 0.0 0.0 10.927210105331472 0.0 0.0 0.0 10.943105291842286
10.849391154649062 0.0 0.0 0.0 11.118510302240132 0.0 0.0 0.0 10.760078966663992
11.164319857479297 0.0 0.0 0.0 10.947397122648475 0.0 0.0 0.0 10.82849711616632
10.88797293573291 0.0 0.0 0.0 10.988588693632018 0.0 0.0 0.0 10.842787848049618
11.10585212608273 0.0 0.0 0.0 11.081008334876683 0.0 0.0 0.0 10.805994118678496
10.971437940097681 0.0 0.0 0.0 11.07345037006471 0.0 0.0 0.0 10.949187863955164
10.992446275269316 0.0 0.0 0.0 10.761967654215745 0.0 0.0 0.0 10.910486595840908
10.921325916821017 0.0 0.0 0.0 10.987279804032697 0.0 0.0 0.0 11.14066982653445
11.02024289566971 0.0 0.0 0.0 10.745816807081743 0.0 0.0 0.0 11.160795073561081
11.071346597034829 0.0 0.0 0.0 10.762312099471796 0.0 0.0 0.0 11.119119457601036
