4.129584640976539 4.063824853764456 1.4186443890905938 0.04364386766626658 2.6519548699099955 2.812420133657106 4.200101349550901 1.3139910118296056 4.19696882382141 -0.005581853023104144 -0.019522644445615786 -0.0033218724596930037 1.4034678611130764 4.074505781013189 4.198741596424067 2.7233640548851965 2.7155177921354015 -0.0023518857014626473 1.3370492358631545 1.3605636637145015 1.399760651448059 2.7425999110084587 0.024578534329268535 2.813397871451076 4.128684413539961 4.063861394361512 6.917037581226592 0.04266059341819746 2.6941160751684192 8.354311031071145 4.11560841624779 1.3770335073696593 9.65650385921474 0.00887493592147981 0.039766135214984955 5.566798297116816 1.4290329915628737 4.068307167003401 9.721581555281766 2.7992810207882 2.7187499740386825 5.575141733444745 1.4132607411242515 1.313954471232549 6.9158428144319215 2.7300487695649185 -0.01096439369862671 8.300453512882141 4.188805875897125 9.391989798994306 1.3668143203928238 0.001410688504549629 8.067466236885833 2.796719857121777 4.176816130899273 6.71016354463593 4.165775334134073 -0.03876514431379746 5.416937557551865 0.013933040386772356 1.417010027840425 9.432563149216996 4.141177975860867 2.7788304666355104 8.114509487369185 0.040563384605311274 1.4305909497464697 6.7153390219281315 1.396880588025505 2.7446007855200136 5.3945592100817334 2.7890806577553025 4.149647643342264 9.423730290346672 6.897310087979295 -0.004193310334952469 8.097329870298474 8.347036130384417 4.108698921531628 6.738534550023347 9.68905820931973 -0.030567870374095026 5.4020854657845785 5.512453570967058 1.3936871613009203 9.46085775153784 9.739140973103702 2.7882867302374366 8.059753956325245 5.5089678194660205 1.3430895072856963 6.747651982634386 6.924136422672955 2.7354324175312605 5.398698263166511 8.297159322692945 9.690674853916782 3.9962502168985603 1.3618182242134456 5.561144470190418 2.6804975053744977 2.790015211207297 9.729342556638429 1.3003458670560064 4.113272032617806 5.585201470543516 -0.0005890787161855594 0.030638736986568472 6.904324775323346 4.068794374964156 4.181384812822171 8.273896249857716 2.6843918471880777 0.01706445882544296 6.9618020272025944 1.3820473202021561 1.4142451226631405 8.259318766213763 -0.04004849437405886 2.8116572102821964 9.660309617762728 4.056692793593495 6.913052441565779 5.508981106955859 2.69940892528753 8.32288611760245 9.711235029860642 1.3398440378925762 9.710294939954549 5.544435451718162 0.01716965145333324 5.501672987544534 6.876763199525274 3.997706304326726 9.7246775404142 8.350082287429954 2.661097770209891 5.552425662274544 6.875257284010213 1.3543993757201311 6.938971905077945 8.26909060769936 -0.007856228367173954 8.33529995498432 9.736051631716188 9.385585228892017 1.4058274978502783 5.554488545072014 8.088194721034318 2.7304706473672997 9.72401095134062 6.745930145409445 4.1317305705855 5.550192256690811 5.423094094510496 -0.018038874746952913 6.9162669068159435 9.37885290070704 4.156057749898651 8.254298309636347 8.112629307556999 -0.033677142996367676 6.903638255015009 6.770312689263592 1.3931933095952458 8.33281187251201 5.395129464853981 2.7940612518632024 9.674872706626022 9.452575216205005 6.919513483499883 5.541400367580823 8.08103608588368 8.341439882580653 9.656308976030438 6.750729143822881 9.684271391105312 5.490891296831191 5.3482179819781965 5.498085365288066 6.961002563230629 9.457266807408912 9.72174875619557 8.292559636627091 8.105747495111334 5.515642568528364 6.914822999586796 6.752402260251746 6.903506487407442 8.316422861086705 5.418069208769801 8.322412197131532
4.0750837773286355 4.169495190237785 1.3202762479423937 0.01956970390365718 2.8152686122377957 2.625464069007386 4.057356984906192 1.3986186122287887 3.9467560000312814 0.02566270672590888 0.03550288984884405 -0.03402045272988945 1.3094729737421777 4.166086570964269 3.9846014254014297 2.6614446695612295 2.843938924205043 0.031150901499629208 1.3430047590995218 1.3780419905776669 1.282235793889929 2.68104614780077 -0.019879777595204966 2.624372784919819 4.104184686330434 4.168586882498234 6.63871827570799 0.011993168295696294 2.80306288459171 7.944012376448177 4.033663191338273 1.360045664133595 9.317980678032294 0.012345972990672926 -0.03434696142275602 5.319959526220697 1.3763930121120151 4.164370756826587 9.273966648833827 2.7128906063560523 2.7924283430716996 5.330714591083711 1.3569175355492524 1.4340294660702473 6.595311245891563 2.6595546444095692 0.006676993202445935 7.936395301170297 4.076305445759998 9.85241733791688 1.300067770320813 -0.04640039138995453 8.399695797013399 2.6776276675264623 4.021000570655525 7.001039932114954 4.024251413916381 0.000697939722671162 5.605816791158626 -0.029923754734493102 1.3421402780301537 9.880676774851157 4.023363923845166 2.7161392582833987 8.398417153910795 -0.017585451411102276 1.3182459774461464 7.030764275500112 1.2857397361710943 2.687212560295579 5.614948077891345 2.6613263375517344 4.058271866646271 9.88370519776083 6.5883778666685435 0.043160504796644295 8.414393070859411 7.947523988396624 4.038942113761867 7.02420999697418 9.298845953830206 -0.017436440732478607 5.643111096151218 5.332120331529845 1.3216261093840433 9.812811176072112 9.245462878213276 2.743616389154902 8.441586424041477 5.276840656760727 1.3106124671669468 6.974210340295411 6.61743494900016 2.660523213820623 5.6203245146560965 7.970001591866952 9.522938292478624 4.202522968888021 1.2865735385713342 5.408808239016815 2.842540853426191 2.677969515553893 9.523193582832443 1.3567477072022915 3.960760812488397 5.392713990058704 -0.0021091585025776872 -0.011007068216569063 6.7931360697655405 4.25040579739693 3.970460750266745 8.159668081086284 2.807739190300282 0.014681934511449876 6.821460151038338 1.4037156539711217 1.2830641179563957 8.169045892838783 0.041979376035200786 2.652513889844601 9.458323536960435 4.188918074796328 6.583277537925947 5.432550241921935 2.853928118006601 7.950406687627939 9.513172614695002 1.3868149942816357 9.298689273484301 5.368225838093712 0.025492878378948078 5.32314024680926 6.729418665319357 4.191229931648504 9.269431684136597 8.113458335711627 2.781525363196816 5.308413389960872 6.723687232526119 1.4460675567028816 6.585934529805818 8.134182872374618 -0.03695245696516108 7.941697232595737 9.502542455842011 9.792026377737617 1.2988559628902412 5.454524934351908 8.37909835769394 2.629407373657141 9.435845933490109 7.070601623030097 3.972304757414713 5.405329497071006 5.591238944988863 -0.030727974132359087 6.8026376918613085 9.791769991717045 4.0165970859688445 8.09483967055095 8.448394897254474 -0.02732592885937014 6.814886150510823 7.046002808722891 1.3362992785614567 8.173358437184833 5.652292783554647 2.6596576370845004 9.477073682131662 9.807828083672256 6.63408798800311 5.456340454164257 8.40421432670931 7.919938386516418 9.493521831451504 7.018459937846113 9.324200778198076 5.46372634375692 5.589705011532442 5.29430448916207 6.820708523644693 9.798283730573058 9.321540499317942 8.127066516803584 8.466679384055002 5.255403936707256 6.813768570421146 7.039546044538118 6.628024568183233 8.086373453538267 5.615573703608212 7.996753391346919
4.10289217221291 4.0535990239240975 1.380991328547555 -0.03870879695663316 2.679697790783888 2.7412082734019503 4.058956737369334 1.4057962856582324 4.09125266263647 -0.021107534070488716 -0.015317271282884666 -0.002601849832120892 1.3332710869582614 4.0515902909932535 4.1295824327703725 2.7180330223993856 2.739057541949622 -0.03323857699052844 1.3874467997934974 1.4065652622668863 1.3342039080147816 2.74098762954549 -0.032079650595952344 2.763663701130221 4.062481577591103 4.069550919368385 6.906143968836648 -0.02105838073612875 2.771836262189805 8.235881477202588 4.054269693864032 1.3765085444539262 9.683417682102984 0.03155753295541759 0.009759667611251122 5.537669263809779 1.3587958673432323 4.091893840575788 9.61179144327364 2.7672355100937116 2.7642153107713714 5.4884962681160685 1.413056779291359 1.3872370789002282 6.937658902235621 2.721155897575722 0.003627516075765526 8.30968247800328 4.11826405831175 9.580548491658128 1.381753751378294 -0.022646579584115225 8.196302120079624 2.796994031011555 4.142089225624186 6.780430493173917 4.1018457523392025 0.009399209825944702 5.465644336823961 0.028562456448416963 1.3555506549791556 9.570153107589155 4.178118619710041 2.7689777227226933 8.19446378537456 0.05005010963795609 1.3275933306915257 6.80199897629107 1.3550088760048768 2.7365266913782436 5.496421970207533 2.7388576517232246 4.043955139722672 9.583128495563866 6.901575985630129 -0.025690809425475813 8.19964563911242 8.272131515144904 4.084911882504034 6.765750030645074 9.664560278449864 -0.015753097514209703 5.482789019848717 5.4990806194482476 1.3977624462311757 9.519861600464674 9.683872077371735 2.690971381093426 8.155704742787249 5.5136758828642005 1.3310766636531686 6.846149593509511 6.925946208805801 2.698425211175035 5.41512126287983 8.284195927989478 9.596474171990756 4.066434597969963 1.390630843563704 5.4301883983056385 2.6808425173263157 2.7950104208960505 9.510829402201951 1.3321624061943642 4.157466573204622 5.426618773934785 0.0013096632866133292 0.016067678854113487 6.793358912406908 4.0440184929091805 4.0991434112457235 8.138174479161846 2.7472126262681 0.013429783243461951 6.840692481099236 1.3562431708454714 1.3915363572122466 8.199196705325265 0.004849795656850026 2.804802857396875 9.584969014861567 4.073668876491431 6.920669325288178 5.481823429902623 2.710526762094459 8.275375635212662 9.53459012403156 1.3138052742553956 9.638869469024387 5.414097781228823 -0.026123358767843517 5.552628261899995 6.786785473158502 4.104527339802619 9.656839928066391 8.202993527330493 2.7181892207730183 5.471247816940997 6.843725787977406 1.3330438893238865 6.863824040249036 8.154360126018423 -0.023493109231425755 8.296247233278223 9.534870844185571 9.586213140369034 1.3774697652147432 5.41278811794221 8.151438233364804 2.783753215031299 9.557184273392357 6.847443964647658 4.1493442577757165 5.421673948498173 5.403932871683182 0.04147012205134416 6.853920189523663 9.585975019771467 4.163752738521102 8.147372706465074 8.15435247994419 -0.016073140335709037 6.846807155893615 6.76480956351432 1.384127311279721 8.18801814479549 5.480625180840559 2.7471547345631873 9.539538226357129 9.57304441594584 6.87337180237438 5.500594542146535 8.147631580692703 8.286221045365108 9.544394575791893 6.858172499093959 9.610107122349573 5.430213521120978 5.418666856731662 5.507445424659995 6.814063389135645 9.57961239371265 9.616194489735975 8.141502706046175 8.131936374883407 5.484434018105297 6.838825746689876 6.796316850839059 6.9149882921324854 8.199824775708755 5.4462702770119 8.268487614624352
4.0667768011180065 4.0988516915557325 1.3211627089270306 0.03251632283917903 2.722531624457039 2.775545812050643 4.0312084124859835 1.398431817389632 4.072596767374011 -0.04098271430290924 -0.031125865004628418 0.009849257094816037 1.3580369565549961 4.061872237679755 4.043797370431092 2.688124842955129 2.727252890411641 -0.011585702487261857 1.3399783583137574 1.319315634284098 1.3760554245779206 2.723925336093075 0.027739742259334323 2.7350479141689847 4.065405866092365 4.103322414795996 6.78141036477068 0.009594375978498257 2.6891139986065404 8.136465754565005 4.098005703169656 1.4074123094879776 9.504054787679195 0.026809155034650683 0.028885080382021883 5.428805087494489 1.3323460246306587 4.096383140829182 9.565588512160783 2.726643344933468 2.6840293914861246 5.40969876517511 1.379146535988583 1.3347874603448346 6.798428831137242 2.7361650526788033 0.011869867816943807 8.183548262051621 4.08994169848956 9.586155791346885 1.3985543772455635 -0.02101738839151472 8.17867406742723 2.7047582761459776 4.094730209674849 6.872316155256529 4.050820158636018 -0.005847081268379393 5.485143575605173 -0.0028297226913748534 1.3364121918862986 9.557801080606902 4.0644253872449125 2.757258363104966 8.174838920077017 -0.017531482400683453 1.34059874979688 6.8736675674732615 1.3971769346169525 2.7395262296127125 5.464305146295328 2.7155044978501333 4.043962229706327 9.562873757121874 6.868099228532089 0.040440414055424596 8.210546137572397 8.141029753447835 4.116001394582187 6.845108951840224 9.50567301161769 0.0454610297466374 5.4790969278457196 5.487350737612436 1.3699610543966885 9.582516956686263 9.517893205394508 2.7089968948803174 8.161411565949297 5.433308348749602 1.388294056563154 6.825383322638219 6.864228289365544 2.670112882535174 5.424032845316623 8.213241369802395 9.468283578754614 4.0574405600573105 1.3508124326580055 5.4596001493481525 2.770063156548573 2.7529242995270686 9.508919220899132 1.387033750788 4.098181408449841 5.39876599218582 -0.034758192062280535 -0.022530406081996867 6.820615418862334 4.148135938047137 4.079104370343827 8.202586254539817 2.767799595315572 0.015599808919143164 6.8072336179554025 1.3252342991851451 1.406451353449435 8.148415882818576 -0.03968878591241089 2.716368924444624 9.522043971488756 4.088886382207955 6.849177288296855 5.422767116538995 2.775886376606063 8.181625265374041 9.474998340418967 1.3642148409743409 9.583821731081711 5.464875646155683 0.021797216147397633 5.420053446100582 6.76403723404226 4.134704245517437 9.567650337701718 8.182510299377936 2.736211690500087 5.47469670363763 6.794903879528592 1.3947702061186158 6.857195739756163 8.182484268966055 -0.03778314284274986 8.142181599173492 9.552842287143903 9.603750180576275 1.3629621274026515 5.472235745114544 8.15884757037919 2.6960402573674145 9.51465024991455 6.805000425536261 4.083541470968746 5.462218374943007 5.501860523034135 -0.041517422346929095 6.829208708583975 9.572429087482554 4.041247474667419 8.189926797562535 8.217747884858992 0.004669205130842753 6.754407066247429 6.825888746468874 1.369653027856117 8.135989614947714 5.439454779754593 2.7068417936968134 9.484071023559386 9.568501749090268 6.804079599716032 5.391107628090841 8.237062450473404 8.197443078992672 9.502838950524335 6.859192489267402 9.574743624938819 5.432764963901621 5.425580570222945 5.448645684348962 6.793129473118822 9.586943211306233 9.506101428813203 8.128916935120019 8.22618716131035 5.461293210720799 6.824343190763543 6.810112147669051 6.826252087634689 8.163236948582332 5.438884279894238 8.160256466422156
4.164121822945639 4.089395593103399 1.4137410740908114 0.013462624979305178 2.7855796724129767 2.850445451099144 4.242681192133686 1.4062813318761156 4.272141510784787 0.0417625639617014 -0.03278377927161053 0.03785835830125625 1.3668528521858179 4.147637769183037 4.261251708477624 2.8126792569246843 2.7222162800347114 -0.0037398648078439327 1.4351797824771064 1.3601215396961652 1.4607159080667702 2.7736660710105547 -0.039113122919089874 2.7867367208481824 4.23820068307797 4.12371729184023 7.1201829217090555 0.02183290435030505 2.759281804763283 8.522900944152756 4.217330505208782 1.321763496370108 9.945457572492224 0.04940885525232293 0.03342670733685449 5.707653306200595 1.354723831017148 4.132267457820158 9.864113292099285 2.7681328921692585 2.7600102344883264 5.612689832853913 1.3947386078032125 1.3479747519488359 7.086575217352107 2.7632415309820395 0.0021586393071403222 8.470970345141938 4.2269788678321065 9.540959213682315 1.4111849075861624 -0.04758000806155127 8.187306929440574 2.882193216752667 4.231068512157311 6.807240184376684 4.196918927151244 -0.016303056742507312 5.464840806893462 -0.010765436256546 1.3890921670229608 9.558503710108662 4.260742029752327 2.817372964924315 8.216199827985733 0.027716973120128385 1.4512230030067172 6.807907541487585 1.3890322048199848 2.7616869553493255 5.466616354348255 2.779238114242669 4.206261926703856 9.580329951991969 7.116154349997993 0.03788611858041186 8.173043698010419 8.499975395214888 4.185353994855017 6.875737007576406 9.929054578744756 0.04773990726948759 5.466728505876043 5.630487503026159 1.3703106725574405 9.575712862362808 9.86144719488918 2.8385696036763735 8.2196332193117 5.662431811456105 1.3657868574662424 6.861728060303317 7.030677119244368 2.8337359838697984 5.471602100484602 8.480361092374698 9.76451274172245 4.097743664251074 1.4392116854216674 5.614754087211926 2.7744577941720725 2.779956550267216 9.846054675302977 1.3688604755743516 4.252034185386795 5.628207828901901 0.04569341949013594 -0.03802491997618992 7.019769550358544 4.111031954677283 4.2778279263670225 8.40524621862428 2.7135139877250105 0.02764257557199135 6.998708381768766 1.3386217586957274 1.3889777946728399 8.37232696919039 -0.02181291694931301 2.838545174630717 9.799792725295735 4.082210122446761 7.080138163821503 5.609857173968876 2.70125282762756 8.461318651285115 9.835616810340468 1.3609410231368388 9.888107056579063 5.617510127726494 -0.04298290583338207 5.622461451116688 7.008438914818391 4.078008326593768 9.933015415374678 8.398303928013043 2.736188583739313 5.65275124690896 7.001744245897223 1.370599379460659 7.0820214211594195 8.398059637556475 -0.036491442155633956 8.50740071468343 9.826650240173205 9.565012940365069 1.4216549744724927 5.61111749064254 8.19793689553484 2.826047496954861 9.761309205507894 6.804174339146739 4.2629239876939575 5.629840133316251 5.446252523970864 -0.013633628298903744 7.000382881807432 9.550751929757247 4.226203800838082 8.438504143463867 8.189325656940769 -0.03230408164780157 7.0410794510495585 6.792926984444051 1.4412293025106975 8.357366399547846 5.496727373942763 2.786406928731814 9.775116057948727 9.52830829926552 7.110705562405329 5.582612125594392 8.16789139019914 8.496972843421416 9.800344599645348 6.843942604653901 9.887094361595466 5.578808967350073 5.432965343955822 5.664050790936459 7.040786302501675 9.568208703701464 9.939678992783191 8.407802385128928 8.245399200012772 5.658105649552494 6.968828327696833 6.822862559074296 7.047783003260055 8.37528843577071 5.503937273645058 8.4558321097128
4.055966615011579 3.994752581760016 1.276838057136791 0.03268256302467084 2.6997657399621353 2.6170554086052915 4.119220418868893 1.3212253588829617 3.9520285791964076 0.00648477530408676 0.0031295563044506304 -0.0015642277554077896 1.3149893629403964 4.01439074020933 3.9581787132354385 2.763329967624533 2.7157613722730645 -0.009569199069500291 1.320029896995296 1.3762375207946465 1.313610068515677 2.74338688933831 0.0324602027103905 2.6721523316268754 4.062902715706037 4.011155507715914 6.605011690462502 -0.00826475861196459 2.6875436282321616 7.9242391088978446 4.119466996643144 1.2970607370063172 9.3146658596483 -0.040626990688835525 0.04454361444234778 5.338571730002403 1.4055659656133164 3.977920346286447 9.224832292679041 2.682072683865957 2.719085769050919 5.291219990997041 1.3646593733411776 1.3541225766664675 6.655628383389426 2.738972706861755 0.027261154372043562 7.919881066896677 4.105619012714199 9.416569628825899 1.3080675725631943 -0.008756813366832487 8.060945569641222 2.688132552826914 4.068637850544654 6.712134322263875 3.923877983567243 -0.012441169663348935 5.323428111965004 -0.016323668814174602 1.3427216569882419 9.428110349295775 3.9601150092394937 2.738872534640965 8.065818783063593 0.020231486218606445 1.3230548779044167 6.705981986637575 1.2953445997292723 2.706016046221956 5.413018403540918 2.5997806540904325 4.110016683286229 9.348022108377624 6.576970073403206 -0.006850238790923767 8.048092703158362 7.899248891794912 4.1167084077937055 6.688298837684112 9.25166523832705 -0.03216078684165656 5.380684792098559 5.318145403310393 1.3335751626746013 9.380538451563401 9.230634575929395 2.7280407252720607 8.004557415685722 5.319732747732137 1.3718783779998436 6.685827555973421 6.658734823027541 2.76004960259208 5.3978593743926275 7.9837788350304955 9.455523413189457 4.033484005809293 1.3415603197032628 5.456935666404921 2.6578034865939824 2.621242827593026 9.546852958708751 1.3369281800869672 3.968759541655551 5.459409149702882 -0.02489334726304838 -0.012324485538033503 6.80968775499575 4.063901135533029 3.9373219762321234 8.147433824753561 2.6481054946691813 -0.03863125182848766 6.815765236654868 1.3417804784302731 1.371516216893912 8.117568192640986 -0.04273280891268852 2.6469507621460124 9.47688101129672 4.032109114559114 6.656180981794222 5.418195436006564 2.685124083822319 7.897749610863972 9.525519578061457 1.3071010757516193 9.235317352052904 5.4157263558831445 0.01748390530551859 5.29217437907863 6.796179916300037 3.994071190499919 9.264116315133114 8.112234847479163 2.6370425186369166 5.254654928821544 6.801207240831316 1.3542689822199292 6.622151047360249 8.134696541602384 -0.006157839594476548 7.935567376196157 9.453940471942252 9.359853438367155 1.3706873192867184 5.379526757194484 8.026965170920825 2.6781109275734076 9.460861161525818 6.736480575090304 3.9342309477048993 5.4228066605437935 5.35084888141413 0.02958823211654185 6.7897105521068415 9.366228134307736 3.9720553177988944 8.12228949654172 8.011886499707893 0.03216408922256171 6.804886093159657 6.7495899264901285 1.3710230613454089 8.167812817319264 5.405654094122426 2.6012392056568756 9.45701719015222 9.386105164975856 6.618694555346188 5.426954450960666 8.069798152054304 7.9188661351651595 9.507459957684807 6.7540888700765835 9.264709642902407 5.392582169706192 5.408413783765499 5.303448707488824 6.814767917621511 9.413062500304624 9.300926854289228 8.158722463481011 8.08317609710108 5.256962192280612 6.819234938192549 6.68619962422207 6.6108965332354845 8.170153104587383 5.390322240373432 7.942964709423701
4.063396467833896 4.263521758093296 1.4024058920705893 0.028020714361970147 2.839148212554974 2.792892802727485 4.04729473488562 1.397271022839752 4.243225235340715 -0.022584888388063502 -0.032512083356718055 0.006389038058318299 1.338468452796672 4.271616947287777 4.23293579789222 2.7679954721644937 2.864151698769157 0.018532369044118206 1.351515748399836 1.4157815041207378 1.4488112330755345 2.7684737197889344 -0.014661518134170992 2.768038153302602 4.050122633882313 4.292945478072046 7.056981453885907 0.003319279279013258 2.7903209905594393 8.437683440034508 4.057913583169255 1.4341311103427012 9.867764219809578 -0.049580161047285416 -0.0497038269089829 5.647544117909066 1.4103642827454936 4.276829518077734 9.843407516995955 2.714867304713463 2.8210010681419844 5.609277741624868 1.4005924908950782 1.4615969699092677 7.001145770135411 2.702169118932259 0.03690276864105739 8.38348714974262 4.105184585206083 9.946926787118324 1.4349157866509943 -0.04262532431199716 8.546508303940145 2.8465780137502334 4.120370315267272 7.049349190881674 4.252809886816348 0.0070675587154195915 5.716590161098063 -0.0322012771202394 1.3661925879681993 9.973544495863512 4.1957725648698885 2.6869231975224555 8.510657242317595 -0.021827571783685933 1.4068808452429882 7.061165299808646 1.3906160484593761 2.7335605488166035 5.685829098791928 2.758904389747493 4.098502251121792 9.896001623026558 7.0598421845273 -0.04444966936907435 8.50075959582917 8.453842081166929 4.093541389607856 7.125749522483123 9.829914805413049 -0.04773173945076269 5.6911204655291625 5.572919978285804 1.4042937116407503 9.909128808965153 9.828555575322532 2.710642966428929 8.469258727129164 5.593846868616596 1.326197078396548 7.060513044467304 6.983262373268166 2.6819524865151103 5.717223811840744 8.445592583242366 9.532481992208226 4.26117648427367 1.3700240409045086 5.422843247204721 2.845788959889314 2.8430168746886078 9.503122841130716 1.4338750235140532 4.217709575469236 5.463138619131285 -0.0252059480231564 0.05070300329597239 6.833123262062156 4.297120568889533 4.175550460511957 8.189397410166954 2.8010832036915914 0.03222207049521508 6.830463898841581 1.4579362415253907 1.4222274503632 8.169884469334507 -0.010161394034170162 2.775260020748104 9.487371312392558 4.226730617044214 7.0265279146517825 5.42447279116992 2.8022596709599523 8.451993659570407 9.514445380999055 1.4315406935759936 9.805098459573646 5.39440557095508 -0.023450549419945958 5.650215519399364 6.777090588443468 4.264600824815719 9.872305930659529 8.186882506183052 2.8647995765578727 5.600014840267278 6.8475275989795215 1.3916206967871485 7.020080874021164 8.143480166279858 0.03942314456574171 8.416794853289197 9.539666650456404 9.906321703343437 1.407185085150527 5.419091684603845 8.489156892592737 2.855242284786154 9.513636628151316 7.05254152113452 4.194219628075651 5.477285774831848 5.653232747547151 0.04796922168074815 6.83858535335182 9.887584683714032 4.248818653209174 8.185813288954039 8.522508371665579 -0.00769026557653352 6.824283888921176 7.0557929483478246 1.428387761296786 8.115844676549017 5.691747549942902 2.8085545916368018 9.480065177058995 9.961606909851156 6.983472495794236 5.460570090127709 8.485814631162436 8.430295225589202 9.57364083639036 7.127809160993873 9.873249293250533 5.430849790958516 5.700954637504505 5.630597517303884 6.838266886398245 9.951745378171898 9.847493962372756 8.117030993310786 8.487799851278535 5.580343213152124 6.80774549509841 7.071182234606143 7.059889243218033 8.159468082859846 5.726938695507013 8.37951123756964
4.112407802826541 4.085126311745059 1.3306475184904782 -0.026902069565209363 2.709043608711663 2.703143062102885 4.025853082472938 1.353510374999596 4.127032876186641 0.036667295332593546 -0.024471603738113967 -0.018948310522658544 1.3359854371936977 4.075228830477717 4.088457632657934 2.6901798549840596 2.6683197553393767 0.04582327855099128 1.3114065113695523 1.3565240659002764 1.3974950852888772 2.6640073587915687 0.015301527720540383 2.741699876586517 4.06667233325503 4.035044839720014 6.876248550979783 -0.018416036338401703 2.683160556933015 8.285752869289428 4.08363897940127 1.3011090114179111 9.635915662454025 0.0033324049743493544 0.036387607472026816 5.540465833281923 1.400681141964093 4.06791575176693 9.655355052824888 2.6779895836969554 2.6769564731112188 5.510531643770956 1.3708250048793318 1.3697550362034427 6.85722435615387 2.758778181064688 -0.024829344024885368 8.221771561031101 4.074874342375371 9.462913543832851 1.326364391602497 0.008328844312923257 8.071675661378046 2.7856271316176198 4.042935723197011 6.772958089574129 4.173042613311344 0.03965388469639721 5.3566491173855 -0.0004585580039524323 1.3857308501614733 9.466411810212884 4.127633446243827 2.7421681911437448 8.08460201040672 0.03882891391387286 1.359782754694321 6.686897701253155 1.4173236537292886 2.7216588320969928 5.433292263672586 2.714887784123738 4.083447100520185 9.416002951622369 6.90303245784421 0.0077412829934381065 8.124946442262733 8.267374775102654 4.039613074775937 6.765229815318391 9.674189536892664 0.0072892293583360634 5.426707674273041 5.49020765923644 1.3670416303313557 9.476092479185214 9.642538194005196 2.7374828774485143 8.06804188731363 5.469934625591253 1.3380690033487723 6.757199087911111 6.9057848899294 2.7277718547548835 5.356148280984021 8.29630945993361 9.539884076685405 4.055826298197006 1.4205129625889292 5.385659686519712 2.7000567390833754 2.734996040424716 9.44543738879333 1.3564947962404494 4.149430670322957 5.385430949548473 -0.012228213438731528 0.039482602983336966 6.764706213625935 4.058844325343587 4.14097932706335 8.093909762231627 2.7134134605176494 0.008464351997306363 6.736969416724926 1.327014828487536 1.3434697976175454 8.140240381552948 -0.002640773753257979 2.7347911528059288 9.520157410023648 4.063098182571742 6.900256176406569 5.395114870705227 2.7358329358834657 8.253211511930932 9.45490666577802 1.3456834511496278 9.630340334287766 5.403277853612465 0.03612960084096138 5.482979137320709 6.789408722458237 4.029278716734144 9.596288879294503 8.105565591211525 2.719034319265861 5.545309419952512 6.785816142729873 1.327937364802816 6.855125613138144 8.093490230440777 0.03736976716843557 8.297545290015185 9.469412492375865 9.403160075327275 1.3958689930762802 5.457668470000893 8.102300398048628 2.7722866711054714 9.451757467192959 6.731054777316972 4.113670734444992 5.437655611109721 5.414753728387502 -0.03049464929357428 6.745210452058369 9.439559607475527 4.076286874477381 8.117812233695332 8.057656578382508 -0.0008867622866030487 6.788982686298537 6.729784257268196 1.377916935049206 8.145106733514515 5.4242446866016945 2.7076126475645776 9.539565362611736 9.461788288021731 6.895560022096587 5.4190444437058085 8.067034794203293 8.29340092299601 9.512263274362226 6.705932736693819 9.60860815389714 5.3764755177029615 5.396394063245803 5.475904552134436 6.7584804485746375 9.42798725122921 9.607482898086024 8.12440657964815 8.067783880682564 5.549993649586266 6.7966806068329735 6.706828171472223 6.838640290286833 8.087496454545143 5.428054078625072 8.251011951198025