-6855.377550834947
-6853.251951815915
-6854.278548483995
-6854.568043185925
-6854.327085429396
-6852.921563846314
-6853.3701239171405
-6853.924300620621
-6854.426534193725
-6853.791364710966
-6854.750827765739
-6854.327739046836
-6854.315118406999
-6854.48109056935
-6855.04882588907
-6854.645757809788
-6853.729865078632
-6852.829202286912
-6853.1455815639865
-6853.99753543436
-6853.565406277396
-6854.919732634987
-6853.660491696321
-6853.819641284453
-6853.851784187415
-6855.215329897918
-6854.385201734316
-6854.4121559706045
-6852.998418318334
-6852.981708895957
-6852.210140174661
-6852.912403678162
-6852.397258031301
-6854.195480564582
-6853.264773819993
-6853.773991194766
-6854.279085908826
-6854.096854128274
-6852.2739522303955
-6854.026520864397
-6854.690631150523
-6855.149277665008
-6854.723849855547
-6852.92867227612
-6853.86987431541
-6854.094155575336
-6853.619199509761
-6852.828765680258
-6854.779446250265
-6853.918416703087
-6854.244891403577
-6854.119985301186
-6853.106904527473
-6853.960020323937
-6855.081541047436
-6854.047438391231
-6854.39856361225
-6853.44117651395
-6853.696118336704
-6853.707854878679
-6853.861359465228
-6854.094927970467
-6853.778137121211
-6853.182447818962
-6853.3926522218435
-6852.428901333256
-6853.503785826518
-6854.96552245513
-6853.959882498278
-6854.715539498915
-6855.155261856491
-6853.960188218175
-6851.2810544122085
-6853.700708080821
-6854.730915155311
-6853.662578401293
-6852.129023855699
-6852.432589019998
-6854.7312938017185
-6853.589500461182
-6854.675671148016
-6855.107242471611
-6854.642763605165
-6852.225178137784
-6854.3359364762255
-6854.412324953298
-6851.845227217552
-6854.41604923935
-6854.01146807107
-6853.978984345524
-6853.643661863571
-6853.9295326894535
-6853.652371275148
-6853.689670327183
-6854.898042032737
-6854.156315355842
-6854.8809155959025
-6854.243833561029
-6854.211780863802
-6853.063538561348
