0.33979288003048574 -0.27184325146338995 -0.34067579685607136 -0.37363605383217585 0.8230096077069825 -0.2274834944010921 -0.6957561991732468 0.7769318395123135 -0.5896984508805199 -0.1022679422329916 0.30624769708518873 0.384403576761325 -0.16403895279320135 -0.448166420940583 -0.17130848987142108 0.5750557612666806 -0.2094554332547877 0.36416796644074056 0.5767994834306648 -0.3242148230865707 -0.2934366613634495 0.6810376620161497 -0.04691903314904177 -0.7632512567014275 0.25369743379229853 -0.004689692166185471 0.46488373369526387 -0.15551343182069347 0.1846309180119401 -0.5128520340444264 0.09793254808243133 -0.502618015021244 0.7315824648432369 0.1021985224476369 -0.6031139529554774 -0.41381751114706794 -0.8325897951962501 0.17342862153821745 -0.021375123241666412 -0.15128293867911363 -0.49718964491682116 -0.34103677973991586 -0.27467403604396573 0.7757468180652769 0.27139742217522295 0.5891533770103273 -0.09083733179854678 -0.005653084520719296 -0.3327236318885302 0.8959816291893343 0.4991565388352049 0.7482437275490017 0.04410418940806598 -0.3576774736203905 -0.23392462204074552 0.34035106652680097 -0.6369355294906127 0.4249550158211262 -0.179020256693382 -0.2252666892554314 -0.5611234674563046 -0.14543573586971725 0.52312050584997 -0.09836346497226285 -0.4462262664950767 -0.5219419121608365 -0.7535219452288056 0.3738980492443109 -0.04461532471652961 0.43395696220942037 -0.09373702194384502 0.14333231637346927 0.12914445490886148 -0.048034634810723724 0.28157770514233443 -0.04495651010603225 0.17445166348609312 -0.22232097636354617 0.2469647430541553 0.1379815935845172 0.12737270772041934 0.125260546473423 -0.08188269370842027 0.49664277127441564 -0.029787001454445478 -0.4601410768039559 -0.17389476254135858 -0.17663658695255385 0.04009224003519547 0.32930920689034254 0.1536383262851677 0.06982936208831199 -0.14117696059336332 0.12908789063931317 0.14311480104602448 -0.07612342262713986 0.09977294372527978 0.2678068766104872 0.6245063025883245 -0.29043721241549336 0.3388210030355197 -0.015899444839075842 -0.5274145052396335 0.1477579562449907 0.5258762142182363 -0.47236050168828325 0.563097817573856 -0.3928545357421557 0.6297045589598123 -0.6056086943528732 -0.19137620715557363 0.520917070440748 -0.050704211223086874 -0.43228343116173934 -0.3886631233686274 -0.5703894661392628 0.13265298228275219 0.7816999503249182 0.13192047499210183 -0.5826181469949708 0.5373862717403648 -0.21189155350010605 0.44547473304103286 -0.11684481160590199 0.18993973181936322 -0.33216724516442797 -0.430503199332865 0.07985563597606248 -0.027459638872849485 0.24789188285411498 -0.6451437763330179 0.7221015219359951 0.47591762291192224 0.6200598367811967 -0.23003762828151347 -0.510665567916069 0.083447724202695 -0.2817805651817599 0.4732431614035527 -0.04277750017684245 -0.10234044734213989 0.46606464137724246 0.5273126895544467 -0.40005131060091104 -0.8507034740778253 0.20776647558813896 -0.21103306215455273 -0.35609650228651574 -0.30129909483066175 0.6601081109523342 -0.6008542103870232 0.05630381679805142 0.3184108148102839 -0.5297495811307135 -0.278351742005869 0.30951556920318307 -0.3568912302736692 0.3894118286091939 -0.0342964592890248 0.8317323322919612 -0.3890814418529686 0.636134373745556 0.5689067109461493 -0.4845094783459914 -0.27986200800280836 -0.2873228351562278 -0.09893579253596509 -0.46697892566139576 0.030512823876876483 -0.11488588810731828 0.21616704094700837 -0.04115153453764525 0.23839345644537657 -0.24060074850934052 0.14938289344292338 0.1572898069948259 0.3988125530978035 0.500796388431473 0.48477867284697795 0.7704012374826473 -0.8422329747129689 -0.18660449679854316 -0.21731683828073542 0.47861650990032406 -0.4688578878516635 0.26872835998349204 -0.19928749158285033 -0.2920544363039422 0.07774296050843385 -0.617489247840543 -0.5491434122762929 -0.20408311319928077
-0.28501861250308336 0.7826787692984198 0.14915149415840767 -1.1212058952426045 -0.5597841798195907 -0.0870135871770824 -0.30183337006757693 0.2261400929993202 0.07827877840724583 -1.2260904491628368 0.33310441226671667 -0.7498383257296312 0.4317285870995339 0.7171958571042616 0.26014010409384875 0.49447070332376136 -0.6455865202973915 -1.1630770815550937 0.10648686541034563 0.5731675431050323 0.41658967457556645 0.17101795521419577 1.7255958866970278 -0.001101717704611006 -0.631555753235938 0.9466303045841374 -0.1180311186045193 -1.115944132623033 -0.02214259753531025 -0.04360770938762167 0.0034679039439424147 0.8924095955673598 0.37239395389495866 -1.5501530629422593 2.1463327506717484 0.7361106917308936 -0.46698998140498926 0.5073550154855972 0.8982886800559562 0.21612513196547942 0.23701817336440473 -0.6010408724765326 -0.3674006144454253 -0.2843796933675038 0.4033569779353762 0.3511435291566146 1.4824489747270664 0.05952360928692974 -0.24939314998998982 -2.3782061466104203 0.43846230627894167 -0.1586290946315397 0.32168820000997506 -0.2347689723189118 0.798614723802386 -0.19187782938234052 -0.7127715027843209 -0.6070264006360062 -0.20117596685481481 -0.8753847788745892 0.32756985560173263 -2.6874244962881586 -0.9910772220436027 -0.15943539258291897 0.44450362737701504 -0.7810998548470741 0.1541450907182571 -0.21830208501214016 0.49820291667268396 -0.17070273796662216 -0.24801015359953416 -0.2637807861702296 -0.3747349433233095 -2.3950443012136815 1.1366741660815327 -1.686325885452812 -0.479794075148193 0.04592890132163058 0.2959375734084323 -0.14283609346334109 0.3438444243920401 -1.3686694323100492 -0.6009303150405974 -0.8019736129722899 0.2664945855569668 -1.1958897572097404 1.4459310823066904 -0.7401313828545124 -0.16660568507911305 0.5960508754611089 0.8003337633760216 0.7899894440272202 0.05920633515682707 0.6875122139968998 -0.33676772005091676 -0.18763525205590265 0.6233945575813844 0.4067258944076092 0.4432892953539398 0.6214310060971104 -0.5374510635400291 -0.4520076490635441 0.7753680945696194 0.8577174435018131 0.35291270524189544 1.0163804766950817 1.5669289968490174 -1.2742032455096635 0.2811552728929352 -0.38330160194639795 -0.17138356608373065 -0.0844342564856804 0.07504150241687076 -1.4908953057222065 -0.7150646696938717 0.27727419267097414 0.5571858229647951 -0.3349610058594812 0.40277153774555147 -0.24578126426901542 0.8293774589065394 0.451677519417635 0.8717469250116858 -0.4537958513122185 -1.2550384996557546 0.47184833793855513 0.4474470262760552 0.3407202769407616 0.39312424446377453 1.0666625127790854 1.5268010184798804 -1.1650758571526774 0.6476143493606975 0.29725834910238486 1.4048343122663807 0.37074279144478084 0.045550692046605425 -0.7322692064976163 0.3668642823259811 -0.4165745050669148 0.7450876984185232 -0.25925770148889543 2.2938914464217395 0.2542759320035879 0.7767945426035009 -0.7105701242576278 -0.06481802491664966 -0.6483080329936125 0.34563494063355954 0.5675990478783192 1.4240527941763605 -0.4743132545392798 0.26736130443263634 0.16445212907122 0.285203989041012 -0.37580837889314633 -0.8078285290911701 -0.16114903283991602 -0.8763026627031684 0.8528809413451183 -0.5363148930530569 -0.38405930604802885 -0.28824740385302616 -0.7581926112315975 -0.6578797358424477 -0.06997025854155046 -0.5333272711796427 -0.5021634439823287 1.3543244764422868 -1.5660309105147803 -0.3063428279021563 -0.5447403981125908 0.37498922542596064 0.49674484406991865 0.5631944910527203 0.046395042324771714 0.32633135520894124 -0.45251364216568524 0.46976008795095875 0.46350176574607277 -1.0500734980721527 -0.998313591891042 0.3310920098223782 0.3487452041277671 -0.6820463057863221 1.0523952042267941 -0.05883943873571156 -0.31914229365966973 -0.33494120836513924 0.7133440874583392 -0.1040764561966401 -0.2913311849846724
-0.4630618499951767 0.013917638522356677 0.49316535424877644 0.34946665567482393 -0.09065298370188259 0.3543766913819316 0.12986282113212474 -1.0626559627228536 0.8554443311969203 0.6661754001923365 -0.5995275211557998 1.48928656647419 0.13611522979973978 0.6139619514135748 -0.20425640555235144 -0.10993574319089452 0.4734910157483007 1.8329397007910304 -0.32391451823733247 -0.8452550493687443 0.5433640865903545 -0.40398201311388493 -0.06323679647245883 -0.22044947037244614 0.4743158256424412 0.17216800965823897 0.037816813737457454 0.318449124247387 -1.0541453541486812 0.5973590527495712 0.7014416795937983 -0.3734416784331827 -2.013403374799158 -0.2510214296220322 -0.25740239344771154 0.16136449128483177 -0.5207586904860129 0.10861753860010324 -0.9712213636599404 -0.6486160511523346 -0.42296729596713606 0.21899114065936479 -0.25467702409674847 0.08926407377415595 -0.5777770168525856 -0.00024065525589635976 -0.6459888979421327 -0.033508673280406805 -0.08074472344923513 0.06583669598915112 0.5182071277087528 0.20107389405931173 0.309493457715996 -0.5120146257447956 -0.9223475207773728 0.22642240012642942 0.7633481872906079 -0.4781267147480991 -0.16227543313487539 0.5902910901591963 0.04294436477200991 0.27758838147728326 -0.35164309450085246 -0.10835939984271016 -0.34725807805927933 1.2084094869433057 0.46194496278191416 0.7345456612366188 0.7896809116478658 -0.32004809330339073 -0.8298561983151709 0.02613320675194209 0.26903432125968507 -0.32478303688521487 0.19840560319852926 0.20664393194792152 0.47213270194819335 -0.13007365159135015 0.01178979354607647 0.42572968920362164 -1.4837908334669414 0.18016748292394777 -0.35366912379194576 0.30975211069402137 -0.6307515121670879 0.8570070476983498 -1.592581407309799 0.5775767279163214 0.16939507489879216 -0.032250632503589616 0.14761937378459739 -0.45118361050035205 -0.25264071039301006 0.17542611158422047 0.6034088584880769 -0.5048278781883694 -0.6923096353855431 0.3505033244694544 -0.022355741987380853 0.41117441709726604 0.24120315798002975 -0.896062876049231 0.9200733800312155 0.050004099832268716 -0.02964790477341991 0.615527753238798 -0.5071452134676363 1.2452094293804747 0.315425764040031 0.5633544136693523 0.31106337330627715 0.8857231846861197 -0.3964006012222012 1.2450772746779848 -0.3543201271123833 -0.15807373634870195 0.35332305330643665 -0.25188840560801784 -0.7351796952761919 -0.5590699273613856 -0.6805481239742409 0.5412930629939388 -1.0112030462592005 -0.27338977001490333 -0.16769094772349186 -0.2790230570412808 -0.27021908559640556 0.9181303973722317 -1.4043041507945235 0.099555428397835 -0.03140036868815237 -0.6021073660678341 0.2697310902163935 -0.0012698678513591033 -1.7379628929028133 -0.2107669529773596 0.2293524292890308 0.6000941922925472 -0.20839999540707982 0.16676406503384827 0.16567006063872114 0.37191315760379823 -0.3659227443483182 -0.7446930340832658 -0.09199792776555123 -0.05860366857582165 0.2946872459410989 1.1903896533271177 0.7258093098048854 -0.4389690707120311 -0.3101223495492466 -0.3519038043614069 -0.19626875936118454 0.33149335902585486 0.3847357632897632 1.387864002960629 -0.8770027740939863 -0.03238561541955713 -0.16671495696346772 0.09746357886581279 0.68029846985728 1.6597460780817543 -0.7755745541534707 0.5781320861991591 0.0008633764415598035 0.43528827942633425 -0.711480037666407 0.384983360524195 -0.15162001030355823 0.1525101262179954 -0.010357689085240226 -0.8202762679362197 0.39490061963790696 -0.2985228176371052 0.260284600091513 -0.6566520340829336 -0.9393090883323759 0.44605580235548337 -0.015077977379045003 0.2810812251218901 -0.3666243984010331 0.17144424411833697 -0.7618448632722041 0.47012209927606774 0.7247662132523517 0.510057759128741 -0.29685854256080485 -0.24982740931393102 -0.5199480216592594 -0.021763359819020583 -0.16286884374450017 0.07074801724783944
0.36889956758845505 0.0968817382204138 0.17196437828786512 -0.5780194718806948 -0.19542929417902472 -1.007337135545891 1.1044564436984077 -0.41831385635552476 -0.10955881946745002 0.907583732204637 0.0022016356370091117 0.46725197681712427 0.5191630638641188 0.7592922720536794 0.8496902023219624 0.13899203712690256 -0.32357333284782985 1.0648722536478823 0.03022743142597375 0.34783863315309776 -0.13886528174105117 -0.1410880004239828 -0.9054625720965761 -0.022486096917658047 -0.40392287774117536 -0.24261057985051762 0.21283951923567215 0.10761120882277596 0.05341672505824349 0.6916264932755896 -0.29814512258271236 -0.3061361112079889 -0.41812719426601536 -0.3129901580153448 -0.8859586977356935 0.10096259315800676 -0.2784533005807398 -0.3467546560602996 -1.1345005554689815 -0.45965976629216315 0.6984175480554939 0.5535238007321758 0.15894534032037788 0.11827151675009953 -0.01629719449812677 -0.14563165393060726 -0.2129523906644526 0.02239610830701304 -0.17896677774762726 -0.060544594352276375 -0.2781259991483081 0.06947712095521583 0.4424192340441606 0.44486512448149185 0.033036618739994715 -0.7283480170663391 0.46159786385514046 0.01485737672780667 -0.11365355836211395 1.429320213222887 0.248033807748618 0.3083313190870948 0.16260453433951996 -0.43868393537144446 0.5411681073803002 1.2043101200629518 0.5453260954127318 -0.6358996320269307 -0.5364804720966437 -0.21410655887355384 0.11288531273752173 -0.0649316676763785 0.22411329237727853 0.5084492769910404 -1.1762200466949548 -0.483361223674161 0.12116323647559776 0.4065600582537063 -0.6430637538755377 -0.40787800573418137 -0.8009215175586917 -0.09933637040849344 -0.3786463625625737 -0.3150655524871348 0.1020249729842501 0.21079086423675955 -0.4886798076735971 0.06505893728286215 0.5671074529538813 0.2696891812348646 0.03553341701991945 -0.07703847824224151 -0.5478149232728566 0.8301924986086671 0.25171896990968906 -0.24741365766611587 1.0751782635595806 0.674094140818781 0.6932336898617093 -0.2610235351400666 -0.24302015658411052 -0.36696558379053573 -0.26532627628047856 -0.4064867818136096 -0.08299006783998611 0.46795388798015536 0.2511471565666191 1.0433225525015646 -0.07040117543138197 -0.7518211604876148 0.49502683293754746 -1.5575033326597434 -0.605196546516119 0.6578393695228154 -0.31042651105322666 0.4436806172550875 -0.6056007239330732 0.6177368450749748 0.1665077260486681 0.18999141099290506 0.13184334189726327 0.07769822331342748 -0.5380917824478216 0.19551131236986974 0.06893436107786838 -0.18791138853542477 0.2976054480291584 -0.2486799259730491 -1.7267719092830003 -0.4488757883027818 -0.4517703362417575 0.30064963417212087 0.8715260672501313 -0.6318519443201183 -1.2959570922469874 -0.4604724920014457 0.2328606995526054 -0.10680362531981605 0.1271528784001294 -0.25793949689810414 -0.4535981334791156 -0.4551647066352871 0.3243382360383124 0.4776708581576032 -0.7720827389501284 -0.3460357756164041 0.2672898277647526 -0.3390431463486548 0.9703628723143869 0.3660620981396599 -0.3314668766632937 0.17085031928807995 0.2590273306456442 -0.7013784304560308 -0.03504259342642997 1.4882835791309723 -0.5061113728864832 0.03293865970954973 0.44980421365432205 -0.8620739206982959 0.3958735250741376 1.1516899227640747 1.0192984216728254 -0.08418305970682276 -0.4207186091422754 0.22251458043159095 0.46437105572490345 -0.08454018593592537 0.6895207597864964 0.3245547229244926 -0.3739178467386528 0.9005713054425457 -0.3804121962137449 -0.5563867241022676 0.17701968132358545 -0.26155549638413667 -1.820934448800038 0.08409872752313258 0.9356573505124014 -0.15004803783074805 0.1579176703868119 0.055372820343349796 -0.4731261762097142 0.19738050436812457 -0.46729902800497586 -0.35016291041090014 -0.7275067521119664 0.31220160067577846 -0.0803927394264551 0.007922597281186355 0.368695679107765 0.6237779090627321
0.3452281921134442 0.21634856083019513 -0.18019319395556063 0.5459891829180273 -0.4263971475842914 -0.07603523378870776 -0.396774182511536 -0.431618800994547 -0.7374114128201881 0.41300992764410804 0.23751233939200386 0.9263772107620561 0.6334267450064058 -0.2630014848020438 -0.5643226911198925 -0.46082807556865146 0.1849800738212427 0.9601285961808883 -0.26264615834515415 0.2734579042486775 -0.385149196678098 0.6852072200128071 -0.08513025411144048 0.878507640774287 -0.5347166953280017 -0.5177962654235791 -0.5404016615279209 0.36649172947791075 -0.3852661818719365 -0.6950897692338417 -0.6504615890015056 0.646823478028286 -2.1324799039490565 -0.08727763947174647 -1.0294229117013367 -0.22531014089885715 1.0401022457920541 -0.27080838244097233 -0.6289265431432072 0.4320998543960236 -0.04853394304464544 0.7492081483448 0.3113901605180766 0.8418822762417694 -0.01885518503329011 0.48717879764803845 -0.3053871488571063 0.2574476448633502 0.023127587156398878 0.7858661658874659 -0.015938268496811264 1.200021519989927 -0.15886152235731996 -0.3606249862844886 -0.43644861828302256 0.06545334450780341 0.3185925918037868 0.6162726018246226 -0.09314206867232346 1.500345652501829 0.18397708647802508 0.3628237937080203 -0.0038862224282836294 -0.38166278079139426 0.3030759842254264 0.6999059596755624 -0.910566983202677 0.5403576956638628 0.23486667423904067 0.47054813106989285 -0.16377310072632442 0.5902304121245899 0.051078820953686224 0.16939636045037276 -0.38935012213332304 0.11216463252141327 0.14270008210610907 -0.36632846442716915 0.3563667252287669 -0.68115053344493 -1.1917034870425347 -0.3869600246345916 0.0969213332090976 0.5993503721479871 0.6580905663016731 0.027813936888474677 -0.5274304460792335 -0.09489761791084945 -0.1513965814388425 -0.18736734310649666 0.9407573907431283 -0.23926403197578794 0.19824516636126505 -0.5196016940634341 0.42832701761715264 -0.02647927723745117 -0.3601706723558894 0.15349383028750338 -0.1285944959426624 0.06381786578690946 -0.34362459507175014 0.5738951652996761 -1.019461943833883 -0.050931496742544546 -0.0001588941753674683 0.2642050181918418 -1.4173617553094298 1.7618409850719916 -0.24919106128151278 -0.024846369619718502 -0.5809312462108512 0.17247859892012232 -0.17294499703357957 0.819043681080699 0.035492022259022746 0.3538362454974293 0.4744996595184731 0.4231449591955809 -0.05633364159472234 -0.11727418583383675 -0.4936659480342789 0.3598883652287802 -0.18393337772428323 -0.06119611189334623 0.1086098252906194 0.5690692046659426 -0.829532753537481 -0.19265867341242304 -0.6437394397863236 -0.09795877333467645 0.19924224016721168 0.5672097828597005 0.1420148831136264 -0.05823600082375777 -1.7612799703621989 0.2197221052881184 -0.22225695589483013 0.12231483358153775 0.13437099341512343 -0.5092218934910069 -0.38555363120536823 0.044257684266794745 0.1295504320980285 -0.1895278410929252 -0.9647352417149643 0.11172857342525919 0.18474096122724312 0.22553639797705027 -0.27255544703906603 -0.11980132313106465 -0.5926693605833857 0.13526702286683157 -0.10415436062242708 -0.59525717591522 0.3471200098195183 1.449883639196535 0.009758879158976741 0.3163904419461454 0.057795313741913365 -0.19167754044607635 0.09319580472839434 1.906391490123278 -0.6705910127615289 0.823094197000989 -0.8001039067534027 0.5392372089061745 -0.6522809015984314 1.056140273091523 -0.0351274398307524 0.7894171164635179 -0.2005452752493514 0.32390577648658414 0.4720123743202452 0.04732912410326688 -0.5873168380222208 -0.2091358451318398 -1.4305998512662588 0.2020678825414649 0.28584805038291417 -0.16633597635749417 -0.6033957458619543 0.16369982428622776 -1.5457081397970283 -0.3410835738174513 -0.6089272172031448 0.03932836528597743 0.05251966716527083 0.3327974225492591 -0.11570786978798138 0.09081470609072748 -0.45666648799179416 0.18454504316635315
0.41267748400535387 0.578359628828933 0.9251867899983809 -2.0724539011044114 0.03536603820411974 0.18817312683724366 -0.5792610575972799 0.8545755554387218 0.42326888636795496 -1.2963165324689352 -0.7454448246476258 -1.249648953209067 0.34563828306766925 0.8908808176276592 0.016529622223907015 -0.8771416136646958 -1.1127945312504577 -1.8339488587818351 0.9692698963605243 -0.31309068814895114 -0.3996124232912795 -0.4979550623279359 -0.39524360479962256 -0.7237845660653729 -0.2114966320545325 0.5337985543891065 0.06837231792681128 -1.1284381513249857 -0.03260981561522126 0.33817694169361756 -0.16802082025908482 0.4682526501674968 0.781225581791661 -0.5344809251681119 -0.699605397716008 -0.09959296650398977 -0.3235185683504944 0.4175435538484034 1.7446385051507758 0.3170332177364669 -0.6906031942173977 -0.31500050357715426 -0.15531828509075188 0.130321248825782 -0.492100917540004 0.1524201376073504 -0.9586612676067424 0.45795409645496615 -0.4080885790830907 0.09851721694130774 0.23873232784203402 -1.0486969294396005 -0.1358187816052435 -0.5577015862589492 -0.5593080115141207 -0.3682634766663529 0.705807669871978 -0.853442213165227 -0.028356182545189876 -1.3824767705067869 0.16864945498201922 0.0976947210400124 0.7525834925749361 -0.3062075878758726 -0.22725903709511183 -1.9366477179046582 -0.15075946207547586 0.381104337184763 -0.1155122088374075 -0.2054681664722655 -0.8932806853184034 0.18164535302105492 -0.6155231252531077 0.9535923377242673 0.26595722499625807 -1.2878696872531628 0.17946325776807157 0.4071167020881246 0.1012883519285417 0.6001121900146762 2.071832979690961 -1.0596043203807235 -0.11177305350994944 -0.15138012637861026 0.4411123423072791 0.5174072575152766 1.586306372934365 -0.4873109523505284 0.4243335801870434 -0.631209425640113 -0.18648674027375625 -0.06602001564455082 -0.31947705129126913 -0.3339942710708377 -0.6803198100135187 -0.3188399319279025 1.642907666368177 -0.4939382278590591 -0.8300760276354607 -0.29938105187234243 0.7391391941445722 0.21735669037973537 0.6041609061627531 -0.052058925478768406 -0.44360579815309414 0.40827781227576143 0.20339842842743036 -0.8770919913736829 -0.4342387551158973 -0.07008801506633736 0.1881885534562114 0.2255042591875342 0.008358399267024315 -1.0950909433231075 -0.04514291508522548 -0.3320101507612734 -1.1171324965041793 0.5968916261948495 0.23363203050099118 0.47380289056176467 1.08303092683478 -0.4529095920525232 -0.7275430046665405 0.11462157870233808 -0.23656977297307644 0.8482740387007262 1.011660188401277 0.3454688473693405 1.5278022060508847 0.6815523968690392 -0.6706264939851547 0.18575294743152523 -0.0973206255300453 0.3589607112081883 1.2352350917765824 0.7137546926331966 0.775990815755283 0.17778509873470025 -0.3648462234546878 -0.3381795127967789 -0.12446581848626952 0.12925938322017091 -0.16611897525068164 0.2975470839873972 1.6683101656016817 0.31933409795550166 -0.6096347847931307 0.7505885736320944 0.7998025734629 -0.5272718090141821 1.8084764255423436 -0.149132210884698 0.44047702271612527 0.6457191892205139 0.2514173795088702 -1.607835248145076 -0.6867524530127398 0.5950838835621493 -0.05212911659507151 0.5194011480168539 0.5881845853391547 -1.8775606819345148 -0.9518612139657736 -0.5588616680053213 -0.5130497518775293 -0.2422822499768214 -0.20743248928748792 0.5201768498406139 1.533617012960449 0.3418505338904629 -0.011603131456567115 0.8137860322261855 -0.2841225830513752 0.5708175548156169 1.0096462432950417 -0.26060547376604154 1.3536557325100365 0.517074042545574 -0.550039184617685 -0.29887094500514333 -0.25022078809760784 -0.3414702677329087 1.0051686671396622 -0.2230722527072739 -0.5857752045667137 0.44684358836410143 -0.21465137563343029 0.6625953961505621 -0.08919131155469155 -0.22939793781498558 -0.17545747904278816 0.6866953745225594
0.46062547263954223 -0.08978035128894216 0.36296700415410393 -0.7663481504591964 0.2155875142944545 0.40833411943499354 0.3457128450593465 0.1304901703034785 -0.23256373713747686 -0.2154371047595193 1.7016787137597984 0.9993284063088017 0.23220301136394847 -0.04490945891818072 -0.4876567657257214 -0.7475955524420416 -0.15819097865285658 1.3542488860093451 0.2509756639857613 0.06307841651772363 -0.6067374086406777 -0.7214497472846092 1.8009865449232016 0.7178782278832669 0.16735953252600208 -0.40929262669352096 -0.17150492215294336 -0.10484187360775492 0.7343422869765611 -0.14509737869369205 0.44997262091138635 -0.598644347219898 -1.365869243857093 0.47452974142546017 2.2418744299245 -0.4907140644948065 -0.6345042943413007 -0.2219520230599016 -1.2446550995389016 0.10291637445026791 0.7520936974227111 0.05063633409962892 -0.875794355608182 -0.5214454321403923 -0.03528196313074569 0.3075489323951155 0.9958345342229301 0.42111301636721676 0.021358153960801925 -2.2455115124564555 -0.3133927927704022 0.3215323911584011 -0.6958988953986982 -0.32812135722982844 -0.6768855875209892 0.32782079527027413 -0.5551525945848503 -0.00687924361833654 -0.6473320422335883 1.5400967071475218 -0.08358424978055928 -1.6534491893294492 0.20196195309121995 0.8394834369922897 -0.22316378397981568 1.7006567002531872 -0.8285091973689732 0.727340144627115 0.24210227275553145 0.05250732587009667 -0.29135998134007884 0.8957528010079799 -0.5018132597317615 -1.3991832846281902 -0.1685476392968323 0.15549774809140962 0.21496479310879107 -0.6802478191250027 0.12541841220752595 -0.5024984587242443 -0.8099684582523082 -0.22425444594083316 -0.5435180956697155 0.5145636174188944 -0.6680901007165462 -0.7329258662450087 -1.7034905701575567 0.05130147848745359 0.24617232905984696 0.1907092629955361 -0.24917383489033215 0.4068194825626801 0.2727125414422206 0.3325760505670724 -0.08122037753407303 -0.327226613329701 0.40158034565092776 0.14907461817388518 0.4209608070600685 0.08828602613160279 0.034736117929604696 -0.07942034821085678 0.6841630950190088 -0.17079658323200908 -0.22504634571450918 -0.27754570116480587 2.1492756353501563 0.929991667586192 -0.5971569640410941 -0.3459375594756429 0.6614592256635898 -0.229194820665244 0.7526760522887425 0.6631636099492062 -0.4016978450653985 -0.3104277966048073 0.273504955436529 -0.12400276280692195 1.342484032163933 0.5772944207892121 0.8279813498899611 0.37332829278377 0.012226881083495072 0.21748987352348995 0.3991799637395512 -0.2508123989350196 0.653347395189733 -0.4246979055049976 -0.7852033354924864 0.813128858258161 1.2554892140399283 -0.3287733889915306 0.6804442514065249 -0.4502952943581277 -1.6921455774583825 -0.4077934164401751 -0.2107916355677079 -0.025320738152975746 -0.8121466968505497 0.7049615198215988 -0.3015271516810678 0.4215750436052998 0.9489872348520884 -0.03975953928612507 0.175249219686724 -1.1621486562035532 0.06853275476407551 0.45789110442751463 -0.1073381576670474 -0.16341211784247983 0.041211441241303215 0.5510627407861929 0.0008908872453855626 -0.6839214113218479 0.519407575774757 0.8845921564054701 -0.7725452804088437 -0.5164297240933557 -0.5691743627852391 -0.12984328074809898 -0.3402230255893689 1.546669475269033 -0.3901836737782119 0.8248649157481666 -0.15678407100300093 0.9684481717901773 -0.3595402378607421 -0.2864450605369647 0.03340557204363924 -2.065313176294572 0.6334887085925929 0.1739659820989262 0.23541226232986553 0.1986380309243095 -0.3404107161201428 -0.2428023841463496 -1.8008217372105633 0.4462041550078896 -0.6784138512400574 0.29297334857378576 -0.05954906320822647 -1.6675853716205153 -1.5601783083887453 0.6645391501404943 -0.44637359070621835 0.6284236353648597 -0.28990473695079105 0.48227544680915013 -0.741504094832323 0.38062688332771216 -0.7229083341080067 1.0066848466738725