
     Program PWSCF v.7.0 starts on  8Jul2023 at 22:50:54 

     This program is part of the open-source Quantum ESPRESSO suite
     for quantum simulation of materials; please cite
         "P. Giannozzi et al., J. Phys.:Condens. Matter 21 395502 (2009);
         "P. Giannozzi et al., J. Phys.:Condens. Matter 29 465901 (2017);
         "P. Giannozzi et al., J. Chem. Phys. 152 154105 (2020);
          URL http://www.quantum-espresso.org", 
     in publications or presentations arising from this work. More details at
     http://www.quantum-espresso.org/quote

     Parallel version (MPI & OpenMP), running on       1 processor cores
     Number of MPI processes:                 1
     Threads/MPI process:                     1

     MPI processes distributed on     1 nodes
     109179 MiB available memory on the printing compute node when the environment starts
 
     Reading input from pw-si-98.in
Warning: card &CELL ignored
Warning: card / ignored

     Current dimensions of program PWSCF are:
     Max number of different atomic species (ntypx) = 10
     Max number of k-points (npk) =  40000
     Max angular momentum in pseudopotentials (lmaxx) =  4

     IMPORTANT: XC functional enforced from input :
     Exchange-correlation= PBE
                           (   1   4   3   4   0   0   0)
     Any further DFT definition will be discarded
     Please, verify this is what you really want


     gamma-point specific algorithms are used

     Subspace diagonalization in iterative solution of the eigenvalue problem:
     a serial algorithm will be used

 
     G-vector sticks info
     --------------------
     sticks:   dense  smooth     PW     G-vecs:    dense   smooth      PW
     Sum        4043    4043   1015               198055   198055   24791
 
     Using Slab Decomposition
 


     bravais-lattice index     =            0
     lattice parameter (alat)  =      20.8252  a.u.
     unit-cell volume          =    8919.1309 (a.u.)^3
     number of atoms/cell      =           64
     number of atomic types    =            1
     number of electrons       =       256.00
     number of Kohn-Sham states=          128
     kinetic-energy cutoff     =      30.0000  Ry
     charge density cutoff     =     120.0000  Ry
     scf convergence threshold =      1.0E-06
     mixing beta               =       0.5000
     number of iterations used =            8  plain     mixing
     Exchange-correlation= PBE
                           (   1   4   3   4   0   0   0)

     GPU acceleration is ACTIVE.


     celldm(1)=  20.825241  celldm(2)=   0.000000  celldm(3)=   0.000000
     celldm(4)=   0.000000  celldm(5)=   0.000000  celldm(6)=   0.000000

     crystal axes: (cart. coord. in units of alat)
               a(1) = (   1.000000   0.000000   0.000000 )  
               a(2) = (   0.000000   0.975098   0.000000 )  
               a(3) = (   0.000000   0.000000   1.012754 )  

     reciprocal axes: (cart. coord. in units 2 pi/alat)
               b(1) = (  1.000000  0.000000  0.000000 )  
               b(2) = (  0.000000  1.025538  0.000000 )  
               b(3) = (  0.000000  0.000000  0.987406 )  


     PseudoPot. # 1 for Si read from file:
     ./Si_ONCV_PBE-1.0.upf
     MD5 check sum: 2de5a83d12544a9ea852f39b88f19b1f
     Pseudo is Norm-conserving, Zval =  4.0
     Generated using ONCVPSP code by D. R. Hamann
     Using radial grid of  602 points,  4 beta functions with: 
                l(1) =   0
                l(2) =   0
                l(3) =   1
                l(4) =   1

     atomic species   valence    mass     pseudopotential
        Si             4.00    28.08500     Si( 1.00)

     No symmetry found



   Cartesian axes

     site n.     atom                  positions (alat units)
         1           Si  tau(   1) = (   0.3801984   0.3625047   0.1260860  )
         2           Si  tau(   2) = (   0.0033114   0.2414369   0.2463145  )
         3           Si  tau(   3) = (   0.3780607   0.1227153   0.3687941  )
         4           Si  tau(   4) = (  -0.0034705  -0.0001457   0.0021692  )
         5           Si  tau(   5) = (   0.1235102   0.3668664   0.3744179  )
         6           Si  tau(   6) = (   0.2552318   0.2407736   0.0028153  )
         7           Si  tau(   7) = (   0.1215279   0.1194397   0.1246087  )
         8           Si  tau(   8) = (   0.2500802   0.0004376   0.2497570  )
         9           Si  tau(   9) = (   0.3726352   0.3619740   0.6182099  )
        10           Si  tau(  10) = (  -0.0009162   0.2388234   0.7446786  )
        11           Si  tau(  11) = (   0.3790633   0.1222925   0.8708221  )
        12           Si  tau(  12) = (  -0.0041926   0.0013442   0.4960297  )
        13           Si  tau(  13) = (   0.1296475   0.3602329   0.8675139  )
        14           Si  tau(  14) = (   0.2472722   0.2448941   0.5012376  )
        15           Si  tau(  15) = (   0.1264432   0.1209619   0.6236254  )
        16           Si  tau(  16) = (   0.2514777   0.0021924   0.7501354  )
        17           Si  tau(  17) = (   0.3760060   0.8501303   0.1260659  )
        18           Si  tau(  18) = (   0.0019228   0.7258261   0.2489698  )
        19           Si  tau(  19) = (   0.3732232   0.6098245   0.3707216  )
        20           Si  tau(  20) = (  -0.0019070   0.4872817  -0.0034325  )
        21           Si  tau(  21) = (   0.1222342   0.8522043   0.3692445  )
        22           Si  tau(  22) = (   0.2522715   0.7297245  -0.0040040  )
        23           Si  tau(  23) = (   0.1253610   0.6080794   0.1232804  )
        24           Si  tau(  24) = (   0.2462701   0.4825132   0.2500363  )
        25           Si  tau(  25) = (   0.3743694   0.8490689   0.6183598  )
        26           Si  tau(  26) = (  -0.0005778   0.7305933   0.7473149  )
        27           Si  tau(  27) = (   0.3714175   0.6096766   0.8754830  )
        28           Si  tau(  28) = (   0.0034611   0.4832376   0.4999916  )
        29           Si  tau(  29) = (   0.1245599   0.8503069   0.8684621  )
        30           Si  tau(  30) = (   0.2483540   0.7284713   0.4932171  )
        31           Si  tau(  31) = (   0.1261917   0.6036725   0.6239040  )
        32           Si  tau(  32) = (   0.2529925   0.4861800   0.7494606  )
        33           Si  tau(  33) = (   0.8773861   0.3609613   0.1208447  )
        34           Si  tau(  34) = (   0.5007940   0.2406298   0.2518450  )
        35           Si  tau(  35) = (   0.8748943   0.1243048   0.3736305  )
        36           Si  tau(  36) = (   0.4973571   0.0023799   0.0029730  )
        37           Si  tau(  37) = (   0.6270442   0.3659755   0.3747300  )
        38           Si  tau(  38) = (   0.7549970   0.2409003  -0.0013002  )
        39           Si  tau(  39) = (   0.6250168   0.1257955   0.1232142  )
        40           Si  tau(  40) = (   0.7558560  -0.0024429   0.2456909  )
        41           Si  tau(  41) = (   0.8782412   0.3679951   0.6240599  )
        42           Si  tau(  42) = (   0.5006579   0.2447023   0.7509274  )
        43           Si  tau(  43) = (   0.8811190   0.1250902   0.8670136  )
        44           Si  tau(  44) = (   0.5032065  -0.0018150   0.4983361  )
        45           Si  tau(  45) = (   0.6268662   0.3662410   0.8685250  )
        46           Si  tau(  46) = (   0.7557929   0.2415102   0.4952293  )
        47           Si  tau(  47) = (   0.6252178   0.1243391   0.6187119  )
        48           Si  tau(  48) = (   0.7518065  -0.0004302   0.7488587  )
        49           Si  tau(  49) = (   0.8806405   0.8539370   0.1213712  )
        50           Si  tau(  50) = (   0.5004017   0.7262222   0.2525750  )
        51           Si  tau(  51) = (   0.8733790   0.6032734   0.3737791  )
        52           Si  tau(  52) = (   0.5029364   0.4859660   0.0010061  )
        53           Si  tau(  53) = (   0.6309517   0.8518339   0.3772351  )
        54           Si  tau(  54) = (   0.7555654   0.7301506  -0.0034553  )
        55           Si  tau(  55) = (   0.6293432   0.6066666   0.1264139  )
        56           Si  tau(  56) = (   0.7564038   0.4861222   0.2459703  )
        57           Si  tau(  57) = (   0.8785798   0.8533814   0.6204473  )
        58           Si  tau(  58) = (   0.4976637   0.7300330   0.7445224  )
        59           Si  tau(  59) = (   0.8733090   0.6098859   0.8743025  )
        60           Si  tau(  60) = (   0.5012087   0.4843921   0.4935144  )
        61           Si  tau(  61) = (   0.6254187   0.8542992   0.8692845  )
        62           Si  tau(  62) = (   0.7533144   0.7291977   0.4983087  )
        63           Si  tau(  63) = (   0.6221795   0.6108643   0.6228100  )
        64           Si  tau(  64) = (   0.7499384   0.4849549   0.7433783  )

     number of k points=     1
                       cart. coord. in units 2pi/alat
        k(    1) = (   0.0000000   0.0000000   0.0000000), wk =   2.0000000

     Dense  grid:    99028 G-vectors     FFT dimensions: (  75,  72,  75)

     Estimated max dynamical RAM per process >     288.75 MB

     Initial potential from superposition of free atoms

     starting charge     253.0416, renormalised to     256.0000
     Starting wfcs are random

     total cpu time spent up to now is        1.4 secs

     Self-consistent Calculation

     iteration #  1     ecut=    30.00 Ry     beta= 0.50
     Davidson diagonalization with overlap
     ethr =  1.00E-02,  avg # of iterations = 14.0

     Threshold (ethr) on eigenvalues was too large:
     Diagonalizing with lowered threshold

     Davidson diagonalization with overlap
     ethr =  6.32E-04,  avg # of iterations =  8.0

     total cpu time spent up to now is        1.9 secs

     total energy              =    -503.73847620 Ry
     estimated scf accuracy    <       1.81105648 Ry

     iteration #  2     ecut=    30.00 Ry     beta= 0.50
     Davidson diagonalization with overlap
     ethr =  7.07E-04,  avg # of iterations =  1.0

     total cpu time spent up to now is        2.0 secs

     total energy              =    -503.73762996 Ry
     estimated scf accuracy    <       0.33807804 Ry

     iteration #  3     ecut=    30.00 Ry     beta= 0.50
     Davidson diagonalization with overlap
     ethr =  1.32E-04,  avg # of iterations =  2.0

     total cpu time spent up to now is        2.1 secs

     total energy              =    -503.76712383 Ry
     estimated scf accuracy    <       0.00498165 Ry

     iteration #  4     ecut=    30.00 Ry     beta= 0.50
     Davidson diagonalization with overlap
     ethr =  1.95E-06,  avg # of iterations = 16.0

     total cpu time spent up to now is        2.4 secs

     total energy              =    -503.77484953 Ry
     estimated scf accuracy    <       0.00190035 Ry

     iteration #  5     ecut=    30.00 Ry     beta= 0.50
     Davidson diagonalization with overlap
     ethr =  7.42E-07,  avg # of iterations =  4.0

     total cpu time spent up to now is        2.5 secs

     total energy              =    -503.77523458 Ry
     estimated scf accuracy    <       0.00051675 Ry

     iteration #  6     ecut=    30.00 Ry     beta= 0.50
     Davidson diagonalization with overlap
     ethr =  2.02E-07,  avg # of iterations =  8.0

     total cpu time spent up to now is        2.7 secs

     total energy              =    -503.77529733 Ry
     estimated scf accuracy    <       0.00005602 Ry

     iteration #  7     ecut=    30.00 Ry     beta= 0.50
     Davidson diagonalization with overlap
     ethr =  2.19E-08,  avg # of iterations =  7.0

     total cpu time spent up to now is        2.9 secs

     total energy              =    -503.77531382 Ry
     estimated scf accuracy    <       0.00002569 Ry

     iteration #  8     ecut=    30.00 Ry     beta= 0.50
     Davidson diagonalization with overlap
     ethr =  1.00E-08,  avg # of iterations =  3.0

     total cpu time spent up to now is        3.0 secs

     total energy              =    -503.77531733 Ry
     estimated scf accuracy    <       0.00000346 Ry

     iteration #  9     ecut=    30.00 Ry     beta= 0.50
     Davidson diagonalization with overlap
     ethr =  1.35E-09,  avg # of iterations =  9.0

     total cpu time spent up to now is        3.2 secs

     total energy              =    -503.77531833 Ry
     estimated scf accuracy    <       0.00000338 Ry

     iteration # 10     ecut=    30.00 Ry     beta= 0.50
     Davidson diagonalization with overlap
     ethr =  1.32E-09,  avg # of iterations =  2.0

     total cpu time spent up to now is        3.3 secs

     End of self-consistent calculation

          k = 0.0000 0.0000 0.0000 ( 12396 PWs)   bands (ev):

    -5.8506  -4.9009  -4.8384  -4.7827  -4.7711  -4.7491  -4.6759  -4.0004
    -3.9637  -3.9447  -3.9125  -3.8788  -3.8585  -3.8546  -3.8282  -3.7988
    -3.7373  -3.7015  -3.6720  -3.6277  -3.5709  -3.5390  -3.2680  -2.0066
    -1.8893  -1.8810  -1.8168  -1.8057  -1.7704  -1.7442  -1.7227  -1.6943
    -1.6846  -1.6494  -1.6212  -1.6085  -1.5444  -1.4985  -1.4753  -1.4091
    -1.3804  -1.0203  -0.8967  -0.8361  -0.7789   0.3138   0.3802   0.4250
     0.4795   0.4952   0.5302   0.5453   0.5675   0.5816   0.6163   0.6290
     0.6463   2.0555   2.0784   2.0843   2.0950   2.1284   2.1336   2.1399
     2.1541   2.1863   2.2083   2.2107   2.2254   2.2303   2.2485   2.2593
     2.2727   2.2810   2.2878   2.3030   2.3399   2.3518   2.3672   2.3941
     2.4037   2.4333   2.4559   2.5686   2.6403   2.6566   2.6890   3.0236
     3.0498   3.2260   3.2364   3.2427   3.2958   3.9247   3.9937   4.0178
     4.0363   4.0664   4.0905   4.0994   4.1243   4.1829   4.2175   4.2506
     4.3959   4.4325   4.4916   4.5334   4.5534   4.5705   4.6041   4.6301
     4.6524   4.6818   4.6938   4.7079   4.7213   4.7477   4.7600   4.7991
     4.8142   4.8714   4.9118   4.9449   5.4906   5.8344   5.8969   6.2425

     highest occupied level (ev):     6.2425

!    total energy              =    -503.77531806 Ry
     estimated scf accuracy    <       0.00000068 Ry

     The total energy is the sum of the following terms:
     one-electron contribution =     143.16356885 Ry
     hartree contribution      =      37.59641572 Ry
     xc contribution           =    -153.45950672 Ry
     ewald contribution        =    -531.07579591 Ry

     convergence has been achieved in  10 iterations

     Forces acting on atoms (cartesian axes, Ry/au):

     atom    1 type  1   force =    -0.01556509    0.00701602    0.00042819
     atom    2 type  1   force =    -0.01440411    0.01333090    0.01866256
     atom    3 type  1   force =    -0.02351760   -0.01671134    0.04504500
     atom    4 type  1   force =     0.02979546    0.01039763   -0.08398526
     atom    5 type  1   force =     0.00306153   -0.02900752   -0.00325255
     atom    6 type  1   force =    -0.01510130   -0.00167656   -0.05670403
     atom    7 type  1   force =     0.03325998   -0.00175489   -0.01368333
     atom    8 type  1   force =    -0.00177626   -0.00855407   -0.01251215
     atom    9 type  1   force =     0.02702076    0.02109862    0.03050322
     atom   10 type  1   force =     0.03016853    0.03682917   -0.00406515
     atom   11 type  1   force =    -0.01245336   -0.00614037    0.06631589
     atom   12 type  1   force =     0.03256955   -0.00253290    0.00059356
     atom   13 type  1   force =    -0.01426262    0.00255880    0.06427547
     atom   14 type  1   force =     0.00596443   -0.02033745   -0.03587354
     atom   15 type  1   force =    -0.01053568   -0.01454164   -0.00985266
     atom   16 type  1   force =     0.00514427   -0.02076736   -0.01479390
     atom   17 type  1   force =    -0.00201206    0.00268753   -0.00520036
     atom   18 type  1   force =    -0.01625180    0.00908512   -0.00573576
     atom   19 type  1   force =    -0.00268279   -0.03036405    0.00631437
     atom   20 type  1   force =     0.01774027   -0.00872678   -0.04486373
     atom   21 type  1   force =     0.00416134    0.00557126    0.01872284
     atom   22 type  1   force =    -0.01721370    0.00911877   -0.02296778
     atom   23 type  1   force =     0.00479241   -0.01074301   -0.01612189
     atom   24 type  1   force =     0.02646006    0.01871918   -0.01890881
     atom   25 type  1   force =    -0.00944245    0.01882698    0.01001239
     atom   26 type  1   force =     0.00199353   -0.01443466   -0.00616129
     atom   27 type  1   force =     0.03130324   -0.00667151    0.03148428
     atom   28 type  1   force =    -0.01740984    0.02109759   -0.00606560
     atom   29 type  1   force =     0.00552943    0.01594009    0.06500012
     atom   30 type  1   force =    -0.01161428    0.00549957    0.01618269
     atom   31 type  1   force =     0.00441939    0.02396441    0.00195635
     atom   32 type  1   force =     0.00004795   -0.00788270   -0.01121695
     atom   33 type  1   force =     0.00883158    0.01317178    0.00277906
     atom   34 type  1   force =     0.02310377    0.02642868   -0.01244895
     atom   35 type  1   force =     0.01336732   -0.01745705   -0.02998285
     atom   36 type  1   force =     0.01506953   -0.01045051   -0.05685549
     atom   37 type  1   force =     0.01702396   -0.01159342   -0.02041640
     atom   38 type  1   force =    -0.01621129    0.00728722   -0.06434369
     atom   39 type  1   force =     0.01389326   -0.02620163    0.00224943
     atom   40 type  1   force =    -0.02361815    0.01370946    0.00727197
     atom   41 type  1   force =    -0.00784862   -0.03084033   -0.01047616
     atom   42 type  1   force =     0.00151184   -0.00025394   -0.03307547
     atom   43 type  1   force =    -0.03547019   -0.03602323    0.07942332
     atom   44 type  1   force =    -0.01242774    0.00582620   -0.00998906
     atom   45 type  1   force =     0.00454452   -0.00499588    0.06663613
     atom   46 type  1   force =    -0.02440944    0.03156579    0.02356157
     atom   47 type  1   force =     0.01080396   -0.00762581    0.02682567
     atom   48 type  1   force =     0.00016036    0.01234677   -0.01949304
     atom   49 type  1   force =    -0.01903466   -0.03394568    0.01413930
     atom   50 type  1   force =     0.02186425    0.02298796   -0.01371928
     atom   51 type  1   force =     0.02647635    0.01444186    0.00931678
     atom   52 type  1   force =    -0.00104702    0.00643396   -0.04933415
     atom   53 type  1   force =    -0.01115868   -0.00058732   -0.02621797
     atom   54 type  1   force =    -0.02854537    0.01095160   -0.02711773
     atom   55 type  1   force =    -0.00190773    0.01493257   -0.01804002
     atom   56 type  1   force =    -0.02164146   -0.02321923    0.00323963
     atom   57 type  1   force =    -0.01711815   -0.00514513    0.01540058
     atom   58 type  1   force =    -0.00223086    0.00454705    0.02705431
     atom   59 type  1   force =     0.00543358   -0.01351794    0.01809457
     atom   60 type  1   force =    -0.01634354    0.01918103    0.01908590
     atom   61 type  1   force =    -0.00826334   -0.00873065    0.05884972
     atom   62 type  1   force =    -0.00411362   -0.00437816    0.00974263
     atom   63 type  1   force =     0.01169333   -0.01874346   -0.01350011
     atom   64 type  1   force =    -0.00157694    0.02900261    0.01780759

     Total force =     0.321061     Total SCF correction =     0.001637


     Computing stress (Cartesian axis) and pressure

          total   stress  (Ry/bohr**3)                   (kbar)     P=        4.76
   0.00001950   0.00005512  -0.00002751            2.87        8.11       -4.05
   0.00005512   0.00016323   0.00000363            8.11       24.01        0.53
  -0.00002751   0.00000363  -0.00008560           -4.05        0.53      -12.59

 
     init_run     :      0.94s CPU      1.39s WALL (       1 calls)
     electrons    :      1.84s CPU      1.91s WALL (       1 calls)
     forces       :      0.06s CPU      0.07s WALL (       1 calls)
     stress       :      0.22s CPU      0.26s WALL (       1 calls)

     Called by init_run:
     wfcinit      :      0.55s CPU      0.90s WALL (       1 calls)
                                        0.90s GPU  (       1 calls)
     potinit      :      0.23s CPU      0.28s WALL (       1 calls)
     hinit0       :      0.12s CPU      0.12s WALL (       1 calls)

     Called by electrons:
     c_bands      :      1.19s CPU      1.22s WALL (      11 calls)
     sum_band     :      0.24s CPU      0.26s WALL (      11 calls)
     v_of_rho     :      0.18s CPU      0.23s WALL (      11 calls)
     mix_rho      :      0.22s CPU      0.23s WALL (      11 calls)

     Called by c_bands:
     init_us_2    :      0.03s CPU      0.04s WALL (      23 calls)
     init_us_2:gp :      0.03s CPU      0.04s WALL (      23 calls)
     regterg      :      1.08s CPU      1.10s WALL (      11 calls)

     Called by *egterg:
     rdiaghg      :      0.38s CPU      0.44s WALL (      84 calls)
                                        0.43s GPU  (      84 calls)
     h_psi        :      1.05s CPU      1.34s WALL (      86 calls)
                                        1.34s GPU  (      86 calls)
     g_psi        :      0.00s CPU      0.00s WALL (      74 calls)
                                        0.00s GPU  (      74 calls)

     Called by h_psi:
     h_psi:calbec :      0.42s CPU      0.73s WALL (      86 calls)
                                        0.73s GPU  (      86 calls)
     vloc_psi     :      0.52s CPU      0.54s WALL (      86 calls)
                                        0.53s GPU  (      86 calls)
     add_vuspsi   :      0.04s CPU      0.07s WALL (      86 calls)
                                        0.07s GPU  (      86 calls)

     General routines
     calbec       :      0.42s CPU      0.70s WALL (      91 calls)
     fft          :      0.18s CPU      0.19s WALL (      95 calls)
                                        0.03s GPU  (      59 calls)
     ffts         :      0.04s CPU      0.04s WALL (      11 calls)
     fftw         :      0.03s CPU      0.60s WALL (    1088 calls)
                                        0.50s GPU  (    1088 calls)
 
     Parallel routines
 
     PWSCF        :      3.09s CPU      3.69s WALL

 
   This run was terminated on:  22:50:58   8Jul2023            

=------------------------------------------------------------------------------=
   JOB DONE.
=------------------------------------------------------------------------------=
