
     Program PWSCF v.7.0 starts on  8Jul2023 at 22:40: 7 

     This program is part of the open-source Quantum ESPRESSO suite
     for quantum simulation of materials; please cite
         "P. Giannozzi et al., J. Phys.:Condens. Matter 21 395502 (2009);
         "P. Giannozzi et al., J. Phys.:Condens. Matter 29 465901 (2017);
         "P. Giannozzi et al., J. Chem. Phys. 152 154105 (2020);
          URL http://www.quantum-espresso.org", 
     in publications or presentations arising from this work. More details at
     http://www.quantum-espresso.org/quote

     Parallel version (MPI & OpenMP), running on       1 processor cores
     Number of MPI processes:                 1
     Threads/MPI process:                     1

     MPI processes distributed on     1 nodes
     107829 MiB available memory on the printing compute node when the environment starts
 
     Reading input from pw-si-5.in
Warning: card &CELL ignored
Warning: card / ignored

     Current dimensions of program PWSCF are:
     Max number of different atomic species (ntypx) = 10
     Max number of k-points (npk) =  40000
     Max angular momentum in pseudopotentials (lmaxx) =  4

     IMPORTANT: XC functional enforced from input :
     Exchange-correlation= PBE
                           (   1   4   3   4   0   0   0)
     Any further DFT definition will be discarded
     Please, verify this is what you really want


     gamma-point specific algorithms are used

     Subspace diagonalization in iterative solution of the eigenvalue problem:
     a serial algorithm will be used

 
     G-vector sticks info
     --------------------
     sticks:   dense  smooth     PW     G-vecs:    dense   smooth      PW
     Sum        4043    4043   1015               191581   191581   23921
 
     Using Slab Decomposition
 


     bravais-lattice index     =            0
     lattice parameter (alat)  =      20.8020  a.u.
     unit-cell volume          =    8629.0588 (a.u.)^3
     number of atoms/cell      =           64
     number of atomic types    =            1
     number of electrons       =       256.00
     number of Kohn-Sham states=          128
     kinetic-energy cutoff     =      30.0000  Ry
     charge density cutoff     =     120.0000  Ry
     scf convergence threshold =      1.0E-06
     mixing beta               =       0.5000
     number of iterations used =            8  plain     mixing
     Exchange-correlation= PBE
                           (   1   4   3   4   0   0   0)

     GPU acceleration is ACTIVE.


     celldm(1)=  20.801985  celldm(2)=   0.000000  celldm(3)=   0.000000
     celldm(4)=   0.000000  celldm(5)=   0.000000  celldm(6)=   0.000000

     crystal axes: (cart. coord. in units of alat)
               a(1) = (   1.000000   0.000000   0.000000 )  
               a(2) = (   0.000000   0.977839   0.000000 )  
               a(3) = (   0.000000   0.000000   0.980351 )  

     reciprocal axes: (cart. coord. in units 2 pi/alat)
               b(1) = (  1.000000  0.000000  0.000000 )  
               b(2) = (  0.000000  1.022663  0.000000 )  
               b(3) = (  0.000000  0.000000  1.020043 )  


     PseudoPot. # 1 for Si read from file:
     ./Si_ONCV_PBE-1.0.upf
     MD5 check sum: 2de5a83d12544a9ea852f39b88f19b1f
     Pseudo is Norm-conserving, Zval =  4.0
     Generated using ONCVPSP code by D. R. Hamann
     Using radial grid of  602 points,  4 beta functions with: 
                l(1) =   0
                l(2) =   0
                l(3) =   1
                l(4) =   1

     atomic species   valence    mass     pseudopotential
        Si             4.00    28.08500     Si( 1.00)

     No symmetry found



   Cartesian axes

     site n.     atom                  positions (alat units)
         1           Si  tau(   1) = (   0.3684584   0.3628975   0.1159925  )
         2           Si  tau(   2) = (   0.0029690   0.2452563   0.2377426  )
         3           Si  tau(   3) = (   0.3742046   0.1200248   0.3590163  )
         4           Si  tau(   4) = (   0.0005891   0.0002843  -0.0001421  )
         5           Si  tau(   5) = (   0.1194583   0.3646815   0.3595750  )
         6           Si  tau(   6) = (   0.2510307   0.2467094  -0.0008693  )
         7           Si  tau(   7) = (   0.1199162   0.1250223   0.1193330  )
         8           Si  tau(   8) = (   0.2492190   0.0029488   0.2427478  )
         9           Si  tau(   9) = (   0.3690885   0.3643876   0.6000227  )
        10           Si  tau(  10) = (  -0.0007508   0.2441460   0.7198660  )
        11           Si  tau(  11) = (   0.3742270   0.1178296   0.8461773  )
        12           Si  tau(  12) = (  -0.0036907   0.0040465   0.4849748  )
        13           Si  tau(  13) = (   0.1276866   0.3613684   0.8380165  )
        14           Si  tau(  14) = (   0.2436490   0.2470114   0.4806732  )
        15           Si  tau(  15) = (   0.1239705   0.1230133   0.6046209  )
        16           Si  tau(  16) = (   0.2488180   0.0024765   0.7194701  )
        17           Si  tau(  17) = (   0.3729690   0.8554346   0.1188295  )
        18           Si  tau(  18) = (  -0.0007955   0.7322849   0.2441995  )
        19           Si  tau(  19) = (   0.3696095   0.6097541   0.3564590  )
        20           Si  tau(  20) = (  -0.0011302   0.4835991  -0.0014829  )
        21           Si  tau(  21) = (   0.1219776   0.8564830   0.3597509  )
        22           Si  tau(  22) = (   0.2488089   0.7327276   0.0018379  )
        23           Si  tau(  23) = (   0.1201910   0.6091952   0.1176737  )
        24           Si  tau(  24) = (   0.2458241   0.4917378   0.2361733  )
        25           Si  tau(  25) = (   0.3733685   0.8492075   0.5974753  )
        26           Si  tau(  26) = (  -0.0006223   0.7311173   0.7175958  )
        27           Si  tau(  27) = (   0.3739764   0.6075888   0.8404541  )
        28           Si  tau(  28) = (  -0.0029216   0.4888005   0.4831192  )
        29           Si  tau(  29) = (   0.1211467   0.8521614   0.8385436  )
        30           Si  tau(  30) = (   0.2478249   0.7271624   0.4832634  )
        31           Si  tau(  31) = (   0.1246263   0.6073643   0.6049031  )
        32           Si  tau(  32) = (   0.2507327   0.4903607   0.7252748  )
        33           Si  tau(  33) = (   0.8589733   0.3664160   0.1218721  )
        34           Si  tau(  34) = (   0.4957274   0.2414443   0.2381230  )
        35           Si  tau(  35) = (   0.8672700   0.1214513   0.3605362  )
        36           Si  tau(  36) = (   0.4959521  -0.0022614  -0.0011196  )
        37           Si  tau(  37) = (   0.6186162   0.3691792   0.3576803  )
        38           Si  tau(  38) = (   0.7401418   0.2405633  -0.0035094  )
        39           Si  tau(  39) = (   0.6191683   0.1218921   0.1245934  )
        40           Si  tau(  40) = (   0.7374287  -0.0038820   0.2404584  )
        41           Si  tau(  41) = (   0.8609135   0.3662911   0.6046711  )
        42           Si  tau(  42) = (   0.4922081   0.2439262   0.7174596  )
        43           Si  tau(  43) = (   0.8653320   0.1187417   0.8389690  )
        44           Si  tau(  44) = (   0.4919838   0.0015883   0.4807599  )
        45           Si  tau(  45) = (   0.6173891   0.3628356   0.8415852  )
        46           Si  tau(  46) = (   0.7369442   0.2395583   0.4773515  )
        47           Si  tau(  47) = (   0.6178458   0.1230266   0.6015797  )
        48           Si  tau(  48) = (   0.7389847  -0.0005594   0.7208951  )
        49           Si  tau(  49) = (   0.8588295   0.8502823   0.1245181  )
        50           Si  tau(  50) = (   0.4886953   0.7291980   0.2432891  )
        51           Si  tau(  51) = (   0.8594582   0.6119658   0.3573995  )
        52           Si  tau(  52) = (   0.4926270   0.4860901   0.0026879  )
        53           Si  tau(  53) = (   0.6168014   0.8508614   0.3608356  )
        54           Si  tau(  54) = (   0.7378576   0.7278282   0.0029219  )
        55           Si  tau(  55) = (   0.6181800   0.6131567   0.1245486  )
        56           Si  tau(  56) = (   0.7419931   0.4910688   0.2363058  )
        57           Si  tau(  57) = (   0.8591090   0.8526671   0.6012657  )
        58           Si  tau(  58) = (   0.4930038   0.7330891   0.7193779  )
        59           Si  tau(  59) = (   0.8636914   0.6135654   0.8416391  )
        60           Si  tau(  60) = (   0.4898813   0.4913195   0.4817841  )
        61           Si  tau(  61) = (   0.6190777   0.8551160   0.8449292  )
        62           Si  tau(  62) = (   0.7411673   0.7343044   0.4775611  )
        63           Si  tau(  63) = (   0.6194835   0.6073981   0.6005573  )
        64           Si  tau(  64) = (   0.7422057   0.4896760   0.7215671  )

     number of k points=     1
                       cart. coord. in units 2pi/alat
        k(    1) = (   0.0000000   0.0000000   0.0000000), wk =   2.0000000

     Dense  grid:    95791 G-vectors     FFT dimensions: (  75,  72,  72)

     Estimated max dynamical RAM per process >     279.22 MB

     Initial potential from superposition of free atoms

     starting charge     253.0416, renormalised to     256.0000
     Starting wfcs are random

     total cpu time spent up to now is        2.8 secs

     Self-consistent Calculation

     iteration #  1     ecut=    30.00 Ry     beta= 0.50
     Davidson diagonalization with overlap
     ethr =  1.00E-02,  avg # of iterations = 12.0

     Threshold (ethr) on eigenvalues was too large:
     Diagonalizing with lowered threshold

     Davidson diagonalization with overlap
     ethr =  6.24E-04,  avg # of iterations = 15.0

     total cpu time spent up to now is        3.7 secs

     total energy              =    -503.64981862 Ry
     estimated scf accuracy    <       1.91900652 Ry

     iteration #  2     ecut=    30.00 Ry     beta= 0.50
     Davidson diagonalization with overlap
     ethr =  7.50E-04,  avg # of iterations =  1.0

     total cpu time spent up to now is        3.9 secs

     total energy              =    -503.64496849 Ry
     estimated scf accuracy    <       0.34842400 Ry

     iteration #  3     ecut=    30.00 Ry     beta= 0.50
     Davidson diagonalization with overlap
     ethr =  1.36E-04,  avg # of iterations =  2.0

     total cpu time spent up to now is        4.1 secs

     total energy              =    -503.67252380 Ry
     estimated scf accuracy    <       0.00536634 Ry

     iteration #  4     ecut=    30.00 Ry     beta= 0.50
     Davidson diagonalization with overlap
     ethr =  2.10E-06,  avg # of iterations = 14.0

     total cpu time spent up to now is        4.6 secs

     total energy              =    -503.67986008 Ry
     estimated scf accuracy    <       0.00268860 Ry

     iteration #  5     ecut=    30.00 Ry     beta= 0.50
     Davidson diagonalization with overlap
     ethr =  1.05E-06,  avg # of iterations =  3.0

     total cpu time spent up to now is        4.9 secs

     total energy              =    -503.68038519 Ry
     estimated scf accuracy    <       0.00059019 Ry

     iteration #  6     ecut=    30.00 Ry     beta= 0.50
     Davidson diagonalization with overlap
     ethr =  2.31E-07,  avg # of iterations =  8.0

     total cpu time spent up to now is        5.2 secs

     total energy              =    -503.68046501 Ry
     estimated scf accuracy    <       0.00008493 Ry

     iteration #  7     ecut=    30.00 Ry     beta= 0.50
     Davidson diagonalization with overlap
     ethr =  3.32E-08,  avg # of iterations =  7.0

     total cpu time spent up to now is        5.5 secs

     total energy              =    -503.68048329 Ry
     estimated scf accuracy    <       0.00002030 Ry

     iteration #  8     ecut=    30.00 Ry     beta= 0.50
     Davidson diagonalization with overlap
     ethr =  7.93E-09,  avg # of iterations =  5.0

     total cpu time spent up to now is        5.8 secs

     total energy              =    -503.68048817 Ry
     estimated scf accuracy    <       0.00000439 Ry

     iteration #  9     ecut=    30.00 Ry     beta= 0.50
     Davidson diagonalization with overlap
     ethr =  1.71E-09,  avg # of iterations =  7.0

     total cpu time spent up to now is        6.2 secs

     total energy              =    -503.68048859 Ry
     estimated scf accuracy    <       0.00000193 Ry

     iteration # 10     ecut=    30.00 Ry     beta= 0.50
     Davidson diagonalization with overlap
     ethr =  7.53E-10,  avg # of iterations =  3.0

     total cpu time spent up to now is        6.4 secs

     End of self-consistent calculation

          k = 0.0000 0.0000 0.0000 ( 11961 PWs)   bands (ev):

    -5.7648  -4.8184  -4.7511  -4.7136  -4.6255  -4.5851  -4.4624  -3.9093
    -3.8876  -3.8167  -3.7901  -3.7468  -3.7372  -3.6977  -3.6053  -3.5805
    -3.5237  -3.5212  -3.4817  -3.4037  -3.3650  -3.2711  -2.9712  -1.7663
    -1.7100  -1.6649  -1.6181  -1.5954  -1.5273  -1.5259  -1.5081  -1.4419
    -1.4314  -1.4157  -1.3525  -1.3055  -1.2819  -1.2286  -1.2069  -1.1540
    -1.0996  -0.8966  -0.6758  -0.6483  -0.6029   0.6295   0.6998   0.7033
     0.7384   0.7611   0.7832   0.7965   0.8264   0.8524   0.8619   0.8861
     0.9381   2.2144   2.2470   2.2582   2.2755   2.2852   2.2897   2.3004
     2.3412   2.3683   2.3974   2.4239   2.4311   2.4376   2.4574   2.4751
     2.5097   2.5379   2.5441   2.5523   2.5551   2.5789   2.5905   2.6580
     2.7288   2.8152   2.8447   2.8732   2.9270   2.9521   3.0139   3.3159
     3.3336   3.3960   3.4028   3.5413   3.5598   4.1629   4.1817   4.2970
     4.3026   4.3597   4.3869   4.4237   4.4511   4.4657   4.5325   4.6118
     4.6474   4.7110   4.7623   4.8059   4.8339   4.8569   4.8618   4.9027
     4.9320   4.9563   4.9699   4.9976   5.0301   5.0711   5.0799   5.1058
     5.1409   5.1945   5.2408   5.5885   5.7490   6.1265   6.3773   6.5039

     highest occupied level (ev):     6.5039

!    total energy              =    -503.68048885 Ry
     estimated scf accuracy    <       0.00000033 Ry

     The total energy is the sum of the following terms:
     one-electron contribution =     150.02831093 Ry
     hartree contribution      =      37.18530677 Ry
     xc contribution           =    -154.56758898 Ry
     ewald contribution        =    -536.32651757 Ry

     convergence has been achieved in  10 iterations

     Forces acting on atoms (cartesian axes, Ry/au):

     atom    1 type  1   force =     0.01605060    0.02249461    0.03598404
     atom    2 type  1   force =    -0.08060563    0.00137552    0.00731877
     atom    3 type  1   force =    -0.02252967    0.03323770    0.01646254
     atom    4 type  1   force =    -0.05041869   -0.02899319   -0.04860361
     atom    5 type  1   force =     0.01344319    0.03464975    0.00064290
     atom    6 type  1   force =    -0.03411538   -0.04328082   -0.07132926
     atom    7 type  1   force =     0.03769860   -0.01217729   -0.01554245
     atom    8 type  1   force =    -0.01936737   -0.01537253   -0.02815074
     atom    9 type  1   force =    -0.00822591    0.02076146    0.00265926
     atom   10 type  1   force =    -0.04388926   -0.00126832    0.01315299
     atom   11 type  1   force =    -0.00653497    0.01821213    0.03038484
     atom   12 type  1   force =    -0.02078800   -0.02721032   -0.00387355
     atom   13 type  1   force =    -0.01258287    0.01623986    0.06785564
     atom   14 type  1   force =     0.01233063   -0.02686019   -0.01225157
     atom   15 type  1   force =    -0.00604092    0.00506869   -0.01913968
     atom   16 type  1   force =     0.00592820   -0.03728599    0.01781158
     atom   17 type  1   force =    -0.01587212    0.00383171    0.00928521
     atom   18 type  1   force =    -0.04078782   -0.00528251   -0.02169114
     atom   19 type  1   force =    -0.02175362   -0.01432317    0.02745155
     atom   20 type  1   force =    -0.03319362   -0.00110288   -0.05376979
     atom   21 type  1   force =     0.00655942    0.00379972    0.02927084
     atom   22 type  1   force =    -0.01190958   -0.00883897   -0.07532361
     atom   23 type  1   force =    -0.00586361    0.01482260   -0.00449271
     atom   24 type  1   force =    -0.00799144   -0.03474309    0.00706488
     atom   25 type  1   force =    -0.02394004    0.03708884    0.01034409
     atom   26 type  1   force =    -0.05009016    0.00698001    0.01583432
     atom   27 type  1   force =     0.00393949    0.02334065    0.08058148
     atom   28 type  1   force =    -0.04121205   -0.00434728   -0.00588775
     atom   29 type  1   force =     0.01715654    0.02012394    0.06169750
     atom   30 type  1   force =    -0.01895338    0.01650395   -0.02455014
     atom   31 type  1   force =    -0.00725318   -0.00256777   -0.01242568
     atom   32 type  1   force =    -0.01299031   -0.02646023   -0.01240090
     atom   33 type  1   force =     0.06389894   -0.01921114   -0.03228482
     atom   34 type  1   force =    -0.01164407    0.02874794    0.00845383
     atom   35 type  1   force =     0.02349812   -0.00202477   -0.01725352
     atom   36 type  1   force =     0.01587948    0.00791094   -0.03411345
     atom   37 type  1   force =    -0.01688920   -0.00272599    0.00731937
     atom   38 type  1   force =     0.00877072    0.00032509   -0.04259226
     atom   39 type  1   force =    -0.00175578   -0.01291314   -0.04344954
     atom   40 type  1   force =     0.02321539    0.00908684    0.01842800
     atom   41 type  1   force =     0.04212320   -0.01761538   -0.02829692
     atom   42 type  1   force =     0.00445807   -0.00920110    0.03299261
     atom   43 type  1   force =     0.03934732    0.01343660    0.05942205
     atom   44 type  1   force =     0.02650817   -0.02608322    0.00722464
     atom   45 type  1   force =    -0.00378517    0.01396135    0.04804300
     atom   46 type  1   force =     0.02776064    0.03018124    0.00691474
     atom   47 type  1   force =    -0.01419026   -0.01315309   -0.00484095
     atom   48 type  1   force =     0.00502739   -0.00646100    0.01157274
     atom   49 type  1   force =     0.06488694    0.01242012   -0.02371102
     atom   50 type  1   force =     0.02919325    0.03110737   -0.02050761
     atom   51 type  1   force =     0.07033854   -0.00580032    0.01713183
     atom   52 type  1   force =     0.02511448    0.00977858   -0.06253484
     atom   53 type  1   force =    -0.02671042    0.02314508   -0.00202750
     atom   54 type  1   force =     0.02020149    0.02287674   -0.07302549
     atom   55 type  1   force =    -0.03702151   -0.02173626   -0.01995446
     atom   56 type  1   force =    -0.00942328   -0.00806784    0.02023166
     atom   57 type  1   force =     0.05964821    0.01329587   -0.00045129
     atom   58 type  1   force =     0.03165124   -0.01105061    0.02220127
     atom   59 type  1   force =     0.03926899   -0.01013594    0.05264883
     atom   60 type  1   force =     0.02011098   -0.02139312   -0.01162423
     atom   61 type  1   force =    -0.00973204   -0.01328108    0.03909484
     atom   62 type  1   force =    -0.00867613   -0.02278303    0.01737945
     atom   63 type  1   force =    -0.00834861    0.02577086   -0.00346899
     atom   64 type  1   force =    -0.00892216   -0.00682421    0.02670820

     Total force =     0.389163     Total SCF correction =     0.000991


     Computing stress (Cartesian axis) and pressure

          total   stress  (Ry/bohr**3)                   (kbar)     P=       37.77
   0.00017248   0.00005313   0.00003414           25.37        7.82        5.02
   0.00005313   0.00032350   0.00003311            7.82       47.59        4.87
   0.00003414   0.00003311   0.00027436            5.02        4.87       40.36

 
     init_run     :      0.96s CPU      2.78s WALL (       1 calls)
     electrons    :      1.68s CPU      3.54s WALL (       1 calls)
     forces       :      0.07s CPU      0.15s WALL (       1 calls)
     stress       :      0.23s CPU      0.53s WALL (       1 calls)

     Called by init_run:
     wfcinit      :      0.58s CPU      1.82s WALL (       1 calls)
                                        1.82s GPU  (       1 calls)
     potinit      :      0.22s CPU      0.54s WALL (       1 calls)
     hinit0       :      0.12s CPU      0.23s WALL (       1 calls)

     Called by electrons:
     c_bands      :      1.08s CPU      2.27s WALL (      11 calls)
     sum_band     :      0.22s CPU      0.45s WALL (      11 calls)
     v_of_rho     :      0.16s CPU      0.46s WALL (      11 calls)
     mix_rho      :      0.20s CPU      0.43s WALL (      11 calls)

     Called by c_bands:
     init_us_2    :      0.04s CPU      0.05s WALL (      23 calls)
     init_us_2:gp :      0.04s CPU      0.05s WALL (      23 calls)
     regterg      :      0.98s CPU      2.05s WALL (      11 calls)

     Called by *egterg:
     rdiaghg      :      0.38s CPU      0.93s WALL (      87 calls)
                                        0.92s GPU  (      87 calls)
     h_psi        :      0.98s CPU      2.54s WALL (      89 calls)
                                        2.53s GPU  (      89 calls)
     g_psi        :      0.00s CPU      0.00s WALL (      77 calls)
                                        0.00s GPU  (      77 calls)

     Called by h_psi:
     h_psi:calbec :      0.47s CPU      1.48s WALL (      89 calls)
                                        1.46s GPU  (      89 calls)
     vloc_psi     :      0.41s CPU      0.90s WALL (      89 calls)
                                        0.89s GPU  (      89 calls)
     add_vuspsi   :      0.04s CPU      0.14s WALL (      89 calls)
                                        0.12s GPU  (      89 calls)

     General routines
     calbec       :      0.47s CPU      1.43s WALL (      94 calls)
     fft          :      0.16s CPU      0.34s WALL (      95 calls)
                                        0.07s GPU  (      59 calls)
     ffts         :      0.04s CPU      0.10s WALL (      11 calls)
     fftw         :      0.03s CPU      0.97s WALL (    1088 calls)
                                        0.43s GPU  (    1088 calls)
 
     Parallel routines
 
     PWSCF        :      2.98s CPU      7.11s WALL

 
   This run was terminated on:  22:40:14   8Jul2023            

=------------------------------------------------------------------------------=
   JOB DONE.
=------------------------------------------------------------------------------=
