
     Program PWSCF v.7.0 starts on  8Jul2023 at 22:49:47 

     This program is part of the open-source Quantum ESPRESSO suite
     for quantum simulation of materials; please cite
         "P. Giannozzi et al., J. Phys.:Condens. Matter 21 395502 (2009);
         "P. Giannozzi et al., J. Phys.:Condens. Matter 29 465901 (2017);
         "P. Giannozzi et al., J. Chem. Phys. 152 154105 (2020);
          URL http://www.quantum-espresso.org", 
     in publications or presentations arising from this work. More details at
     http://www.quantum-espresso.org/quote

     Parallel version (MPI & OpenMP), running on       1 processor cores
     Number of MPI processes:                 1
     Threads/MPI process:                     1

     MPI processes distributed on     1 nodes
     109179 MiB available memory on the printing compute node when the environment starts
 
     Reading input from pw-si-83.in
Warning: card &CELL ignored
Warning: card / ignored

     Current dimensions of program PWSCF are:
     Max number of different atomic species (ntypx) = 10
     Max number of k-points (npk) =  40000
     Max angular momentum in pseudopotentials (lmaxx) =  4

     IMPORTANT: XC functional enforced from input :
     Exchange-correlation= PBE
                           (   1   4   3   4   0   0   0)
     Any further DFT definition will be discarded
     Please, verify this is what you really want


     gamma-point specific algorithms are used

     Subspace diagonalization in iterative solution of the eigenvalue problem:
     a serial algorithm will be used

 
     G-vector sticks info
     --------------------
     sticks:   dense  smooth     PW     G-vecs:    dense   smooth      PW
     Sum        4031    4031   1007               192077   192077   23973
 
     Using Slab Decomposition
 


     bravais-lattice index     =            0
     lattice parameter (alat)  =      20.3870  a.u.
     unit-cell volume          =    8649.5686 (a.u.)^3
     number of atoms/cell      =           64
     number of atomic types    =            1
     number of electrons       =       256.00
     number of Kohn-Sham states=          128
     kinetic-energy cutoff     =      30.0000  Ry
     charge density cutoff     =     120.0000  Ry
     scf convergence threshold =      1.0E-06
     mixing beta               =       0.5000
     number of iterations used =            8  plain     mixing
     Exchange-correlation= PBE
                           (   1   4   3   4   0   0   0)

     GPU acceleration is ACTIVE.


     celldm(1)=  20.387016  celldm(2)=   0.000000  celldm(3)=   0.000000
     celldm(4)=   0.000000  celldm(5)=   0.000000  celldm(6)=   0.000000

     crystal axes: (cart. coord. in units of alat)
               a(1) = (   1.000000   0.000000   0.000000 )  
               a(2) = (   0.000000   1.014891   0.000000 )  
               a(3) = (   0.000000   0.000000   1.005806 )  

     reciprocal axes: (cart. coord. in units 2 pi/alat)
               b(1) = (  1.000000  0.000000  0.000000 )  
               b(2) = (  0.000000  0.985328  0.000000 )  
               b(3) = (  0.000000  0.000000  0.994228 )  


     PseudoPot. # 1 for Si read from file:
     ./Si_ONCV_PBE-1.0.upf
     MD5 check sum: 2de5a83d12544a9ea852f39b88f19b1f
     Pseudo is Norm-conserving, Zval =  4.0
     Generated using ONCVPSP code by D. R. Hamann
     Using radial grid of  602 points,  4 beta functions with: 
                l(1) =   0
                l(2) =   0
                l(3) =   1
                l(4) =   1

     atomic species   valence    mass     pseudopotential
        Si             4.00    28.08500     Si( 1.00)

     No symmetry found



   Cartesian axes

     site n.     atom                  positions (alat units)
         1           Si  tau(   1) = (   0.3719661   0.3870872   0.1237584  )
         2           Si  tau(   2) = (   0.0015089   0.2605316   0.2468300  )
         3           Si  tau(   3) = (   0.3708678   0.1265706   0.3686443  )
         4           Si  tau(   4) = (   0.0039622  -0.0040756  -0.0014112  )
         5           Si  tau(   5) = (   0.1273699   0.3861956   0.3738232  )
         6           Si  tau(   6) = (   0.2453801   0.2611319   0.0012007  )
         7           Si  tau(   7) = (   0.1276054   0.1306071   0.1268573  )
         8           Si  tau(   8) = (   0.2462736   0.0016833   0.2481310  )
         9           Si  tau(   9) = (   0.3712039   0.3909568   0.6177729  )
        10           Si  tau(  10) = (  -0.0043759   0.2613289   0.7368343  )
        11           Si  tau(  11) = (   0.3714280   0.1248959   0.8669813  )
        12           Si  tau(  12) = (   0.0012610  -0.0014909   0.4949455  )
        13           Si  tau(  13) = (   0.1201838   0.3912373   0.8631788  )
        14           Si  tau(  14) = (   0.2471005   0.2631490   0.4902709  )
        15           Si  tau(  15) = (   0.1252207   0.1288148   0.6165600  )
        16           Si  tau(  16) = (   0.2477169  -0.0030578   0.7447639  )
        17           Si  tau(  17) = (   0.3699008   0.9030131   0.1210262  )
        18           Si  tau(  18) = (   0.0035735   0.7771142   0.2435221  )
        19           Si  tau(  19) = (   0.3715353   0.6448166   0.3671146  )
        20           Si  tau(  20) = (  -0.0006280   0.5146345  -0.0017013  )
        21           Si  tau(  21) = (   0.1225644   0.9069133   0.3695280  )
        22           Si  tau(  22) = (   0.2452277   0.7761893  -0.0016200  )
        23           Si  tau(  23) = (   0.1281922   0.6424581   0.1209917  )
        24           Si  tau(  24) = (   0.2481671   0.5142437   0.2454993  )
        25           Si  tau(  25) = (   0.3694011   0.9055477   0.6139960  )
        26           Si  tau(  26) = (   0.0026470   0.7797995   0.7424672  )
        27           Si  tau(  27) = (   0.3754079   0.6436759   0.8636574  )
        28           Si  tau(  28) = (   0.0023311   0.5208237   0.4920648  )
        29           Si  tau(  29) = (   0.1279713   0.9032112   0.8662113  )
        30           Si  tau(  30) = (   0.2456547   0.7715714   0.4939634  )
        31           Si  tau(  31) = (   0.1210367   0.6497775   0.6184547  )
        32           Si  tau(  32) = (   0.2511858   0.5196658   0.7429520  )
        33           Si  tau(  33) = (   0.8696573   0.3848535   0.1254945  )
        34           Si  tau(  34) = (   0.4969200   0.2582538   0.2471778  )
        35           Si  tau(  35) = (   0.8626598   0.1278903   0.3695007  )
        36           Si  tau(  36) = (   0.4998222   0.0016376  -0.0027002  )
        37           Si  tau(  37) = (   0.6195318   0.3923011   0.3742209  )
        38           Si  tau(  38) = (   0.7432936   0.2554569  -0.0044984  )
        39           Si  tau(  39) = (   0.6186123   0.1274872   0.1259729  )
        40           Si  tau(  40) = (   0.7420633  -0.0024329   0.2470679  )
        41           Si  tau(  41) = (   0.8657388   0.3862345   0.6151331  )
        42           Si  tau(  42) = (   0.4910663   0.2569587   0.7432804  )
        43           Si  tau(  43) = (   0.8651882   0.1306259   0.8627205  )
        44           Si  tau(  44) = (   0.4998665  -0.0010987   0.4934784  )
        45           Si  tau(  45) = (   0.6167763   0.3881445   0.8644525  )
        46           Si  tau(  46) = (   0.7440553   0.2593753   0.4906569  )
        47           Si  tau(  47) = (   0.6160925   0.1262321   0.6141373  )
        48           Si  tau(  48) = (   0.7394191  -0.0044078   0.7359040  )
        49           Si  tau(  49) = (   0.8668030   0.9097885   0.1216664  )
        50           Si  tau(  50) = (   0.4975413   0.7789090   0.2465317  )
        51           Si  tau(  51) = (   0.8683274   0.6483221   0.3746737  )
        52           Si  tau(  52) = (   0.4988445   0.5186133  -0.0002304  )
        53           Si  tau(  53) = (   0.6193047   0.9062447   0.3740627  )
        54           Si  tau(  54) = (   0.7458363   0.7727082   0.0040884  )
        55           Si  tau(  55) = (   0.6158401   0.6422356   0.1205067  )
        56           Si  tau(  56) = (   0.7407710   0.5153602   0.2473274  )
        57           Si  tau(  57) = (   0.8694049   0.9016287   0.6182387  )
        58           Si  tau(  58) = (   0.4930897   0.7780841   0.7409380  )
        59           Si  tau(  59) = (   0.8692053   0.6456776   0.8678855  )
        60           Si  tau(  60) = (   0.4935106   0.5194370   0.4930781  )
        61           Si  tau(  61) = (   0.6222493   0.9038370   0.8627969  )
        62           Si  tau(  62) = (   0.7395064   0.7746616   0.4898983  )
        63           Si  tau(  63) = (   0.6178762   0.6490971   0.6149653  )
        64           Si  tau(  64) = (   0.7449574   0.5156232   0.7437900  )

     number of k points=     1
                       cart. coord. in units 2pi/alat
        k(    1) = (   0.0000000   0.0000000   0.0000000), wk =   2.0000000

     Dense  grid:    96039 G-vectors     FFT dimensions: (  72,  75,  72)

     Estimated max dynamical RAM per process >     279.82 MB

     Initial potential from superposition of free atoms

     starting charge     253.0416, renormalised to     256.0000
     Starting wfcs are random

     total cpu time spent up to now is        1.4 secs

     Self-consistent Calculation

     iteration #  1     ecut=    30.00 Ry     beta= 0.50
     Davidson diagonalization with overlap
     ethr =  1.00E-02,  avg # of iterations = 12.0

     Threshold (ethr) on eigenvalues was too large:
     Diagonalizing with lowered threshold

     Davidson diagonalization with overlap
     ethr =  6.22E-04,  avg # of iterations = 12.0

     total cpu time spent up to now is        1.8 secs

     total energy              =    -503.60123243 Ry
     estimated scf accuracy    <       1.91987689 Ry

     iteration #  2     ecut=    30.00 Ry     beta= 0.50
     Davidson diagonalization with overlap
     ethr =  7.50E-04,  avg # of iterations =  1.0

     total cpu time spent up to now is        1.9 secs

     total energy              =    -503.59575609 Ry
     estimated scf accuracy    <       0.34688093 Ry

     iteration #  3     ecut=    30.00 Ry     beta= 0.50
     Davidson diagonalization with overlap
     ethr =  1.36E-04,  avg # of iterations =  2.0

     total cpu time spent up to now is        2.0 secs

     total energy              =    -503.62078514 Ry
     estimated scf accuracy    <       0.00600911 Ry

     iteration #  4     ecut=    30.00 Ry     beta= 0.50
     Davidson diagonalization with overlap
     c_bands:  1 eigenvalues not converged
     ethr =  2.35E-06,  avg # of iterations = 20.0

     total cpu time spent up to now is        2.3 secs

     total energy              =    -503.62806517 Ry
     estimated scf accuracy    <       0.00558422 Ry

     iteration #  5     ecut=    30.00 Ry     beta= 0.50
     Davidson diagonalization with overlap
     ethr =  2.18E-06,  avg # of iterations =  4.0

     total cpu time spent up to now is        2.4 secs

     total energy              =    -503.62914674 Ry
     estimated scf accuracy    <       0.00095078 Ry

     iteration #  6     ecut=    30.00 Ry     beta= 0.50
     Davidson diagonalization with overlap
     ethr =  3.71E-07,  avg # of iterations = 14.0

     total cpu time spent up to now is        2.6 secs

     total energy              =    -503.62926887 Ry
     estimated scf accuracy    <       0.00018952 Ry

     iteration #  7     ecut=    30.00 Ry     beta= 0.50
     Davidson diagonalization with overlap
     ethr =  7.40E-08,  avg # of iterations =  7.0

     total cpu time spent up to now is        2.8 secs

     total energy              =    -503.62929880 Ry
     estimated scf accuracy    <       0.00002002 Ry

     iteration #  8     ecut=    30.00 Ry     beta= 0.50
     Davidson diagonalization with overlap
     ethr =  7.82E-09,  avg # of iterations = 15.0

     total cpu time spent up to now is        3.0 secs

     total energy              =    -503.62930485 Ry
     estimated scf accuracy    <       0.00000373 Ry

     iteration #  9     ecut=    30.00 Ry     beta= 0.50
     Davidson diagonalization with overlap
     ethr =  1.46E-09,  avg # of iterations =  5.0

     total cpu time spent up to now is        3.1 secs

     total energy              =    -503.62930564 Ry
     estimated scf accuracy    <       0.00000178 Ry

     iteration # 10     ecut=    30.00 Ry     beta= 0.50
     Davidson diagonalization with overlap
     ethr =  6.94E-10,  avg # of iterations =  3.0

     total cpu time spent up to now is        3.3 secs

     End of self-consistent calculation

          k = 0.0000 0.0000 0.0000 ( 11987 PWs)   bands (ev):

    -5.8248  -4.8737  -4.8128  -4.7742  -4.6206  -4.6007  -4.5272  -4.0442
    -3.9169  -3.8835  -3.7923  -3.7330  -3.6972  -3.6765  -3.6556  -3.6341
    -3.5160  -3.4721  -3.4333  -3.3865  -3.3190  -3.2490  -3.0422  -1.8839
    -1.8546  -1.7208  -1.6522  -1.5782  -1.5458  -1.5032  -1.4677  -1.4385
    -1.4175  -1.3972  -1.3546  -1.2961  -1.2859  -1.2650  -1.2491  -1.1909
    -1.1094  -0.8524  -0.7786  -0.7182  -0.5264   0.6331   0.6470   0.6813
     0.7045   0.7256   0.7444   0.7645   0.7774   0.8180   0.8367   0.8740
     0.8904   2.0406   2.0862   2.1800   2.2245   2.2438   2.2734   2.3048
     2.3251   2.3489   2.3577   2.3904   2.4092   2.4451   2.4546   2.4851
     2.5337   2.5496   2.5873   2.6187   2.6302   2.6603   2.6637   2.6814
     2.7002   2.7693   2.8171   2.8689   2.8802   2.9115   2.9814   3.2600
     3.3242   3.3608   3.4075   3.4139   3.5072   4.1678   4.2192   4.2534
     4.2770   4.2971   4.3510   4.3764   4.3904   4.4209   4.4795   4.5375
     4.5765   4.6117   4.7589   4.7701   4.8055   4.8524   4.8885   4.9023
     4.9291   4.9782   4.9939   5.0356   5.0716   5.0876   5.1135   5.1710
     5.2069   5.2398   5.2659   5.4205   5.6429   6.1845   6.2677   6.4980

     highest occupied level (ev):     6.4980

!    total energy              =    -503.62930544 Ry
     estimated scf accuracy    <       0.00000069 Ry

     The total energy is the sum of the following terms:
     one-electron contribution =     148.49523344 Ry
     hartree contribution      =      37.71551967 Ry
     xc contribution           =    -154.49738044 Ry
     ewald contribution        =    -535.34267810 Ry

     convergence has been achieved in  10 iterations

     Forces acting on atoms (cartesian axes, Ry/au):

     atom    1 type  1   force =     0.01100289    0.00259710   -0.01473410
     atom    2 type  1   force =    -0.02857095   -0.01568875    0.01576459
     atom    3 type  1   force =     0.01308680    0.02587871    0.00979580
     atom    4 type  1   force =    -0.01853185    0.08568013   -0.04158575
     atom    5 type  1   force =    -0.03364400    0.02914436   -0.03243990
     atom    6 type  1   force =     0.00378742   -0.00637956   -0.06264844
     atom    7 type  1   force =    -0.02617193    0.00348785   -0.02419828
     atom    8 type  1   force =     0.01949026    0.04798390   -0.01517731
     atom    9 type  1   force =    -0.00168206   -0.01230788   -0.00095161
     atom   10 type  1   force =    -0.00517763   -0.01355708    0.01561142
     atom   11 type  1   force =    -0.00641780    0.02550530    0.05114300
     atom   12 type  1   force =    -0.05031114    0.07571283    0.00874762
     atom   13 type  1   force =     0.00887769   -0.01277769    0.04246507
     atom   14 type  1   force =     0.02748366   -0.04006975    0.03551286
     atom   15 type  1   force =    -0.00464841    0.01737377    0.01091180
     atom   16 type  1   force =     0.01413234    0.08963718   -0.02625197
     atom   17 type  1   force =     0.00912912   -0.04044526   -0.00554063
     atom   18 type  1   force =    -0.03988232   -0.01311454    0.00347863
     atom   19 type  1   force =    -0.00306149    0.01211103   -0.00042133
     atom   20 type  1   force =    -0.02159724    0.00404447   -0.03299312
     atom   21 type  1   force =     0.00808963   -0.09015266    0.00129693
     atom   22 type  1   force =     0.02291939   -0.02698503   -0.04948482
     atom   23 type  1   force =    -0.02599430    0.00695539   -0.00404355
     atom   24 type  1   force =     0.00302277    0.00062202    0.00716981
     atom   25 type  1   force =     0.00093408   -0.07202923    0.00716920
     atom   26 type  1   force =    -0.04062756   -0.02461918    0.01515864
     atom   27 type  1   force =    -0.00410895    0.02066271    0.06125665
     atom   28 type  1   force =    -0.03464484   -0.01994469    0.01618175
     atom   29 type  1   force =    -0.03527170   -0.06691103    0.06321577
     atom   30 type  1   force =     0.00475577    0.01287348   -0.01584988
     atom   31 type  1   force =     0.01344513   -0.01839085    0.01322985
     atom   32 type  1   force =    -0.03005072   -0.00499097   -0.00667521
     atom   33 type  1   force =     0.00423618    0.00734428   -0.02245097
     atom   34 type  1   force =    -0.00241491    0.00809893    0.01047931
     atom   35 type  1   force =     0.05576841    0.00888005   -0.00404739
     atom   36 type  1   force =    -0.00783221    0.03561542   -0.04150430
     atom   37 type  1   force =    -0.00863255   -0.02266950   -0.01569277
     atom   38 type  1   force =    -0.00068325    0.01036390   -0.02115272
     atom   39 type  1   force =     0.01325441    0.01764959   -0.02015188
     atom   40 type  1   force =    -0.00292100    0.07750567    0.00427959
     atom   41 type  1   force =     0.03056742    0.02308944   -0.00285275
     atom   42 type  1   force =     0.00953721   -0.00051914   -0.01010278
     atom   43 type  1   force =     0.02579121   -0.01249309    0.02792770
     atom   44 type  1   force =    -0.05494504    0.07934292    0.00889118
     atom   45 type  1   force =     0.01142662   -0.00779513    0.05012415
     atom   46 type  1   force =    -0.01667139   -0.00840066    0.01641809
     atom   47 type  1   force =     0.01759374    0.04163713    0.01962917
     atom   48 type  1   force =     0.02997829    0.09491696    0.00959727
     atom   49 type  1   force =     0.04214960   -0.09092572   -0.01040871
     atom   50 type  1   force =    -0.00931452   -0.02259571   -0.00374371
     atom   51 type  1   force =     0.02250746   -0.00741683   -0.04541055
     atom   52 type  1   force =    -0.02994577   -0.02938466   -0.06178668
     atom   53 type  1   force =     0.01587589   -0.08632110   -0.03965826
     atom   54 type  1   force =    -0.00488863    0.00019889   -0.06347317
     atom   55 type  1   force =     0.02855143    0.03066203    0.02631748
     atom   56 type  1   force =     0.02524441    0.01277810   -0.00077585
     atom   57 type  1   force =     0.01870262   -0.06048209   -0.01974197
     atom   58 type  1   force =     0.00902325   -0.00967759   -0.00172303
     atom   59 type  1   force =     0.02442459    0.00687411    0.03685133
     atom   60 type  1   force =     0.00437529    0.00019680    0.01012840
     atom   61 type  1   force =    -0.02258962   -0.07565727    0.08004246
     atom   62 type  1   force =     0.02824569   -0.00085057    0.02887670
     atom   63 type  1   force =     0.00373820   -0.01496613    0.02453386
     atom   64 type  1   force =    -0.00991512    0.01309488   -0.01453272

     Total force =     0.442319     Total SCF correction =     0.001432


     Computing stress (Cartesian axis) and pressure

          total   stress  (Ry/bohr**3)                   (kbar)     P=       36.70
   0.00030454   0.00003609  -0.00007703           44.80        5.31      -11.33
   0.00003609   0.00017806   0.00003153            5.31       26.19        4.64
  -0.00007703   0.00003153   0.00026588          -11.33        4.64       39.11

 
     init_run     :      0.92s CPU      1.38s WALL (       1 calls)
     electrons    :      1.79s CPU      1.85s WALL (       1 calls)
     forces       :      0.07s CPU      0.07s WALL (       1 calls)
     stress       :      0.23s CPU      0.23s WALL (       1 calls)

     Called by init_run:
     wfcinit      :      0.54s CPU      0.87s WALL (       1 calls)
                                        0.87s GPU  (       1 calls)
     potinit      :      0.24s CPU      0.29s WALL (       1 calls)
     hinit0       :      0.12s CPU      0.13s WALL (       1 calls)

     Called by electrons:
     c_bands      :      1.19s CPU      1.20s WALL (      11 calls)
     sum_band     :      0.24s CPU      0.25s WALL (      11 calls)
     v_of_rho     :      0.16s CPU      0.22s WALL (      11 calls)
     mix_rho      :      0.20s CPU      0.22s WALL (      11 calls)

     Called by c_bands:
     init_us_2    :      0.04s CPU      0.05s WALL (      23 calls)
     init_us_2:gp :      0.04s CPU      0.05s WALL (      23 calls)
     regterg      :      1.08s CPU      1.08s WALL (      11 calls)

     Called by *egterg:
     rdiaghg      :      0.43s CPU      0.50s WALL (     105 calls)
                                        0.49s GPU  (     105 calls)
     h_psi        :      0.98s CPU      1.24s WALL (     107 calls)
                                        1.24s GPU  (     107 calls)
     g_psi        :      0.00s CPU      0.00s WALL (      95 calls)
                                        0.00s GPU  (      95 calls)

     Called by h_psi:
     h_psi:calbec :      0.43s CPU      0.72s WALL (     107 calls)
                                        0.72s GPU  (     107 calls)
     vloc_psi     :      0.42s CPU      0.43s WALL (     107 calls)
                                        0.42s GPU  (     107 calls)
     add_vuspsi   :      0.05s CPU      0.08s WALL (     107 calls)
                                        0.08s GPU  (     107 calls)

     General routines
     calbec       :      0.43s CPU      0.68s WALL (     112 calls)
     fft          :      0.16s CPU      0.18s WALL (      95 calls)
                                        0.04s GPU  (      59 calls)
     ffts         :      0.04s CPU      0.04s WALL (      11 calls)
     fftw         :      0.03s CPU      0.47s WALL (    1128 calls)
                                        0.39s GPU  (    1128 calls)
 
     Parallel routines
 
     PWSCF        :      3.04s CPU      3.58s WALL

 
   This run was terminated on:  22:49:51   8Jul2023            

=------------------------------------------------------------------------------=
   JOB DONE.
=------------------------------------------------------------------------------=
