
     Program PWSCF v.7.0 starts on  8Jul2023 at 22:40:58 

     This program is part of the open-source Quantum ESPRESSO suite
     for quantum simulation of materials; please cite
         "P. Giannozzi et al., J. Phys.:Condens. Matter 21 395502 (2009);
         "P. Giannozzi et al., J. Phys.:Condens. Matter 29 465901 (2017);
         "P. Giannozzi et al., J. Chem. Phys. 152 154105 (2020);
          URL http://www.quantum-espresso.org", 
     in publications or presentations arising from this work. More details at
     http://www.quantum-espresso.org/quote

     Parallel version (MPI & OpenMP), running on       1 processor cores
     Number of MPI processes:                 1
     Threads/MPI process:                     1

     MPI processes distributed on     1 nodes
     108622 MiB available memory on the printing compute node when the environment starts
 
     Reading input from pw-si-11.in
Warning: card &CELL ignored
Warning: card / ignored

     Current dimensions of program PWSCF are:
     Max number of different atomic species (ntypx) = 10
     Max number of k-points (npk) =  40000
     Max angular momentum in pseudopotentials (lmaxx) =  4

     IMPORTANT: XC functional enforced from input :
     Exchange-correlation= PBE
                           (   1   4   3   4   0   0   0)
     Any further DFT definition will be discarded
     Please, verify this is what you really want


     gamma-point specific algorithms are used

     Subspace diagonalization in iterative solution of the eigenvalue problem:
     a serial algorithm will be used

 
     G-vector sticks info
     --------------------
     sticks:   dense  smooth     PW     G-vecs:    dense   smooth      PW
     Sum        4023    4023   1003               193179   193179   24127
 
     Using Slab Decomposition
 


     bravais-lattice index     =            0
     lattice parameter (alat)  =      20.3016  a.u.
     unit-cell volume          =    8703.7556 (a.u.)^3
     number of atoms/cell      =           64
     number of atomic types    =            1
     number of electrons       =       256.00
     number of Kohn-Sham states=          128
     kinetic-energy cutoff     =      30.0000  Ry
     charge density cutoff     =     120.0000  Ry
     scf convergence threshold =      1.0E-06
     mixing beta               =       0.5000
     number of iterations used =            8  plain     mixing
     Exchange-correlation= PBE
                           (   1   4   3   4   0   0   0)

     GPU acceleration is ACTIVE.


     celldm(1)=  20.301616  celldm(2)=   0.000000  celldm(3)=   0.000000
     celldm(4)=   0.000000  celldm(5)=   0.000000  celldm(6)=   0.000000

     crystal axes: (cart. coord. in units of alat)
               a(1) = (   1.000000   0.000000   0.000000 )  
               a(2) = (   0.000000   1.018594   0.000000 )  
               a(3) = (   0.000000   0.000000   1.021206 )  

     reciprocal axes: (cart. coord. in units 2 pi/alat)
               b(1) = (  1.000000  0.000000  0.000000 )  
               b(2) = (  0.000000  0.981745  0.000000 )  
               b(3) = (  0.000000  0.000000  0.979234 )  


     PseudoPot. # 1 for Si read from file:
     ./Si_ONCV_PBE-1.0.upf
     MD5 check sum: 2de5a83d12544a9ea852f39b88f19b1f
     Pseudo is Norm-conserving, Zval =  4.0
     Generated using ONCVPSP code by D. R. Hamann
     Using radial grid of  602 points,  4 beta functions with: 
                l(1) =   0
                l(2) =   0
                l(3) =   1
                l(4) =   1

     atomic species   valence    mass     pseudopotential
        Si             4.00    28.08500     Si( 1.00)

     No symmetry found



   Cartesian axes

     site n.     atom                  positions (alat units)
         1           Si  tau(   1) = (   0.3743317   0.3828327   0.1254150  )
         2           Si  tau(   2) = (  -0.0013483   0.2573323   0.2589159  )
         3           Si  tau(   3) = (   0.3750423   0.1322636   0.3793717  )
         4           Si  tau(   4) = (  -0.0015274   0.0021191   0.0024621  )
         5           Si  tau(   5) = (   0.1286971   0.3871206   0.3821489  )
         6           Si  tau(   6) = (   0.2503472   0.2577407   0.0001108  )
         7           Si  tau(   7) = (   0.1287792   0.1251313   0.1297835  )
         8           Si  tau(   8) = (   0.2504228   0.0002308   0.2564272  )
         9           Si  tau(   9) = (   0.3722372   0.3853036   0.6404478  )
        10           Si  tau(  10) = (   0.0023749   0.2537647   0.7685495  )
        11           Si  tau(  11) = (   0.3755897   0.1312902   0.8948347  )
        12           Si  tau(  12) = (  -0.0039777   0.0024265   0.5099138  )
        13           Si  tau(  13) = (   0.1233271   0.3825642   0.8961375  )
        14           Si  tau(  14) = (   0.2505116   0.2559148   0.5064790  )
        15           Si  tau(  15) = (   0.1270322   0.1245067   0.6347899  )
        16           Si  tau(  16) = (   0.2536196  -0.0015871   0.7618294  )
        17           Si  tau(  17) = (   0.3787839   0.8998712   0.1230574  )
        18           Si  tau(  18) = (   0.0014448   0.7786783   0.2586156  )
        19           Si  tau(  19) = (   0.3735973   0.6460939   0.3792290  )
        20           Si  tau(  20) = (  -0.0009616   0.5139915   0.0003801  )
        21           Si  tau(  21) = (   0.1231527   0.9051905   0.3820053  )
        22           Si  tau(  22) = (   0.2533193   0.7782849   0.0031505  )
        23           Si  tau(  23) = (   0.1237240   0.6487726   0.1235750  )
        24           Si  tau(  24) = (   0.2491765   0.5183486   0.2588448  )
        25           Si  tau(  25) = (   0.3723637   0.9077183   0.6328125  )
        26           Si  tau(  26) = (  -0.0017943   0.7760913   0.7642230  )
        27           Si  tau(  27) = (   0.3788997   0.6428128   0.8939905  )
        28           Si  tau(  28) = (   0.0028333   0.5190666   0.5120024  )
        29           Si  tau(  29) = (   0.1250404   0.9024096   0.8889596  )
        30           Si  tau(  30) = (   0.2536550   0.7720080   0.5057656  )
        31           Si  tau(  31) = (   0.1288150   0.6459373   0.6324917  )
        32           Si  tau(  32) = (   0.2487571   0.5151779   0.7648258  )
        33           Si  tau(  33) = (   0.8827384   0.3872684   0.1258210  )
        34           Si  tau(  34) = (   0.4982762   0.2619696   0.2553623  )
        35           Si  tau(  35) = (   0.8770720   0.1302827   0.3861744  )
        36           Si  tau(  36) = (   0.5047934   0.0016301   0.0019945  )
        37           Si  tau(  37) = (   0.6295886   0.3891193   0.3808833  )
        38           Si  tau(  38) = (   0.7567971   0.2567742   0.0032486  )
        39           Si  tau(  39) = (   0.6273374   0.1330836   0.1320537  )
        40           Si  tau(  40) = (   0.7574991  -0.0013281   0.2593360  )
        41           Si  tau(  41) = (   0.8766826   0.3889649   0.6384107  )
        42           Si  tau(  42) = (   0.5005352   0.2626163   0.7687505  )
        43           Si  tau(  43) = (   0.8764455   0.1254335   0.8890903  )
        44           Si  tau(  44) = (   0.5004878   0.0035228   0.5061308  )
        45           Si  tau(  45) = (   0.6251667   0.3916357   0.8886382  )
        46           Si  tau(  46) = (   0.7490030   0.2574187   0.5138994  )
        47           Si  tau(  47) = (   0.6276612   0.1256922   0.6416945  )
        48           Si  tau(  48) = (   0.7519675   0.0010258   0.7599007  )
        49           Si  tau(  49) = (   0.8803948   0.8999823   0.1250400  )
        50           Si  tau(  50) = (   0.5064948   0.7767724   0.2503027  )
        51           Si  tau(  51) = (   0.8796051   0.6412821   0.3817665  )
        52           Si  tau(  52) = (   0.5026476   0.5140566  -0.0010305  )
        53           Si  tau(  53) = (   0.6262489   0.9031344   0.3787539  )
        54           Si  tau(  54) = (   0.7550571   0.7781575   0.0003689  )
        55           Si  tau(  55) = (   0.6247784   0.6429059   0.1276661  )
        56           Si  tau(  56) = (   0.7493019   0.5183050   0.2591261  )
        57           Si  tau(  57) = (   0.8805277   0.9018533   0.6356375  )
        58           Si  tau(  58) = (   0.5044135   0.7712806   0.7669837  )
        59           Si  tau(  59) = (   0.8787815   0.6496179   0.8902904  )
        60           Si  tau(  60) = (   0.4978862   0.5200619   0.5108936  )
        61           Si  tau(  61) = (   0.6248671   0.9062853   0.8947195  )
        62           Si  tau(  62) = (   0.7494040   0.7734765   0.5064313  )
        63           Si  tau(  63) = (   0.6265913   0.6495583   0.6399977  )
        64           Si  tau(  64) = (   0.7544843   0.5129920   0.7643535  )

     number of k points=     1
                       cart. coord. in units 2pi/alat
        k(    1) = (   0.0000000   0.0000000   0.0000000), wk =   2.0000000

     Dense  grid:    96590 G-vectors     FFT dimensions: (  72,  75,  75)

     Estimated max dynamical RAM per process >     282.50 MB

     Initial potential from superposition of free atoms

     starting charge     253.0416, renormalised to     256.0000
     Starting wfcs are random

     total cpu time spent up to now is        2.8 secs

     Self-consistent Calculation

     iteration #  1     ecut=    30.00 Ry     beta= 0.50
     Davidson diagonalization with overlap
     ethr =  1.00E-02,  avg # of iterations = 12.0

     Threshold (ethr) on eigenvalues was too large:
     Diagonalizing with lowered threshold

     Davidson diagonalization with overlap
     ethr =  6.00E-04,  avg # of iterations =  9.0

     total cpu time spent up to now is        3.7 secs

     total energy              =    -503.65159481 Ry
     estimated scf accuracy    <       1.75946498 Ry

     iteration #  2     ecut=    30.00 Ry     beta= 0.50
     Davidson diagonalization with overlap
     ethr =  6.87E-04,  avg # of iterations = 12.0

     total cpu time spent up to now is        4.0 secs

     total energy              =    -503.73568640 Ry
     estimated scf accuracy    <       0.41480878 Ry

     iteration #  3     ecut=    30.00 Ry     beta= 0.50
     Davidson diagonalization with overlap
     ethr =  1.62E-04,  avg # of iterations =  3.0

     total cpu time spent up to now is        4.3 secs

     total energy              =    -503.75914258 Ry
     estimated scf accuracy    <       0.13013869 Ry

     iteration #  4     ecut=    30.00 Ry     beta= 0.50
     Davidson diagonalization with overlap
     ethr =  5.08E-05,  avg # of iterations =  4.0

     total cpu time spent up to now is        4.6 secs

     total energy              =    -503.78175828 Ry
     estimated scf accuracy    <       0.00519742 Ry

     iteration #  5     ecut=    30.00 Ry     beta= 0.50
     Davidson diagonalization with overlap
     ethr =  2.03E-06,  avg # of iterations =  8.0

     total cpu time spent up to now is        5.0 secs

     total energy              =    -503.78292312 Ry
     estimated scf accuracy    <       0.00354374 Ry

     iteration #  6     ecut=    30.00 Ry     beta= 0.50
     Davidson diagonalization with overlap
     ethr =  1.38E-06,  avg # of iterations =  3.0

     total cpu time spent up to now is        5.3 secs

     total energy              =    -503.78381909 Ry
     estimated scf accuracy    <       0.00053596 Ry

     iteration #  7     ecut=    30.00 Ry     beta= 0.50
     Davidson diagonalization with overlap
     ethr =  2.09E-07,  avg # of iterations =  3.0

     total cpu time spent up to now is        5.6 secs

     total energy              =    -503.78376963 Ry
     estimated scf accuracy    <       0.00043461 Ry

     iteration #  8     ecut=    30.00 Ry     beta= 0.50
     Davidson diagonalization with overlap
     ethr =  1.70E-07,  avg # of iterations =  3.0

     total cpu time spent up to now is        5.9 secs

     total energy              =    -503.78382866 Ry
     estimated scf accuracy    <       0.00001874 Ry

     iteration #  9     ecut=    30.00 Ry     beta= 0.50
     Davidson diagonalization with overlap
     ethr =  7.32E-09,  avg # of iterations =  6.0

     total cpu time spent up to now is        6.3 secs

     total energy              =    -503.78382976 Ry
     estimated scf accuracy    <       0.00004897 Ry

     iteration # 10     ecut=    30.00 Ry     beta= 0.50
     Davidson diagonalization with overlap
     ethr =  7.32E-09,  avg # of iterations =  3.0

     total cpu time spent up to now is        6.6 secs

     total energy              =    -503.78384099 Ry
     estimated scf accuracy    <       0.00000313 Ry

     iteration # 11     ecut=    30.00 Ry     beta= 0.50
     Davidson diagonalization with overlap
     ethr =  1.22E-09,  avg # of iterations =  7.0

     total cpu time spent up to now is        7.0 secs

     total energy              =    -503.78384094 Ry
     estimated scf accuracy    <       0.00000178 Ry

     iteration # 12     ecut=    30.00 Ry     beta= 0.50
     Davidson diagonalization with overlap
     ethr =  6.96E-10,  avg # of iterations =  2.0

     total cpu time spent up to now is        7.2 secs

     End of self-consistent calculation

          k = 0.0000 0.0000 0.0000 ( 12064 PWs)   bands (ev):

    -5.7624  -4.7570  -4.7199  -4.6989  -4.6674  -4.6303  -4.5781  -3.9041
    -3.8247  -3.8110  -3.7682  -3.7479  -3.7310  -3.6947  -3.6605  -3.6429
    -3.5911  -3.5865  -3.5631  -3.4000  -3.3666  -3.3506  -3.3063  -1.8439
    -1.7443  -1.6874  -1.6367  -1.6060  -1.5483  -1.5125  -1.5109  -1.4783
    -1.4619  -1.4464  -1.4261  -1.4067  -1.3701  -1.3489  -1.3217  -1.3056
    -1.2750  -0.8115  -0.7894  -0.7163  -0.6391   0.6139   0.6290   0.6484
     0.6740   0.6969   0.7263   0.7390   0.7517   0.7838   0.7880   0.8060
     0.8465   2.1911   2.2020   2.2350   2.2517   2.2776   2.3065   2.3229
     2.3366   2.3404   2.3561   2.3818   2.3875   2.4039   2.4403   2.4490
     2.4678   2.4810   2.5052   2.5171   2.5390   2.5495   2.5967   2.6059
     2.6183   2.6497   2.6805   2.7059   2.7271   2.8058   2.8491   3.2621
     3.2820   3.3230   3.4024   3.4157   3.4697   4.1944   4.2064   4.2206
     4.2502   4.2803   4.3011   4.3467   4.3650   4.4097   4.4177   4.4501
     4.4657   4.5120   4.6865   4.7899   4.7978   4.8154   4.8380   4.8796
     4.9134   4.9289   4.9507   4.9611   4.9933   5.0236   5.0350   5.0496
     5.0732   5.1630   5.1838   5.2146   5.2322   6.1372   6.1972   6.3745

     highest occupied level (ev):     6.3745

!    total energy              =    -503.78384083 Ry
     estimated scf accuracy    <       0.00000032 Ry

     The total energy is the sum of the following terms:
     one-electron contribution =     149.26421245 Ry
     hartree contribution      =      36.81066265 Ry
     xc contribution           =    -154.28987793 Ry
     ewald contribution        =    -535.56883800 Ry

     convergence has been achieved in  12 iterations

     Forces acting on atoms (cartesian axes, Ry/au):

     atom    1 type  1   force =    -0.00059643    0.03617522    0.01063412
     atom    2 type  1   force =     0.02910116    0.00155063   -0.01583816
     atom    3 type  1   force =     0.00589982   -0.00443383    0.00362973
     atom    4 type  1   force =     0.03168406    0.03313314   -0.03340371
     atom    5 type  1   force =    -0.02271970    0.00278934    0.01131006
     atom    6 type  1   force =    -0.00863784   -0.01403891    0.00399193
     atom    7 type  1   force =    -0.02102257    0.02944194   -0.00271935
     atom    8 type  1   force =     0.02585639    0.02113419   -0.01568644
     atom    9 type  1   force =     0.01021803    0.00525579   -0.02220475
     atom   10 type  1   force =     0.00042436    0.00950150   -0.02750035
     atom   11 type  1   force =     0.00859900   -0.00889379   -0.00595842
     atom   12 type  1   force =     0.03486267    0.03498979   -0.00393456
     atom   13 type  1   force =     0.00718726    0.02086787   -0.00979827
     atom   14 type  1   force =    -0.00014309    0.00697038    0.02079626
     atom   15 type  1   force =    -0.00372927    0.02238907    0.00862415
     atom   16 type  1   force =    -0.01707639    0.06139284    0.02675066
     atom   17 type  1   force =    -0.00189941   -0.00607435    0.03494744
     atom   18 type  1   force =    -0.00048608   -0.03556355   -0.02294098
     atom   19 type  1   force =     0.03430056    0.00762056   -0.00370402
     atom   20 type  1   force =     0.01745373    0.02802494   -0.02100875
     atom   21 type  1   force =     0.01212096   -0.04000030    0.02138786
     atom   22 type  1   force =    -0.01497567   -0.03259396   -0.04495223
     atom   23 type  1   force =     0.00634391   -0.00930312    0.02769423
     atom   24 type  1   force =     0.00016409   -0.00844937   -0.04662406
     atom   25 type  1   force =     0.04134153   -0.08279059   -0.00160019
     atom   26 type  1   force =     0.03637511   -0.01825513   -0.01487975
     atom   27 type  1   force =    -0.01821023    0.00830788    0.00171995
     atom   28 type  1   force =     0.00266073   -0.02656829   -0.01070715
     atom   29 type  1   force =     0.00235641   -0.02660324    0.02771397
     atom   30 type  1   force =    -0.01725579    0.02232016    0.00399532
     atom   31 type  1   force =    -0.00697273    0.00915841    0.03041801
     atom   32 type  1   force =    -0.00343578   -0.00006820    0.01433755
     atom   33 type  1   force =    -0.03934334    0.00001577    0.03212566
     atom   34 type  1   force =     0.01880229   -0.00295676   -0.00045917
     atom   35 type  1   force =    -0.02064512    0.01371596   -0.00139032
     atom   36 type  1   force =    -0.01433357    0.06344585    0.00115561
     atom   37 type  1   force =    -0.03183531   -0.00599497    0.02920713
     atom   38 type  1   force =    -0.02104739    0.01131372   -0.03142496
     atom   39 type  1   force =     0.01095458   -0.01154956    0.00304126
     atom   40 type  1   force =    -0.00832273    0.05067329   -0.02936520
     atom   41 type  1   force =     0.01642225   -0.02254167   -0.00163377
     atom   42 type  1   force =    -0.00087103   -0.02464009   -0.01429820
     atom   43 type  1   force =    -0.01003738    0.01292820    0.02315645
     atom   44 type  1   force =     0.00566855    0.03730663    0.00500946
     atom   45 type  1   force =     0.02761624   -0.02273754    0.03560226
     atom   46 type  1   force =     0.00595700    0.00742506   -0.00751666
     atom   47 type  1   force =    -0.03079596    0.03498887   -0.01883637
     atom   48 type  1   force =     0.00558554    0.00894613    0.02686767
     atom   49 type  1   force =    -0.01827653   -0.02522109    0.03143688
     atom   50 type  1   force =    -0.02923162   -0.02328802    0.01025110
     atom   51 type  1   force =    -0.01363860    0.02567502    0.00647532
     atom   52 type  1   force =    -0.01145992   -0.00163773    0.00585249
     atom   53 type  1   force =     0.00122960   -0.03465716    0.01774901
     atom   54 type  1   force =    -0.02453880   -0.02866870   -0.00985745
     atom   55 type  1   force =     0.02290768    0.00944422   -0.01169084
     atom   56 type  1   force =     0.02810650   -0.01329954   -0.03668904
     atom   57 type  1   force =    -0.04263484   -0.04653006   -0.00268806
     atom   58 type  1   force =    -0.02727099    0.03074016   -0.00165053
     atom   59 type  1   force =    -0.01836445   -0.02915811    0.01565277
     atom   60 type  1   force =     0.00918448   -0.01306504    0.00413595
     atom   61 type  1   force =     0.02383426   -0.05096129   -0.01838279
     atom   62 type  1   force =     0.01561477   -0.00506719    0.00821515
     atom   63 type  1   force =     0.01125003   -0.03042756   -0.01489431
     atom   64 type  1   force =    -0.01027498    0.03839622    0.00035341

     Total force =     0.315135     Total SCF correction =     0.001132


     Computing stress (Cartesian axis) and pressure

          total   stress  (Ry/bohr**3)                   (kbar)     P=       27.57
   0.00027023   0.00003766  -0.00003698           39.75        5.54       -5.44
   0.00003766   0.00014590  -0.00000988            5.54       21.46       -1.45
  -0.00003698  -0.00000988   0.00014616           -5.44       -1.45       21.50

 
     init_run     :      0.90s CPU      2.77s WALL (       1 calls)
     electrons    :      2.10s CPU      4.35s WALL (       1 calls)
     forces       :      0.06s CPU      0.13s WALL (       1 calls)
     stress       :      0.25s CPU      0.50s WALL (       1 calls)

     Called by init_run:
     wfcinit      :      0.53s CPU      1.79s WALL (       1 calls)
                                        1.79s GPU  (       1 calls)
     potinit      :      0.22s CPU      0.55s WALL (       1 calls)
     hinit0       :      0.12s CPU      0.23s WALL (       1 calls)

     Called by electrons:
     c_bands      :      1.29s CPU      2.67s WALL (      13 calls)
     sum_band     :      0.30s CPU      0.66s WALL (      13 calls)
     v_of_rho     :      0.20s CPU      0.51s WALL (      13 calls)
     mix_rho      :      0.28s CPU      0.58s WALL (      13 calls)

     Called by c_bands:
     init_us_2    :      0.04s CPU      0.06s WALL (      27 calls)
     init_us_2:gp :      0.04s CPU      0.06s WALL (      27 calls)
     regterg      :      1.16s CPU      2.40s WALL (      13 calls)

     Called by *egterg:
     rdiaghg      :      0.36s CPU      0.84s WALL (      87 calls)
                                        0.83s GPU  (      87 calls)
     h_psi        :      1.11s CPU      2.85s WALL (      89 calls)
                                        2.83s GPU  (      89 calls)
     g_psi        :      0.00s CPU      0.01s WALL (      75 calls)
                                        0.00s GPU  (      75 calls)

     Called by h_psi:
     h_psi:calbec :      0.42s CPU      1.49s WALL (      89 calls)
                                        1.48s GPU  (      89 calls)
     vloc_psi     :      0.56s CPU      1.18s WALL (      89 calls)
                                        1.18s GPU  (      89 calls)
     add_vuspsi   :      0.04s CPU      0.15s WALL (      89 calls)
                                        0.13s GPU  (      89 calls)

     General routines
     calbec       :      0.42s CPU      1.45s WALL (      94 calls)
     fft          :      0.20s CPU      0.41s WALL (     111 calls)
                                        0.07s GPU  (      69 calls)
     ffts         :      0.06s CPU      0.14s WALL (      13 calls)
     fftw         :      0.03s CPU      1.30s WALL (    1256 calls)
                                        0.60s GPU  (    1256 calls)
 
     Parallel routines
 
     PWSCF        :      3.34s CPU      7.86s WALL

 
   This run was terminated on:  22:41: 6   8Jul2023            

=------------------------------------------------------------------------------=
   JOB DONE.
=------------------------------------------------------------------------------=
