An instance of this daemon is already running
An instance of this daemon is already running

     Program PWSCF v.7.1 starts on 10May2023 at 11:45:38 

     This program is part of the open-source Quantum ESPRESSO suite
     for quantum simulation of materials; please cite
         "P. Giannozzi et al., J. Phys.:Condens. Matter 21 395502 (2009);
         "P. Giannozzi et al., J. Phys.:Condens. Matter 29 465901 (2017);
         "P. Giannozzi et al., J. Chem. Phys. 152 154105 (2020);
          URL http://www.quantum-espresso.org", 
     in publications or presentations arising from this work. More details at
     http://www.quantum-espresso.org/quote

     Parallel version (MPI & OpenMP), running on       4 processor cores
     Number of MPI processes:                 4
     Threads/MPI process:                     1

     MPI processes distributed on     1 nodes
     707067 MiB available memory on the printing compute node when the environment starts
 
     Reading input from pw-si-95.in
Warning: card &CELL ignored
Warning: card / ignored

     Current dimensions of program PWSCF are:
     Max number of different atomic species (ntypx) = 10
     Max number of k-points (npk) =  40000
     Max angular momentum in pseudopotentials (lmaxx) =  4

     IMPORTANT: XC functional enforced from input :
     Exchange-correlation= PBE
                           (   1   4   3   4   0   0   0)
     Any further DFT definition will be discarded
     Please, verify this is what you really want


     gamma-point specific algorithms are used
 
     K-points division:     npool     =       2
     R & G space division:  proc/nbgrp/npool/nimage =       2
     Subspace diagonalization in iterative solution of the eigenvalue problem:
     a serial algorithm will be used

     Message from routine divide_et_impera:
     suboptimal parallelization: some nodes have no k-points
 
     Parallelization info
     --------------------
     sticks:   dense  smooth     PW     G-vecs:    dense   smooth      PW
     Min        1982    1982    523                99449    99449   13520
     Max        1987    1987    524                99450    99450   13521
     Sum        3969    3969   1047               198899   198899   27041
 
     Using Slab Decomposition
 


     bravais-lattice index     =            0
     lattice parameter (alat)  =      20.0474  a.u.
     unit-cell volume          =    8960.7416 (a.u.)^3
     number of atoms/cell      =           64
     number of atomic types    =            1
     number of electrons       =       256.00
     number of Kohn-Sham states=          154
     kinetic-energy cutoff     =      30.0000  Ry
     charge density cutoff     =     120.0000  Ry
     scf convergence threshold =      1.0E-06
     mixing beta               =       0.5000
     number of iterations used =            8  plain     mixing
     Exchange-correlation= PBE
                           (   1   4   3   4   0   0   0)

     GPU acceleration is ACTIVE.
     GPU-aware MPI enabled

     Message from routine print_cuda_info:
     High GPU oversubscription detected. Are you sure this is what you want?

     celldm(1)=  20.047370  celldm(2)=   0.000000  celldm(3)=   0.000000
     celldm(4)=   0.000000  celldm(5)=   0.000000  celldm(6)=   0.000000

     crystal axes: (cart. coord. in units of alat)
               a(1) = (   1.000000   0.000000   0.000000 )  
               a(2) = (   0.000000   1.034810   0.000000 )  
               a(3) = (   0.000000   0.000000   1.074759 )  

     reciprocal axes: (cart. coord. in units 2 pi/alat)
               b(1) = (  1.000000  0.000000  0.000000 )  
               b(2) = (  0.000000  0.966361  0.000000 )  
               b(3) = (  0.000000  0.000000  0.930441 )  


     PseudoPot. # 1 for Si read from file:
     /home/ppiaggi/pseudos/Si_ONCV_PBE_sr.upf
     MD5 check sum: 8553c464762ac42b85b1eed164b4d029
     Pseudo is Norm-conserving, Zval =  4.0
     Generated using ONCVPSP code by D. R. Hamann
     Using radial grid of 1510 points,  4 beta functions with: 
                l(1) =   0
                l(2) =   0
                l(3) =   1
                l(4) =   1

     atomic species   valence    mass     pseudopotential
        Si             4.00    28.08500     Si( 1.00)

     No symmetry found



   Cartesian axes

     site n.     atom                  positions (alat units)
         1           Si  tau(   1) = (   0.0127770  -0.0127555   0.0103534  )
         2           Si  tau(   2) = (   0.0152866   0.2644339   0.2711570  )
         3           Si  tau(   3) = (   0.2343304  -0.0098825   0.2530696  )
         4           Si  tau(   4) = (   0.2438721   0.2712503  -0.0065247  )
         5           Si  tau(   5) = (   0.1166949   0.1459299   0.1130701  )
         6           Si  tau(   6) = (   0.5025778   0.0119815   0.0106650  )
         7           Si  tau(   7) = (   0.4956063   0.2802963   0.2656195  )
         8           Si  tau(   8) = (   0.5989065   0.1357189   0.1203369  )
         9           Si  tau(   9) = (   0.7231596   0.0110496   0.2620276  )
        10           Si  tau(  10) = (   0.7302283   0.2721729  -0.0102495  )
        11           Si  tau(  11) = (   0.0145461   0.5339817   0.0061614  )
        12           Si  tau(  12) = (   0.2519691   0.5253148   0.2628131  )
        13           Si  tau(  13) = (   0.1347236   0.6606536   0.1156677  )
        14           Si  tau(  14) = (   0.3809250   0.3888896   0.1308396  )
        15           Si  tau(  15) = (   0.4694035   0.5270033   0.0042772  )
        16           Si  tau(  16) = (   0.5988251   0.6633380   0.1316553  )
        17           Si  tau(  17) = (   0.8637404   0.4077700   0.1205008  )
        18           Si  tau(  18) = (   0.7471057   0.5457187   0.2516441  )
        19           Si  tau(  19) = (  -0.0009044   0.7951964   0.2660603  )
        20           Si  tau(  20) = (   0.2322105   0.7914428   0.0137136  )
        21           Si  tau(  21) = (   0.3485213   0.9393883   0.1485708  )
        22           Si  tau(  22) = (   0.4963262   0.8257882   0.2566698  )
        23           Si  tau(  23) = (   0.7137826   0.8121066   0.0098621  )
        24           Si  tau(  24) = (   0.8349008   0.9610979   0.1347421  )
        25           Si  tau(  25) = (  -0.0129881  -0.0056747   0.5151707  )
        26           Si  tau(  26) = (   0.2317951   0.2513238   0.5447459  )
        27           Si  tau(  27) = (   0.1198187   0.1372307   0.6788387  )
        28           Si  tau(  28) = (   0.3495839   0.1327309   0.4018555  )
        29           Si  tau(  29) = (   0.5029808   0.0169269   0.5434151  )
        30           Si  tau(  30) = (   0.6260472   0.1273543   0.6615220  )
        31           Si  tau(  31) = (   0.8608568   0.1448254   0.3853920  )
        32           Si  tau(  32) = (   0.7469571   0.2610099   0.5402747  )
        33           Si  tau(  33) = (   0.1255618   0.3971384   0.3921097  )
        34           Si  tau(  34) = (  -0.0152799   0.5586409   0.5243256  )
        35           Si  tau(  35) = (   0.1253584   0.6596754   0.6686058  )
        36           Si  tau(  36) = (   0.6050827   0.4062352   0.3811228  )
        37           Si  tau(  37) = (   0.3779688   0.6648799   0.4150968  )
        38           Si  tau(  38) = (   0.3738891   0.3946528   0.6614909  )
        39           Si  tau(  39) = (   0.4896889   0.5585726   0.5254226  )
        40           Si  tau(  40) = (   0.6247902   0.6738339   0.6562779  )
        41           Si  tau(  41) = (   0.8590209   0.6646403   0.4106011  )
        42           Si  tau(  42) = (   0.8515713   0.4148742   0.6440084  )
        43           Si  tau(  43) = (   0.1167684   0.9622429   0.4001336  )
        44           Si  tau(  44) = (   0.2441110   0.8055908   0.5168570  )
        45           Si  tau(  45) = (   0.6211841   0.9403287   0.4064142  )
        46           Si  tau(  46) = (   0.3498774   0.9521943   0.6757155  )
        47           Si  tau(  47) = (   0.7265512   0.8037473   0.5473261  )
        48           Si  tau(  48) = (   0.8479555   0.9404361   0.6565245  )
        49           Si  tau(  49) = (  -0.0116517   0.2642909   0.8039383  )
        50           Si  tau(  50) = (   0.2493285  -0.0133487   0.7757230  )
        51           Si  tau(  51) = (   0.3797187   0.1316352   0.9103863  )
        52           Si  tau(  52) = (   0.4748990   0.2536181   0.8026129  )
        53           Si  tau(  53) = (   0.7424207   0.0000585   0.8051782  )
        54           Si  tau(  54) = (   0.8446057   0.1394505   0.9337708  )
        55           Si  tau(  55) = (   0.1102198   0.4221959   0.9389219  )
        56           Si  tau(  56) = (   0.2507166   0.5372868   0.7815427  )
        57           Si  tau(  57) = (   0.5959460   0.4011150   0.9357465  )
        58           Si  tau(  58) = (   0.3494255   0.6847652   0.9113625  )
        59           Si  tau(  59) = (   0.7212655   0.5486247   0.7943429  )
        60           Si  tau(  60) = (   0.8354882   0.6865522   0.9392832  )
        61           Si  tau(  61) = (   0.0169667   0.8034473   0.8079581  )
        62           Si  tau(  62) = (   0.1354417   0.9291823   0.9157897  )
        63           Si  tau(  63) = (   0.4762910   0.8045298   0.8102289  )
        64           Si  tau(  64) = (   0.6172651   0.9607173   0.9171671  )

     number of k points=     1  Fermi-Dirac smearing, width (Ry)=  0.0100
                       cart. coord. in units 2pi/alat
        k(    1) = (   0.0000000   0.0000000   0.0000000), wk =   2.0000000

     Dense  grid:    99450 G-vectors     FFT dimensions: (  72,  75,  75)

     Estimated max dynamical RAM per process >     159.39 MB

     Estimated total dynamical RAM >     613.26 MB

     Initial potential from superposition of free atoms

     starting charge     255.9608, renormalised to     256.0000
     Starting wfcs are  256 randomized atomic wfcs

     total cpu time spent up to now is        5.1 secs

     Self-consistent Calculation

     iteration #  1     ecut=    30.00 Ry     beta= 0.50
     Davidson diagonalization with overlap
     ethr =  1.00E-02,  avg # of iterations =  3.0

     Threshold (ethr) on eigenvalues was too large:
     Diagonalizing with lowered threshold

     Davidson diagonalization with overlap
     ethr =  7.59E-04,  avg # of iterations =  2.0

     total cpu time spent up to now is        5.4 secs

     total energy              =    -501.55170846 Ry
     estimated scf accuracy    <       2.25209790 Ry

     iteration #  2     ecut=    30.00 Ry     beta= 0.50
     Davidson diagonalization with overlap
     ethr =  8.80E-04,  avg # of iterations =  4.0

     total cpu time spent up to now is        5.5 secs

     total energy              =    -501.30411274 Ry
     estimated scf accuracy    <       2.01372097 Ry

     iteration #  3     ecut=    30.00 Ry     beta= 0.50
     Davidson diagonalization with overlap
     ethr =  7.87E-04,  avg # of iterations =  4.0

     total cpu time spent up to now is        5.6 secs

     total energy              =    -501.54318464 Ry
     estimated scf accuracy    <       2.10097529 Ry

     iteration #  4     ecut=    30.00 Ry     beta= 0.50
     Davidson diagonalization with overlap
     ethr =  7.87E-04,  avg # of iterations =  2.0

     total cpu time spent up to now is        5.7 secs

     total energy              =    -501.75690867 Ry
     estimated scf accuracy    <       0.18322569 Ry

     iteration #  5     ecut=    30.00 Ry     beta= 0.50
     Davidson diagonalization with overlap
     ethr =  7.16E-05,  avg # of iterations =  8.0

     total cpu time spent up to now is        5.9 secs

     total energy              =    -501.78614636 Ry
     estimated scf accuracy    <       0.10747727 Ry

     iteration #  6     ecut=    30.00 Ry     beta= 0.50
     Davidson diagonalization with overlap
     ethr =  4.20E-05,  avg # of iterations =  3.0

     total cpu time spent up to now is        6.0 secs

     total energy              =    -501.79907966 Ry
     estimated scf accuracy    <       0.02525229 Ry

     iteration #  7     ecut=    30.00 Ry     beta= 0.50
     Davidson diagonalization with overlap
     c_bands:  1 eigenvalues not converged
     ethr =  9.86E-06,  avg # of iterations = 20.0

     total cpu time spent up to now is        6.2 secs

     total energy              =    -501.80144879 Ry
     estimated scf accuracy    <       0.00685515 Ry

     iteration #  8     ecut=    30.00 Ry     beta= 0.50
     Davidson diagonalization with overlap
     ethr =  2.68E-06,  avg # of iterations = 12.0

     total cpu time spent up to now is        6.4 secs

     total energy              =    -501.80226461 Ry
     estimated scf accuracy    <       0.00377955 Ry

     iteration #  9     ecut=    30.00 Ry     beta= 0.50
     Davidson diagonalization with overlap
     ethr =  1.48E-06,  avg # of iterations =  3.0

     total cpu time spent up to now is        6.5 secs

     total energy              =    -501.80275440 Ry
     estimated scf accuracy    <       0.00031333 Ry

     iteration # 10     ecut=    30.00 Ry     beta= 0.50
     Davidson diagonalization with overlap
     ethr =  1.22E-07,  avg # of iterations =  4.0

     total cpu time spent up to now is        6.6 secs

     total energy              =    -501.80278874 Ry
     estimated scf accuracy    <       0.00012505 Ry

     iteration # 11     ecut=    30.00 Ry     beta= 0.50
     Davidson diagonalization with overlap
     ethr =  4.88E-08,  avg # of iterations =  3.0

     total cpu time spent up to now is        6.7 secs

     total energy              =    -501.80280227 Ry
     estimated scf accuracy    <       0.00006426 Ry

     iteration # 12     ecut=    30.00 Ry     beta= 0.50
     Davidson diagonalization with overlap
     ethr =  2.51E-08,  avg # of iterations =  2.0

     total cpu time spent up to now is        6.9 secs

     total energy              =    -501.80281046 Ry
     estimated scf accuracy    <       0.00000690 Ry

     iteration # 13     ecut=    30.00 Ry     beta= 0.50
     Davidson diagonalization with overlap
     ethr =  2.70E-09,  avg # of iterations =  4.0

     total cpu time spent up to now is        7.0 secs

     total energy              =    -501.80281152 Ry
     estimated scf accuracy    <       0.00000432 Ry

     iteration # 14     ecut=    30.00 Ry     beta= 0.50
     Davidson diagonalization with overlap
     ethr =  1.69E-09,  avg # of iterations =  3.0

     total cpu time spent up to now is        7.1 secs

     total energy              =    -501.80281200 Ry
     estimated scf accuracy    <       0.00000101 Ry

     iteration # 15     ecut=    30.00 Ry     beta= 0.50
     Davidson diagonalization with overlap
     ethr =  3.93E-10,  avg # of iterations =  4.0

     total cpu time spent up to now is        7.2 secs

     End of self-consistent calculation

          k = 0.0000 0.0000 0.0000 ( 12458 PWs)   bands (ev):

    -6.3004  -5.6474  -5.5062  -5.2175  -5.2059  -4.9762  -4.8676  -4.7639
    -4.4790  -4.3807  -4.2529  -4.1492  -4.1405  -4.0644  -3.9914  -3.9294
    -3.8666  -3.8531  -3.8172  -3.5242  -3.5157  -3.4870  -3.3462  -2.8593
    -2.5984  -2.3353  -2.2276  -2.1557  -2.0767  -2.0267  -1.8947  -1.8758
    -1.7859  -1.7248  -1.6857  -1.5663  -1.5194  -1.4753  -1.3887  -1.2761
    -1.1386  -1.0617  -0.9690  -0.8052  -0.6989  -0.1908  -0.0887   0.0470
     0.0966   0.2339   0.3787   0.4826   0.5614   0.6444   0.6528   0.7425
     0.7516   1.3827   1.4618   1.5701   1.6104   1.6601   1.7944   1.8541
     1.8885   1.9336   1.9685   2.0089   2.0591   2.1174   2.1325   2.1562
     2.1735   2.2049   2.3074   2.3292   2.3853   2.4228   2.4511   2.4739
     2.5286   2.5816   2.6399   2.6482   2.7342   2.7535   2.8190   2.8765
     2.9199   3.0049   3.1284   3.3082   3.3508   3.5300   3.5830   3.6171
     3.7370   3.8721   3.9039   3.9564   3.9883   4.0474   4.0773   4.1516
     4.2288   4.2351   4.3355   4.3928   4.4603   4.5116   4.5585   4.5974
     4.6226   4.6892   4.7560   4.8460   4.8686   4.9605   5.0683   5.1145
     5.2267   5.2444   5.3668   5.4988   5.6961   5.7743   5.8334   5.9311
     6.0382   6.1263   6.3061   6.5272   6.5366   6.6676   6.6709   6.7501
     6.8283   6.8491   6.9438   7.0008   7.0200   7.0964   7.1552   7.2122
     7.3985   7.4313   7.5682   7.6779   7.7543   7.8582   7.8868   7.9199
     8.0675   8.1593

     the Fermi energy is     6.0033 ev

!    total energy              =    -501.80281195 Ry
     estimated scf accuracy    <       0.00000043 Ry
     smearing contrib. (-TS)   =      -0.08305649 Ry
     internal energy E=F+TS    =    -501.71975546 Ry

     The total energy is F=E-TS. E is the sum of the following terms:
     one-electron contribution =     129.69915807 Ry
     hartree contribution      =      42.86885862 Ry
     xc contribution           =    -153.06360402 Ry
     ewald contribution        =    -521.22416812 Ry

     convergence has been achieved in  15 iterations

     Forces acting on atoms (cartesian axes, Ry/au):

     atom    1 type  1   force =    -0.05399829    0.03338767   -0.03784713
     atom    2 type  1   force =    -0.08616692    0.00042050   -0.05813299
     atom    3 type  1   force =    -0.17895377    0.29828367    0.14435485
     atom    4 type  1   force =     0.02449040    0.01713510   -0.05171666
     atom    5 type  1   force =     0.01477952   -0.02290869    0.04982822
     atom    6 type  1   force =    -0.13535158   -0.09441628   -0.13068192
     atom    7 type  1   force =    -0.04694913   -0.12209592   -0.00382274
     atom    8 type  1   force =     0.11360275    0.15406634    0.12340232
     atom    9 type  1   force =    -0.05618544    0.15980727    0.09718215
     atom   10 type  1   force =    -0.00889089    0.01275545    0.01883178
     atom   11 type  1   force =    -0.13249418    0.00962087   -0.01389599
     atom   12 type  1   force =     0.02626875    0.01621903    0.00893034
     atom   13 type  1   force =    -0.07291747   -0.06796808    0.17571857
     atom   14 type  1   force =    -0.09828641    0.01187223   -0.00252491
     atom   15 type  1   force =     0.04119774    0.06136737   -0.07447192
     atom   16 type  1   force =    -0.00184485    0.02310918   -0.00131358
     atom   17 type  1   force =     0.03801904   -0.01836676    0.01783074
     atom   18 type  1   force =    -0.02734422   -0.02739700    0.03021193
     atom   19 type  1   force =    -0.03099810    0.01768354    0.00036463
     atom   20 type  1   force =     0.11438637    0.14042879   -0.14229736
     atom   21 type  1   force =     0.25110358   -0.21080087   -0.27074836
     atom   22 type  1   force =     0.00367162   -0.07223992    0.04746574
     atom   23 type  1   force =     0.01922051    0.00812219   -0.03321755
     atom   24 type  1   force =     0.16007958   -0.17244996   -0.14201626
     atom   25 type  1   force =    -0.15875161    0.16799481    0.15891113
     atom   26 type  1   force =     0.03789784    0.08386179   -0.04628587
     atom   27 type  1   force =    -0.06290841   -0.04085794    0.00062471
     atom   28 type  1   force =     0.05772497    0.00049678   -0.01841365
     atom   29 type  1   force =    -0.10783648   -0.00712973   -0.05358749
     atom   30 type  1   force =     0.01127947    0.07904252    0.08327280
     atom   31 type  1   force =     0.02582251   -0.00859477    0.01777615
     atom   32 type  1   force =    -0.03049363    0.02420726   -0.07078342
     atom   33 type  1   force =     0.00033928    0.04241604    0.06508876
     atom   34 type  1   force =     0.08288405   -0.12681926    0.06227986
     atom   35 type  1   force =    -0.04203492    0.07390275   -0.05621781
     atom   36 type  1   force =     0.08680399    0.07215057    0.08596578
     atom   37 type  1   force =    -0.13367205    0.12581735   -0.18671150
     atom   38 type  1   force =    -0.01305598    0.00927097   -0.02352429
     atom   39 type  1   force =     0.12280796   -0.18311462    0.11069092
     atom   40 type  1   force =    -0.13421982   -0.03003683    0.07377471
     atom   41 type  1   force =    -0.05610739    0.09543031   -0.08931349
     atom   42 type  1   force =     0.04494510    0.02017588    0.07249562
     atom   43 type  1   force =     0.09503127   -0.21482472   -0.07586328
     atom   44 type  1   force =    -0.01897879    0.00840511    0.05193103
     atom   45 type  1   force =    -0.04087181   -0.07724240    0.01248777
     atom   46 type  1   force =     0.58180766   -0.45227597   -0.57916200
     atom   47 type  1   force =     0.07846020    0.03847587   -0.11047807
     atom   48 type  1   force =     0.09799790   -0.07191009    0.00058257
     atom   49 type  1   force =    -0.02885330    0.05030354    0.00648207
     atom   50 type  1   force =    -0.48791523    0.47150520    0.52319912
     atom   51 type  1   force =    -0.14409589   -0.13285230    0.17134321
     atom   52 type  1   force =     0.16239663    0.15116119   -0.13663622
     atom   53 type  1   force =     0.14234224    0.15638410   -0.12953495
     atom   54 type  1   force =     0.08062078    0.00442011    0.01315519
     atom   55 type  1   force =     0.06558346   -0.08166850   -0.08177910
     atom   56 type  1   force =    -0.00042676   -0.05955021    0.05424786
     atom   57 type  1   force =     0.00489979    0.01357657   -0.01584725
     atom   58 type  1   force =    -0.03623000   -0.07237623    0.11890623
     atom   59 type  1   force =     0.04149019   -0.06453683    0.04076568
     atom   60 type  1   force =     0.07088369   -0.00647366   -0.00269020
     atom   61 type  1   force =    -0.12354750   -0.06606897   -0.05793665
     atom   62 type  1   force =    -0.02777243   -0.02729592    0.15271900
     atom   63 type  1   force =     0.09273961    0.07504498   -0.08395191
     atom   64 type  1   force =    -0.21342525   -0.19605043    0.19058304

     Total force =     1.809907     Total SCF correction =     0.001251


     Computing stress (Cartesian axis) and pressure

          total   stress  (Ry/bohr**3)                   (kbar)     P=       46.88
   0.00048595   0.00001839  -0.00036744           71.49        2.71      -54.05
   0.00001839   0.00019998   0.00008752            2.71       29.42       12.87
  -0.00036744   0.00008752   0.00027010          -54.05       12.87       39.73

 
     init_run     :      1.11s CPU      5.00s WALL (       1 calls)
     electrons    :      1.98s CPU      2.13s WALL (       1 calls)
     forces       :      0.04s CPU      0.05s WALL (       1 calls)
     stress       :      0.16s CPU      0.17s WALL (       1 calls)

     Called by init_run:
     wfcinit      :      0.54s CPU      4.27s WALL (       1 calls)
                                        4.27s GPU  (       1 calls)
     potinit      :      0.22s CPU      0.31s WALL (       1 calls)
     hinit0       :      0.32s CPU      0.35s WALL (       1 calls)

     Called by electrons:
     c_bands      :      1.24s CPU      1.31s WALL (      16 calls)
     sum_band     :      0.38s CPU      0.41s WALL (      16 calls)
     v_of_rho     :      0.18s CPU      0.28s WALL (      16 calls)
     mix_rho      :      0.15s CPU      0.17s WALL (      16 calls)

     Called by c_bands:
     init_us_2    :      0.06s CPU      0.06s WALL (      33 calls)
     init_us_2:gp :      0.06s CPU      0.06s WALL (      33 calls)
     regterg      :      1.10s CPU      1.16s WALL (      16 calls)

     Called by *egterg:
     rdiaghg      :      0.45s CPU      1.21s WALL (      96 calls)
                                        1.19s GPU  (      96 calls)
     h_psi        :      1.01s CPU      4.02s WALL (      98 calls)
                                        4.01s GPU  (      98 calls)
     g_psi        :      0.00s CPU      0.00s WALL (      81 calls)
                                        0.00s GPU  (      81 calls)

     Called by h_psi:
     h_psi:calbec :      0.49s CPU      3.41s WALL (      98 calls)
                                        3.41s GPU  (      98 calls)
     vloc_psi     :      0.46s CPU      0.54s WALL (      98 calls)
                                        0.54s GPU  (      98 calls)
     add_vuspsi   :      0.04s CPU      0.06s WALL (      98 calls)
                                        0.06s GPU  (      98 calls)

     General routines
     calbec       :      0.50s CPU      3.42s WALL (     103 calls)
     fft          :      0.44s CPU      0.57s WALL (     135 calls)
                                        0.13s GPU  (      86 calls)
     ffts         :      0.05s CPU      0.06s WALL (      16 calls)
     fftw         :      0.52s CPU      0.69s WALL (    1738 calls)
                                        0.61s GPU  (    1738 calls)
 
     Parallel routines
 
     PWSCF        :      3.34s CPU      7.44s WALL

 
   This run was terminated on:  11:45:46  10May2023            

=------------------------------------------------------------------------------=
   JOB DONE.
=------------------------------------------------------------------------------=
