
     Program PWSCF v.7.0 starts on  8Jul2023 at 22:44: 9 

     This program is part of the open-source Quantum ESPRESSO suite
     for quantum simulation of materials; please cite
         "P. Giannozzi et al., J. Phys.:Condens. Matter 21 395502 (2009);
         "P. Giannozzi et al., J. Phys.:Condens. Matter 29 465901 (2017);
         "P. Giannozzi et al., J. Chem. Phys. 152 154105 (2020);
          URL http://www.quantum-espresso.org", 
     in publications or presentations arising from this work. More details at
     http://www.quantum-espresso.org/quote

     Parallel version (MPI & OpenMP), running on       1 processor cores
     Number of MPI processes:                 1
     Threads/MPI process:                     1

     MPI processes distributed on     1 nodes
     107757 MiB available memory on the printing compute node when the environment starts
 
     Reading input from pw-si-33.in
Warning: card &CELL ignored
Warning: card / ignored

     Current dimensions of program PWSCF are:
     Max number of different atomic species (ntypx) = 10
     Max number of k-points (npk) =  40000
     Max angular momentum in pseudopotentials (lmaxx) =  4

     IMPORTANT: XC functional enforced from input :
     Exchange-correlation= PBE
                           (   1   4   3   4   0   0   0)
     Any further DFT definition will be discarded
     Please, verify this is what you really want


     gamma-point specific algorithms are used

     Subspace diagonalization in iterative solution of the eigenvalue problem:
     a serial algorithm will be used

 
     G-vector sticks info
     --------------------
     sticks:   dense  smooth     PW     G-vecs:    dense   smooth      PW
     Sum        4111    4111   1027               194297   194297   24289
 
     Using Slab Decomposition
 


     bravais-lattice index     =            0
     lattice parameter (alat)  =      20.9693  a.u.
     unit-cell volume          =    8748.1997 (a.u.)^3
     number of atoms/cell      =           64
     number of atomic types    =            1
     number of electrons       =       256.00
     number of Kohn-Sham states=          128
     kinetic-energy cutoff     =      30.0000  Ry
     charge density cutoff     =     120.0000  Ry
     scf convergence threshold =      1.0E-06
     mixing beta               =       0.5000
     number of iterations used =            8  plain     mixing
     Exchange-correlation= PBE
                           (   1   4   3   4   0   0   0)

     GPU acceleration is ACTIVE.


     celldm(1)=  20.969301  celldm(2)=   0.000000  celldm(3)=   0.000000
     celldm(4)=   0.000000  celldm(5)=   0.000000  celldm(6)=   0.000000

     crystal axes: (cart. coord. in units of alat)
               a(1) = (   1.000000   0.000000   0.000000 )  
               a(2) = (   0.000000   0.978015   0.000000 )  
               a(3) = (   0.000000   0.000000   0.970111 )  

     reciprocal axes: (cart. coord. in units 2 pi/alat)
               b(1) = (  1.000000  0.000000  0.000000 )  
               b(2) = (  0.000000  1.022479  0.000000 )  
               b(3) = (  0.000000  0.000000  1.030810 )  


     PseudoPot. # 1 for Si read from file:
     ./Si_ONCV_PBE-1.0.upf
     MD5 check sum: 2de5a83d12544a9ea852f39b88f19b1f
     Pseudo is Norm-conserving, Zval =  4.0
     Generated using ONCVPSP code by D. R. Hamann
     Using radial grid of  602 points,  4 beta functions with: 
                l(1) =   0
                l(2) =   0
                l(3) =   1
                l(4) =   1

     atomic species   valence    mass     pseudopotential
        Si             4.00    28.08500     Si( 1.00)

     No symmetry found



   Cartesian axes

     site n.     atom                  positions (alat units)
         1           Si  tau(   1) = (   0.3721625   0.3689265   0.1212000  )
         2           Si  tau(   2) = (  -0.0004629   0.2398267   0.2435074  )
         3           Si  tau(   3) = (   0.3719004   0.1240803   0.3660748  )
         4           Si  tau(   4) = (  -0.0026540   0.0026746  -0.0014948  )
         5           Si  tau(   5) = (   0.1278615   0.3642839   0.3685380  )
         6           Si  tau(   6) = (   0.2480479   0.2422785   0.0020733  )
         7           Si  tau(   7) = (   0.1251987   0.1254934   0.1239377  )
         8           Si  tau(   8) = (   0.2452993  -0.0011316   0.2505589  )
         9           Si  tau(   9) = (   0.3698102   0.3658484   0.6175645  )
        10           Si  tau(  10) = (  -0.0024811   0.2426182   0.7363014  )
        11           Si  tau(  11) = (   0.3754115   0.1174926   0.8623049  )
        12           Si  tau(  12) = (  -0.0019428   0.0008897   0.4949128  )
        13           Si  tau(  13) = (   0.1230254   0.3611468   0.8610169  )
        14           Si  tau(  14) = (   0.2443839   0.2464324   0.4923314  )
        15           Si  tau(  15) = (   0.1267075   0.1248550   0.6183394  )
        16           Si  tau(  16) = (   0.2492335  -0.0027608   0.7404795  )
        17           Si  tau(  17) = (   0.3713101   0.8521633   0.1257699  )
        18           Si  tau(  18) = (   0.0016328   0.7335476   0.2445863  )
        19           Si  tau(  19) = (   0.3715071   0.6127111   0.3664815  )
        20           Si  tau(  20) = (   0.0012489   0.4905610   0.0010748  )
        21           Si  tau(  21) = (   0.1274285   0.8502411   0.3685215  )
        22           Si  tau(  22) = (   0.2481811   0.7270944  -0.0019340  )
        23           Si  tau(  23) = (   0.1271346   0.6117245   0.1271799  )
        24           Si  tau(  24) = (   0.2526225   0.4870713   0.2503888  )
        25           Si  tau(  25) = (   0.3707318   0.8494975   0.6197254  )
        26           Si  tau(  26) = (  -0.0006740   0.7346557   0.7440135  )
        27           Si  tau(  27) = (   0.3699516   0.6067692   0.8590084  )
        28           Si  tau(  28) = (   0.0044412   0.4847686   0.4925452  )
        29           Si  tau(  29) = (   0.1220648   0.8490081   0.8594610  )
        30           Si  tau(  30) = (   0.2521056   0.7278229   0.4888545  )
        31           Si  tau(  31) = (   0.1255034   0.6109331   0.6203290  )
        32           Si  tau(  32) = (   0.2509250   0.4904611   0.7435931  )
        33           Si  tau(  33) = (   0.8718780   0.3686930   0.1209106  )
        34           Si  tau(  34) = (   0.4953211   0.2475718   0.2457259  )
        35           Si  tau(  35) = (   0.8704529   0.1231868   0.3696969  )
        36           Si  tau(  36) = (   0.4991371   0.0014651   0.0032243  )
        37           Si  tau(  37) = (   0.6230835   0.3669822   0.3732134  )
        38           Si  tau(  38) = (   0.7419328   0.2416136   0.0035837  )
        39           Si  tau(  39) = (   0.6178560   0.1211053   0.1218048  )
        40           Si  tau(  40) = (   0.7446310   0.0018817   0.2423206  )
        41           Si  tau(  41) = (   0.8664261   0.3664639   0.6157020  )
        42           Si  tau(  42) = (   0.4982440   0.2399059   0.7410002  )
        43           Si  tau(  43) = (   0.8685194   0.1223978   0.8622128  )
        44           Si  tau(  44) = (   0.4976742  -0.0025970   0.4949947  )
        45           Si  tau(  45) = (   0.6186239   0.3693474   0.8665962  )
        46           Si  tau(  46) = (   0.7474357   0.2444861   0.4975259  )
        47           Si  tau(  47) = (   0.6212089   0.1242395   0.6139553  )
        48           Si  tau(  48) = (   0.7439320   0.0013989   0.7437051  )
        49           Si  tau(  49) = (   0.8744138   0.8486379   0.1206985  )
        50           Si  tau(  50) = (   0.4929565   0.7317655   0.2421644  )
        51           Si  tau(  51) = (   0.8720008   0.6097084   0.3679617  )
        52           Si  tau(  52) = (   0.4957277   0.4878068   0.0016451  )
        53           Si  tau(  53) = (   0.6233350   0.8527461   0.3711919  )
        54           Si  tau(  54) = (   0.7473295   0.7350537   0.0032026  )
        55           Si  tau(  55) = (   0.6252715   0.6082747   0.1255302  )
        56           Si  tau(  56) = (   0.7468385   0.4879828   0.2445948  )
        57           Si  tau(  57) = (   0.8724217   0.8568123   0.6178036  )
        58           Si  tau(  58) = (   0.4937854   0.7344327   0.7423313  )
        59           Si  tau(  59) = (   0.8689798   0.6120185   0.8636210  )
        60           Si  tau(  60) = (   0.5005753   0.4828816   0.4950922  )
        61           Si  tau(  61) = (   0.6190550   0.8494119   0.8639038  )
        62           Si  tau(  62) = (   0.7479554   0.7316243   0.4897279  )
        63           Si  tau(  63) = (   0.6208049   0.6077465   0.6158732  )
        64           Si  tau(  64) = (   0.7467726   0.4860808   0.7406201  )

     number of k points=     1
                       cart. coord. in units 2pi/alat
        k(    1) = (   0.0000000   0.0000000   0.0000000), wk =   2.0000000

     Dense  grid:    97149 G-vectors     FFT dimensions: (  75,  72,  72)

     Estimated max dynamical RAM per process >     282.69 MB

     Initial potential from superposition of free atoms

     starting charge     253.0416, renormalised to     256.0000
     Starting wfcs are random

     total cpu time spent up to now is        2.9 secs

     Self-consistent Calculation

     iteration #  1     ecut=    30.00 Ry     beta= 0.50
     Davidson diagonalization with overlap
     ethr =  1.00E-02,  avg # of iterations = 11.0

     Threshold (ethr) on eigenvalues was too large:
     Diagonalizing with lowered threshold

     Davidson diagonalization with overlap
     ethr =  6.48E-04,  avg # of iterations =  7.0

     total cpu time spent up to now is        3.6 secs

     total energy              =    -503.74363449 Ry
     estimated scf accuracy    <       1.87527748 Ry

     iteration #  2     ecut=    30.00 Ry     beta= 0.50
     Davidson diagonalization with overlap
     ethr =  7.33E-04,  avg # of iterations =  1.0

     total cpu time spent up to now is        3.8 secs

     total energy              =    -503.73960677 Ry
     estimated scf accuracy    <       0.34377068 Ry

     iteration #  3     ecut=    30.00 Ry     beta= 0.50
     Davidson diagonalization with overlap
     ethr =  1.34E-04,  avg # of iterations =  2.0

     total cpu time spent up to now is        4.1 secs

     total energy              =    -503.76624908 Ry
     estimated scf accuracy    <       0.00569466 Ry

     iteration #  4     ecut=    30.00 Ry     beta= 0.50
     Davidson diagonalization with overlap
     ethr =  2.22E-06,  avg # of iterations =  9.0

     total cpu time spent up to now is        4.5 secs

     total energy              =    -503.77302513 Ry
     estimated scf accuracy    <       0.00450505 Ry

     iteration #  5     ecut=    30.00 Ry     beta= 0.50
     Davidson diagonalization with overlap
     ethr =  1.76E-06,  avg # of iterations =  3.0

     total cpu time spent up to now is        4.7 secs

     total energy              =    -503.77401908 Ry
     estimated scf accuracy    <       0.00084438 Ry

     iteration #  6     ecut=    30.00 Ry     beta= 0.50
     Davidson diagonalization with overlap
     ethr =  3.30E-07,  avg # of iterations =  8.0

     total cpu time spent up to now is        5.0 secs

     total energy              =    -503.77407041 Ry
     estimated scf accuracy    <       0.00017724 Ry

     iteration #  7     ecut=    30.00 Ry     beta= 0.50
     Davidson diagonalization with overlap
     ethr =  6.92E-08,  avg # of iterations =  3.0

     total cpu time spent up to now is        5.3 secs

     total energy              =    -503.77411379 Ry
     estimated scf accuracy    <       0.00002390 Ry

     iteration #  8     ecut=    30.00 Ry     beta= 0.50
     Davidson diagonalization with overlap
     ethr =  9.34E-09,  avg # of iterations =  8.0

     total cpu time spent up to now is        5.7 secs

     total energy              =    -503.77411898 Ry
     estimated scf accuracy    <       0.00000323 Ry

     iteration #  9     ecut=    30.00 Ry     beta= 0.50
     Davidson diagonalization with overlap
     ethr =  1.26E-09,  avg # of iterations =  8.0

     total cpu time spent up to now is        6.0 secs

     total energy              =    -503.77411970 Ry
     estimated scf accuracy    <       0.00000195 Ry

     iteration # 10     ecut=    30.00 Ry     beta= 0.50
     Davidson diagonalization with overlap
     ethr =  7.61E-10,  avg # of iterations =  3.0

     total cpu time spent up to now is        6.2 secs

     End of self-consistent calculation

          k = 0.0000 0.0000 0.0000 ( 12145 PWs)   bands (ev):

    -5.7973  -4.8104  -4.7705  -4.7308  -4.7084  -4.6595  -4.5826  -3.9834
    -3.8686  -3.8272  -3.7882  -3.7804  -3.7344  -3.7013  -3.6732  -3.6651
    -3.6433  -3.6154  -3.5875  -3.4584  -3.3919  -3.3469  -3.2815  -1.9302
    -1.8785  -1.6812  -1.6518  -1.6375  -1.5965  -1.5658  -1.5373  -1.5076
    -1.4839  -1.4682  -1.4288  -1.4146  -1.3985  -1.3818  -1.3738  -1.3463
    -1.3248  -0.8391  -0.7970  -0.7878  -0.6623   0.5600   0.5848   0.6008
     0.6314   0.6451   0.6749   0.7007   0.7023   0.7238   0.7289   0.7699
     0.8192   2.1167   2.1264   2.1721   2.1789   2.2271   2.2366   2.2702
     2.2863   2.2945   2.3278   2.3478   2.3493   2.4014   2.4256   2.4294
     2.4609   2.4694   2.4813   2.5018   2.5267   2.5456   2.5585   2.5740
     2.5955   2.6108   2.6430   2.6861   2.7061   2.7672   2.7883   3.1245
     3.2280   3.2999   3.3034   3.4620   3.4776   4.0926   4.1570   4.1936
     4.2104   4.2592   4.2783   4.2930   4.3161   4.3320   4.3491   4.3670
     4.4338   4.4613   4.6594   4.7101   4.7444   4.7639   4.7974   4.8344
     4.8439   4.8777   4.9151   4.9218   4.9471   4.9766   5.0140   5.0208
     5.0879   5.1085   5.1284   5.1620   5.2815   6.0469   6.2088   6.2825

     highest occupied level (ev):     6.2825

!    total energy              =    -503.77412001 Ry
     estimated scf accuracy    <       0.00000016 Ry

     The total energy is the sum of the following terms:
     one-electron contribution =     147.53242579 Ry
     hartree contribution      =      37.19436402 Ry
     xc contribution           =    -154.10822314 Ry
     ewald contribution        =    -534.39268668 Ry

     convergence has been achieved in  10 iterations

     Forces acting on atoms (cartesian axes, Ry/au):

     atom    1 type  1   force =    -0.00416446   -0.01302699    0.01506406
     atom    2 type  1   force =    -0.01799922    0.03519069    0.01817269
     atom    3 type  1   force =     0.00177423   -0.00994164    0.02916196
     atom    4 type  1   force =     0.01276153   -0.02362177    0.04806349
     atom    5 type  1   force =    -0.02880914   -0.00198778   -0.01236371
     atom    6 type  1   force =     0.01846270    0.00112860    0.02943924
     atom    7 type  1   force =    -0.00708171   -0.03814432    0.00103298
     atom    8 type  1   force =     0.01251097    0.00186051   -0.02207489
     atom    9 type  1   force =     0.01347929   -0.00799377    0.00262819
     atom   10 type  1   force =    -0.02005732    0.00697982    0.00482843
     atom   11 type  1   force =    -0.01870439    0.01364310   -0.04090674
     atom   12 type  1   force =     0.01073461   -0.00780696   -0.01063510
     atom   13 type  1   force =    -0.00603940    0.02263622   -0.04169977
     atom   14 type  1   force =     0.03025615   -0.01524499    0.00448625
     atom   15 type  1   force =    -0.01269320   -0.02209690   -0.01103330
     atom   16 type  1   force =    -0.00963115   -0.00428839   -0.00584152
     atom   17 type  1   force =    -0.01424161    0.02524755   -0.02113624
     atom   18 type  1   force =    -0.01527101   -0.01250256    0.01401495
     atom   19 type  1   force =     0.03995273   -0.03250190    0.01799182
     atom   20 type  1   force =    -0.00704745   -0.00271977    0.03914027
     atom   21 type  1   force =    -0.02733899    0.02131084    0.02401543
     atom   22 type  1   force =    -0.00065436    0.02336623    0.06023280
     atom   23 type  1   force =    -0.00391986   -0.02004185   -0.00325214
     atom   24 type  1   force =    -0.01785658    0.00476000   -0.01770091
     atom   25 type  1   force =     0.00284782    0.02561268   -0.02861929
     atom   26 type  1   force =    -0.03220317   -0.02249614   -0.04097742
     atom   27 type  1   force =     0.03616603    0.01801612   -0.01846530
     atom   28 type  1   force =    -0.03085305    0.01528972    0.00543722
     atom   29 type  1   force =     0.01135432    0.04552939   -0.01246619
     atom   30 type  1   force =    -0.02162171    0.01201494    0.03132370
     atom   31 type  1   force =    -0.00547599   -0.00086908   -0.01411830
     atom   32 type  1   force =    -0.03207059   -0.03625487   -0.03211737
     atom   33 type  1   force =     0.00808485   -0.01986140    0.00910024
     atom   34 type  1   force =     0.01103661   -0.00344685    0.00160705
     atom   35 type  1   force =     0.00812259   -0.00842128   -0.00101869
     atom   36 type  1   force =    -0.01305922   -0.04275104    0.04074373
     atom   37 type  1   force =     0.00931926   -0.01533751   -0.01978250
     atom   38 type  1   force =     0.01617842    0.02217176    0.03384715
     atom   39 type  1   force =     0.00851054    0.01531017    0.02969619
     atom   40 type  1   force =     0.01367231   -0.02521631    0.01699759
     atom   41 type  1   force =     0.04676392    0.00465892    0.00235636
     atom   42 type  1   force =    -0.00955607    0.02684727   -0.00976214
     atom   43 type  1   force =     0.01112722    0.00902734   -0.04390435
     atom   44 type  1   force =    -0.01100615    0.00263981   -0.01032115
     atom   45 type  1   force =     0.01925814   -0.03413297   -0.06830277
     atom   46 type  1   force =    -0.00525011   -0.00485960   -0.03215405
     atom   47 type  1   force =     0.00211628   -0.02191912    0.01699133
     atom   48 type  1   force =    -0.00487543   -0.01875116   -0.02613651
     atom   49 type  1   force =     0.00457969    0.05297956    0.01853531
     atom   50 type  1   force =     0.03659783   -0.00184593    0.02524098
     atom   51 type  1   force =     0.02592457   -0.00417781    0.00262526
     atom   52 type  1   force =    -0.00084573    0.02897082    0.04973085
     atom   53 type  1   force =    -0.01463887    0.01141676   -0.02279723
     atom   54 type  1   force =    -0.00861870   -0.02698070    0.03915722
     atom   55 type  1   force =    -0.02337716    0.01477015   -0.00951875
     atom   56 type  1   force =     0.00921001   -0.00934851    0.02340852
     atom   57 type  1   force =    -0.00519697   -0.00257499    0.00139290
     atom   58 type  1   force =     0.01322584   -0.03459918   -0.01856322
     atom   59 type  1   force =     0.02212086   -0.01161491   -0.04770309
     atom   60 type  1   force =    -0.03257967    0.02903476   -0.00751377
     atom   61 type  1   force =     0.00427968    0.03695458   -0.04028331
     atom   62 type  1   force =     0.00485530   -0.00356396    0.02468665
     atom   63 type  1   force =     0.00847293    0.01766119    0.00712308
     atom   64 type  1   force =    -0.01101885    0.01591341    0.00289582

     Total force =     0.310118     Total SCF correction =     0.000544


     Computing stress (Cartesian axis) and pressure

          total   stress  (Ry/bohr**3)                   (kbar)     P=       22.55
   0.00005031  -0.00004499   0.00001330            7.40       -6.62        1.96
  -0.00004499   0.00019201   0.00001754           -6.62       28.25        2.58
   0.00001330   0.00001754   0.00021748            1.96        2.58       31.99

 
     init_run     :      0.96s CPU      2.82s WALL (       1 calls)
     electrons    :      1.61s CPU      3.37s WALL (       1 calls)
     forces       :      0.07s CPU      0.14s WALL (       1 calls)
     stress       :      0.25s CPU      0.52s WALL (       1 calls)

     Called by init_run:
     wfcinit      :      0.59s CPU      1.82s WALL (       1 calls)
                                        1.82s GPU  (       1 calls)
     potinit      :      0.22s CPU      0.56s WALL (       1 calls)
     hinit0       :      0.11s CPU      0.24s WALL (       1 calls)

     Called by electrons:
     c_bands      :      1.00s CPU      2.09s WALL (      11 calls)
     sum_band     :      0.24s CPU      0.48s WALL (      11 calls)
     v_of_rho     :      0.15s CPU      0.44s WALL (      11 calls)
     mix_rho      :      0.21s CPU      0.46s WALL (      11 calls)

     Called by c_bands:
     init_us_2    :      0.03s CPU      0.05s WALL (      23 calls)
     init_us_2:gp :      0.03s CPU      0.05s WALL (      23 calls)
     regterg      :      0.89s CPU      1.79s WALL (      11 calls)

     Called by *egterg:
     rdiaghg      :      0.32s CPU      0.78s WALL (      73 calls)
                                        0.77s GPU  (      73 calls)
     h_psi        :      1.00s CPU      2.47s WALL (      75 calls)
                                        2.47s GPU  (      75 calls)
     g_psi        :      0.00s CPU      0.00s WALL (      63 calls)
                                        0.00s GPU  (      63 calls)

     Called by h_psi:
     h_psi:calbec :      0.49s CPU      1.50s WALL (      75 calls)
                                        1.47s GPU  (      75 calls)
     vloc_psi     :      0.41s CPU      0.83s WALL (      75 calls)
                                        0.83s GPU  (      75 calls)
     add_vuspsi   :      0.04s CPU      0.13s WALL (      75 calls)
                                        0.08s GPU  (      75 calls)

     General routines
     calbec       :      0.49s CPU      1.44s WALL (      80 calls)
     fft          :      0.15s CPU      0.40s WALL (      95 calls)
                                        0.06s GPU  (      59 calls)
     ffts         :      0.04s CPU      0.06s WALL (      11 calls)
     fftw         :      0.03s CPU      0.93s WALL (    1060 calls)
                                        0.40s GPU  (    1060 calls)
 
     Parallel routines
 
     PWSCF        :      2.91s CPU      6.96s WALL

 
   This run was terminated on:  22:44:15   8Jul2023            

=------------------------------------------------------------------------------=
   JOB DONE.
=------------------------------------------------------------------------------=
