
     Program PWSCF v.7.0 starts on  8Jul2023 at 22:48:45 

     This program is part of the open-source Quantum ESPRESSO suite
     for quantum simulation of materials; please cite
         "P. Giannozzi et al., J. Phys.:Condens. Matter 21 395502 (2009);
         "P. Giannozzi et al., J. Phys.:Condens. Matter 29 465901 (2017);
         "P. Giannozzi et al., J. Chem. Phys. 152 154105 (2020);
          URL http://www.quantum-espresso.org", 
     in publications or presentations arising from this work. More details at
     http://www.quantum-espresso.org/quote

     Parallel version (MPI & OpenMP), running on       1 processor cores
     Number of MPI processes:                 1
     Threads/MPI process:                     1

     MPI processes distributed on     1 nodes
     109173 MiB available memory on the printing compute node when the environment starts
 
     Reading input from pw-si-69.in
Warning: card &CELL ignored
Warning: card / ignored

     Current dimensions of program PWSCF are:
     Max number of different atomic species (ntypx) = 10
     Max number of k-points (npk) =  40000
     Max angular momentum in pseudopotentials (lmaxx) =  4

     IMPORTANT: XC functional enforced from input :
     Exchange-correlation= PBE
                           (   1   4   3   4   0   0   0)
     Any further DFT definition will be discarded
     Please, verify this is what you really want


     gamma-point specific algorithms are used

     Subspace diagonalization in iterative solution of the eigenvalue problem:
     a serial algorithm will be used

 
     G-vector sticks info
     --------------------
     sticks:   dense  smooth     PW     G-vecs:    dense   smooth      PW
     Sum        4037    4037   1005               194809   194809   24305
 
     Using Slab Decomposition
 


     bravais-lattice index     =            0
     lattice parameter (alat)  =      20.5302  a.u.
     unit-cell volume          =    8778.8832 (a.u.)^3
     number of atoms/cell      =           64
     number of atomic types    =            1
     number of electrons       =       256.00
     number of Kohn-Sham states=          128
     kinetic-energy cutoff     =      30.0000  Ry
     charge density cutoff     =     120.0000  Ry
     scf convergence threshold =      1.0E-06
     mixing beta               =       0.5000
     number of iterations used =            8  plain     mixing
     Exchange-correlation= PBE
                           (   1   4   3   4   0   0   0)

     GPU acceleration is ACTIVE.


     celldm(1)=  20.530204  celldm(2)=   0.000000  celldm(3)=   0.000000
     celldm(4)=   0.000000  celldm(5)=   0.000000  celldm(6)=   0.000000

     crystal axes: (cart. coord. in units of alat)
               a(1) = (   1.000000   0.000000   0.000000 )  
               a(2) = (   0.000000   1.003743   0.000000 )  
               a(3) = (   0.000000   0.000000   1.010734 )  

     reciprocal axes: (cart. coord. in units 2 pi/alat)
               b(1) = (  1.000000  0.000000  0.000000 )  
               b(2) = (  0.000000  0.996271  0.000000 )  
               b(3) = (  0.000000  0.000000  0.989380 )  


     PseudoPot. # 1 for Si read from file:
     ./Si_ONCV_PBE-1.0.upf
     MD5 check sum: 2de5a83d12544a9ea852f39b88f19b1f
     Pseudo is Norm-conserving, Zval =  4.0
     Generated using ONCVPSP code by D. R. Hamann
     Using radial grid of  602 points,  4 beta functions with: 
                l(1) =   0
                l(2) =   0
                l(3) =   1
                l(4) =   1

     atomic species   valence    mass     pseudopotential
        Si             4.00    28.08500     Si( 1.00)

     No symmetry found



   Cartesian axes

     site n.     atom                  positions (alat units)
         1           Si  tau(   1) = (   0.3797351   0.3718744   0.1245600  )
         2           Si  tau(   2) = (  -0.0030147   0.2517184   0.2561421  )
         3           Si  tau(   3) = (   0.3724228   0.1242517   0.3785543  )
         4           Si  tau(   4) = (  -0.0001686   0.0010228   0.0004800  )
         5           Si  tau(   5) = (   0.1224572   0.3790465   0.3861367  )
         6           Si  tau(   6) = (   0.2546030   0.2533888  -0.0004231  )
         7           Si  tau(   7) = (   0.1243367   0.1217718   0.1271835  )
         8           Si  tau(   8) = (   0.2485754  -0.0016477   0.2541460  )
         9           Si  tau(   9) = (   0.3781847   0.3711188   0.6386906  )
        10           Si  tau(  10) = (  -0.0038834   0.2489544   0.7639514  )
        11           Si  tau(  11) = (   0.3765906   0.1243406   0.8893708  )
        12           Si  tau(  12) = (   0.0009320  -0.0036501   0.5134377  )
        13           Si  tau(  13) = (   0.1212045   0.3734693   0.8931206  )
        14           Si  tau(  14) = (   0.2480700   0.2515312   0.5062082  )
        15           Si  tau(  15) = (   0.1282091   0.1261829   0.6390910  )
        16           Si  tau(  16) = (   0.2508556   0.0044236   0.7671312  )
        17           Si  tau(  17) = (   0.3799708   0.8703006   0.1304606  )
        18           Si  tau(  18) = (   0.0015630   0.7520179   0.2583208  )
        19           Si  tau(  19) = (   0.3772375   0.6218599   0.3784698  )
        20           Si  tau(  20) = (   0.0008687   0.4997395  -0.0018345  )
        21           Si  tau(  21) = (   0.1211276   0.8733139   0.3852850  )
        22           Si  tau(  22) = (   0.2482851   0.7463435  -0.0039122  )
        23           Si  tau(  23) = (   0.1213604   0.6227960   0.1298227  )
        24           Si  tau(  24) = (   0.2502829   0.4997300   0.2568555  )
        25           Si  tau(  25) = (   0.3784029   0.8742596   0.6379489  )
        26           Si  tau(  26) = (   0.0027470   0.7461148   0.7677490  )
        27           Si  tau(  27) = (   0.3737469   0.6281379   0.8908618  )
        28           Si  tau(  28) = (  -0.0005825   0.4956440   0.5127302  )
        29           Si  tau(  29) = (   0.1278102   0.8720096   0.8933675  )
        30           Si  tau(  30) = (   0.2525407   0.7472975   0.5129307  )
        31           Si  tau(  31) = (   0.1240073   0.6255155   0.6366506  )
        32           Si  tau(  32) = (   0.2543379   0.4956870   0.7691410  )
        33           Si  tau(  33) = (   0.8757317   0.3710239   0.1253119  )
        34           Si  tau(  34) = (   0.5011945   0.2478299   0.2562951  )
        35           Si  tau(  35) = (   0.8822356   0.1248077   0.3841491  )
        36           Si  tau(  36) = (   0.4972978   0.0002466  -0.0014970  )
        37           Si  tau(  37) = (   0.6277052   0.3718311   0.3797434  )
        38           Si  tau(  38) = (   0.7531575   0.2470140  -0.0040441  )
        39           Si  tau(  39) = (   0.6230929   0.1212324   0.1316586  )
        40           Si  tau(  40) = (   0.7544501   0.0039969   0.2573803  )
        41           Si  tau(  41) = (   0.8821626   0.3712882   0.6415456  )
        42           Si  tau(  42) = (   0.4979967   0.2464222   0.7620470  )
        43           Si  tau(  43) = (   0.8792985   0.1283586   0.8899767  )
        44           Si  tau(  44) = (   0.4975471  -0.0034430   0.5132579  )
        45           Si  tau(  45) = (   0.6274490   0.3720182   0.8939210  )
        46           Si  tau(  46) = (   0.7500496   0.2474871   0.5097023  )
        47           Si  tau(  47) = (   0.6274520   0.1251072   0.6328953  )
        48           Si  tau(  48) = (   0.7533478   0.0006669   0.7638248  )
        49           Si  tau(  49) = (   0.8816088   0.8740958   0.1276163  )
        50           Si  tau(  50) = (   0.5009191   0.7509194   0.2555210  )
        51           Si  tau(  51) = (   0.8813855   0.6281687   0.3794280  )
        52           Si  tau(  52) = (   0.5007258   0.5012169  -0.0012128  )
        53           Si  tau(  53) = (   0.6307939   0.8736956   0.3836312  )
        54           Si  tau(  54) = (   0.7545021   0.7491575  -0.0003957  )
        55           Si  tau(  55) = (   0.6233539   0.6271665   0.1234816  )
        56           Si  tau(  56) = (   0.7505955   0.4977957   0.2588699  )
        57           Si  tau(  57) = (   0.8765390   0.8732254   0.6380745  )
        58           Si  tau(  58) = (   0.5054920   0.7510095   0.7661413  )
        59           Si  tau(  59) = (   0.8820332   0.6208985   0.8887774  )
        60           Si  tau(  60) = (   0.5019825   0.5002276   0.5141850  )
        61           Si  tau(  61) = (   0.6305575   0.8699678   0.8887821  )
        62           Si  tau(  62) = (   0.7565240   0.7514301   0.5123121  )
        63           Si  tau(  63) = (   0.6252951   0.6239301   0.6389888  )
        64           Si  tau(  64) = (   0.7501595   0.5033023   0.7661329  )

     number of k points=     1
                       cart. coord. in units 2pi/alat
        k(    1) = (   0.0000000   0.0000000   0.0000000), wk =   2.0000000

     Dense  grid:    97405 G-vectors     FFT dimensions: (  72,  72,  75)

     Estimated max dynamical RAM per process >     283.55 MB

     Initial potential from superposition of free atoms

     starting charge     253.0416, renormalised to     256.0000
     Starting wfcs are random

     total cpu time spent up to now is        1.4 secs

     Self-consistent Calculation

     iteration #  1     ecut=    30.00 Ry     beta= 0.50
     Davidson diagonalization with overlap
     ethr =  1.00E-02,  avg # of iterations = 14.0

     Threshold (ethr) on eigenvalues was too large:
     Diagonalizing with lowered threshold

     Davidson diagonalization with overlap
     ethr =  6.65E-04,  avg # of iterations =  6.0

     total cpu time spent up to now is        1.8 secs

     total energy              =    -503.76121223 Ry
     estimated scf accuracy    <       1.85869106 Ry

     iteration #  2     ecut=    30.00 Ry     beta= 0.50
     Davidson diagonalization with overlap
     ethr =  7.26E-04,  avg # of iterations =  1.0

     total cpu time spent up to now is        1.9 secs

     total energy              =    -503.76451623 Ry
     estimated scf accuracy    <       0.34430811 Ry

     iteration #  3     ecut=    30.00 Ry     beta= 0.50
     Davidson diagonalization with overlap
     ethr =  1.34E-04,  avg # of iterations =  6.0

     total cpu time spent up to now is        2.0 secs

     total energy              =    -503.80261357 Ry
     estimated scf accuracy    <       0.00609130 Ry

     iteration #  4     ecut=    30.00 Ry     beta= 0.50
     Davidson diagonalization with overlap
     ethr =  2.38E-06,  avg # of iterations =  9.0

     total cpu time spent up to now is        2.2 secs

     total energy              =    -503.81110863 Ry
     estimated scf accuracy    <       0.00450215 Ry

     iteration #  5     ecut=    30.00 Ry     beta= 0.50
     Davidson diagonalization with overlap
     ethr =  1.76E-06,  avg # of iterations =  3.0

     total cpu time spent up to now is        2.3 secs

     total energy              =    -503.81225345 Ry
     estimated scf accuracy    <       0.00118600 Ry

     iteration #  6     ecut=    30.00 Ry     beta= 0.50
     Davidson diagonalization with overlap
     ethr =  4.63E-07,  avg # of iterations =  6.0

     total cpu time spent up to now is        2.5 secs

     total energy              =    -503.81223363 Ry
     estimated scf accuracy    <       0.00031677 Ry

     iteration #  7     ecut=    30.00 Ry     beta= 0.50
     Davidson diagonalization with overlap
     ethr =  1.24E-07,  avg # of iterations =  5.0

     total cpu time spent up to now is        2.6 secs

     total energy              =    -503.81233115 Ry
     estimated scf accuracy    <       0.00008723 Ry

     iteration #  8     ecut=    30.00 Ry     beta= 0.50
     Davidson diagonalization with overlap
     ethr =  3.41E-08,  avg # of iterations =  7.0

     total cpu time spent up to now is        2.8 secs

     total energy              =    -503.81234006 Ry
     estimated scf accuracy    <       0.00000896 Ry

     iteration #  9     ecut=    30.00 Ry     beta= 0.50
     Davidson diagonalization with overlap
     ethr =  3.50E-09,  avg # of iterations =  7.0

     total cpu time spent up to now is        3.0 secs

     total energy              =    -503.81234340 Ry
     estimated scf accuracy    <       0.00000402 Ry

     iteration # 10     ecut=    30.00 Ry     beta= 0.50
     Davidson diagonalization with overlap
     ethr =  1.57E-09,  avg # of iterations =  7.0

     total cpu time spent up to now is        3.1 secs

     End of self-consistent calculation

          k = 0.0000 0.0000 0.0000 ( 12153 PWs)   bands (ev):

    -5.7802  -4.7802  -4.7734  -4.7675  -4.6587  -4.6420  -4.6259  -3.9392
    -3.8873  -3.8511  -3.8055  -3.7857  -3.7675  -3.7563  -3.7202  -3.7025
    -3.6458  -3.6066  -3.5687  -3.5395  -3.4421  -3.4090  -3.3314  -1.8262
    -1.7998  -1.7717  -1.6893  -1.6531  -1.6392  -1.5838  -1.5573  -1.5505
    -1.5299  -1.5124  -1.5103  -1.4634  -1.4425  -1.4278  -1.3979  -1.3910
    -1.3457  -0.8754  -0.8158  -0.7563  -0.6919   0.5130   0.5695   0.5887
     0.6269   0.6428   0.6557   0.6633   0.6724   0.6793   0.7211   0.7424
     0.7520   2.1499   2.1902   2.2110   2.2197   2.2342   2.2374   2.2708
     2.2865   2.2935   2.3086   2.3212   2.3275   2.3653   2.3753   2.4017
     2.4105   2.4192   2.4262   2.4425   2.4655   2.4818   2.4851   2.5142
     2.5279   2.5687   2.6075   2.6452   2.6638   2.7147   2.7310   3.2299
     3.2664   3.2710   3.2974   3.3359   3.3662   4.0930   4.1504   4.1695
     4.1816   4.2142   4.2287   4.2639   4.2885   4.3060   4.3586   4.3603
     4.3816   4.5580   4.5990   4.6774   4.7573   4.7626   4.7852   4.7948
     4.8110   4.8389   4.8598   4.8900   4.8933   4.9108   4.9438   4.9563
     4.9754   5.0402   5.0758   5.1015   5.1644   6.0555   6.1596   6.2251

     highest occupied level (ev):     6.2251

!    total energy              =    -503.81234364 Ry
     estimated scf accuracy    <       0.00000041 Ry

     The total energy is the sum of the following terms:
     one-electron contribution =     147.52000645 Ry
     hartree contribution      =      36.88133900 Ry
     xc contribution           =    -154.00539694 Ry
     ewald contribution        =    -534.20829215 Ry

     convergence has been achieved in  10 iterations

     Forces acting on atoms (cartesian axes, Ry/au):

     atom    1 type  1   force =    -0.00798731    0.02332587    0.02791470
     atom    2 type  1   force =     0.03406020   -0.00555788   -0.00570269
     atom    3 type  1   force =     0.00601109   -0.00793899    0.02245919
     atom    4 type  1   force =     0.01396159   -0.02366768    0.01269641
     atom    5 type  1   force =     0.00732228   -0.01713732   -0.02422794
     atom    6 type  1   force =    -0.02504784   -0.02936606    0.02292454
     atom    7 type  1   force =     0.01097934    0.02909288    0.00504238
     atom    8 type  1   force =    -0.00055390   -0.02733841    0.00066819
     atom    9 type  1   force =    -0.02009950    0.01216746   -0.01341090
     atom   10 type  1   force =     0.05306486   -0.00673792    0.00583662
     atom   11 type  1   force =    -0.00823738    0.01311096   -0.01014901
     atom   12 type  1   force =     0.00819413    0.00487475    0.00151903
     atom   13 type  1   force =     0.02522311   -0.00633331   -0.03402246
     atom   14 type  1   force =     0.01344002   -0.00483143    0.01188956
     atom   15 type  1   force =    -0.01605195   -0.00185221   -0.01164029
     atom   16 type  1   force =     0.00111820   -0.04555601   -0.01348761
     atom   17 type  1   force =    -0.03853480    0.02930861   -0.02499715
     atom   18 type  1   force =     0.00985312   -0.00449419   -0.02500975
     atom   19 type  1   force =     0.00175703    0.01297232    0.03012206
     atom   20 type  1   force =    -0.00351523   -0.01429325    0.05520774
     atom   21 type  1   force =     0.03822677    0.01646489    0.00821364
     atom   22 type  1   force =     0.00964324    0.00697855    0.07822740
     atom   23 type  1   force =     0.01805668    0.00885140   -0.00494958
     atom   24 type  1   force =     0.00050090   -0.01604603   -0.02001602
     atom   25 type  1   force =    -0.01772531    0.00963540    0.01932730
     atom   26 type  1   force =     0.00362041    0.02407766   -0.02294109
     atom   27 type  1   force =     0.02561845   -0.02208935   -0.03276440
     atom   28 type  1   force =    -0.00065347    0.03566103   -0.00416551
     atom   29 type  1   force =    -0.01879148    0.04258146   -0.03617705
     atom   30 type  1   force =    -0.00217837    0.00538466   -0.02208300
     atom   31 type  1   force =     0.02016964   -0.02688397    0.01389167
     atom   32 type  1   force =    -0.02393608    0.01153612   -0.02689820
     atom   33 type  1   force =    -0.01258049    0.02105478    0.00593193
     atom   34 type  1   force =    -0.00391961    0.00274226   -0.00762028
     atom   35 type  1   force =    -0.02239385   -0.00160101    0.01158258
     atom   36 type  1   force =     0.02947345   -0.04009352    0.03216706
     atom   37 type  1   force =    -0.01350582    0.01012676    0.03137686
     atom   38 type  1   force =    -0.02017343   -0.00610172    0.06233867
     atom   39 type  1   force =     0.01575981    0.00890731   -0.02645909
     atom   40 type  1   force =     0.00285660   -0.03591286   -0.00530540
     atom   41 type  1   force =    -0.06504019    0.02287110   -0.02323344
     atom   42 type  1   force =     0.03768957    0.00309410    0.00575734
     atom   43 type  1   force =    -0.01637319   -0.03681429   -0.02278584
     atom   44 type  1   force =     0.01746569    0.00562901   -0.03441965
     atom   45 type  1   force =    -0.01718200    0.01325661   -0.04743007
     atom   46 type  1   force =     0.02896697    0.01313723   -0.00548187
     atom   47 type  1   force =    -0.01662827   -0.01672203    0.02084710
     atom   48 type  1   force =    -0.00440290   -0.01014813   -0.00585292
     atom   49 type  1   force =    -0.03046771    0.02274532    0.00779695
     atom   50 type  1   force =     0.02546223   -0.01201908    0.00948752
     atom   51 type  1   force =    -0.02828275   -0.03032348    0.03049564
     atom   52 type  1   force =    -0.00192036   -0.00264504    0.01981863
     atom   53 type  1   force =    -0.01397496    0.02123872    0.00388709
     atom   54 type  1   force =     0.01561432   -0.01024593    0.02478740
     atom   55 type  1   force =     0.01810460   -0.01139393    0.02706958
     atom   56 type  1   force =     0.00736925    0.02035884   -0.03601996
     atom   57 type  1   force =     0.01134131    0.01480506    0.02269846
     atom   58 type  1   force =    -0.02270811   -0.00949810   -0.01405044
     atom   59 type  1   force =    -0.03677096    0.02101562   -0.00840566
     atom   60 type  1   force =    -0.00094156   -0.01619288   -0.02826023
     atom   61 type  1   force =    -0.00791942    0.05310348   -0.00196474
     atom   62 type  1   force =    -0.01931170   -0.02250026   -0.01334849
     atom   63 type  1   force =     0.01578198    0.01576924   -0.01091619
     atom   64 type  1   force =     0.01110308   -0.03354322   -0.00778631

     Total force =     0.309375     Total SCF correction =     0.001207


     Computing stress (Cartesian axis) and pressure

          total   stress  (Ry/bohr**3)                   (kbar)     P=       19.08
   0.00016022  -0.00001047   0.00003403           23.57       -1.54        5.01
  -0.00001047   0.00013918  -0.00002828           -1.54       20.47       -4.16
   0.00003403  -0.00002828   0.00008974            5.01       -4.16       13.20

 
     init_run     :      0.89s CPU      1.34s WALL (       1 calls)
     electrons    :      1.64s CPU      1.71s WALL (       1 calls)
     forces       :      0.06s CPU      0.06s WALL (       1 calls)
     stress       :      0.23s CPU      0.24s WALL (       1 calls)

     Called by init_run:
     wfcinit      :      0.53s CPU      0.85s WALL (       1 calls)
                                        0.85s GPU  (       1 calls)
     potinit      :      0.21s CPU      0.27s WALL (       1 calls)
     hinit0       :      0.12s CPU      0.12s WALL (       1 calls)

     Called by electrons:
     c_bands      :      1.03s CPU      1.06s WALL (      11 calls)
     sum_band     :      0.23s CPU      0.24s WALL (      11 calls)
     v_of_rho     :      0.16s CPU      0.23s WALL (      11 calls)
     mix_rho      :      0.21s CPU      0.22s WALL (      11 calls)

     Called by c_bands:
     init_us_2    :      0.03s CPU      0.04s WALL (      23 calls)
     init_us_2:gp :      0.03s CPU      0.03s WALL (      23 calls)
     regterg      :      0.93s CPU      0.95s WALL (      11 calls)

     Called by *egterg:
     rdiaghg      :      0.36s CPU      0.42s WALL (      81 calls)
                                        0.41s GPU  (      81 calls)
     h_psi        :      0.92s CPU      1.20s WALL (      83 calls)
                                        1.20s GPU  (      83 calls)
     g_psi        :      0.00s CPU      0.00s WALL (      71 calls)
                                        0.00s GPU  (      71 calls)

     Called by h_psi:
     h_psi:calbec :      0.41s CPU      0.70s WALL (      83 calls)
                                        0.70s GPU  (      83 calls)
     vloc_psi     :      0.41s CPU      0.42s WALL (      83 calls)
                                        0.42s GPU  (      83 calls)
     add_vuspsi   :      0.04s CPU      0.07s WALL (      83 calls)
                                        0.07s GPU  (      83 calls)

     General routines
     calbec       :      0.41s CPU      0.67s WALL (      88 calls)
     fft          :      0.16s CPU      0.17s WALL (      95 calls)
                                        0.03s GPU  (      59 calls)
     ffts         :      0.04s CPU      0.04s WALL (      11 calls)
     fftw         :      0.03s CPU      0.47s WALL (    1078 calls)
                                        0.38s GPU  (    1078 calls)
 
     Parallel routines
 
     PWSCF        :      2.85s CPU      3.40s WALL

 
   This run was terminated on:  22:48:48   8Jul2023            

=------------------------------------------------------------------------------=
   JOB DONE.
=------------------------------------------------------------------------------=
