
     Program PWSCF v.7.0 starts on  8Jul2023 at 22:49:33 

     This program is part of the open-source Quantum ESPRESSO suite
     for quantum simulation of materials; please cite
         "P. Giannozzi et al., J. Phys.:Condens. Matter 21 395502 (2009);
         "P. Giannozzi et al., J. Phys.:Condens. Matter 29 465901 (2017);
         "P. Giannozzi et al., J. Chem. Phys. 152 154105 (2020);
          URL http://www.quantum-espresso.org", 
     in publications or presentations arising from this work. More details at
     http://www.quantum-espresso.org/quote

     Parallel version (MPI & OpenMP), running on       1 processor cores
     Number of MPI processes:                 1
     Threads/MPI process:                     1

     MPI processes distributed on     1 nodes
     109182 MiB available memory on the printing compute node when the environment starts
 
     Reading input from pw-si-80.in
Warning: card &CELL ignored
Warning: card / ignored

     Current dimensions of program PWSCF are:
     Max number of different atomic species (ntypx) = 10
     Max number of k-points (npk) =  40000
     Max angular momentum in pseudopotentials (lmaxx) =  4

     IMPORTANT: XC functional enforced from input :
     Exchange-correlation= PBE
                           (   1   4   3   4   0   0   0)
     Any further DFT definition will be discarded
     Please, verify this is what you really want


     gamma-point specific algorithms are used

     Subspace diagonalization in iterative solution of the eigenvalue problem:
     a serial algorithm will be used

 
     G-vector sticks info
     --------------------
     sticks:   dense  smooth     PW     G-vecs:    dense   smooth      PW
     Sum        4141    4141   1037               199937   199937   25029
 
     Using Slab Decomposition
 


     bravais-lattice index     =            0
     lattice parameter (alat)  =      20.7535  a.u.
     unit-cell volume          =    9006.2126 (a.u.)^3
     number of atoms/cell      =           64
     number of atomic types    =            1
     number of electrons       =       256.00
     number of Kohn-Sham states=          128
     kinetic-energy cutoff     =      30.0000  Ry
     charge density cutoff     =     120.0000  Ry
     scf convergence threshold =      1.0E-06
     mixing beta               =       0.5000
     number of iterations used =            8  plain     mixing
     Exchange-correlation= PBE
                           (   1   4   3   4   0   0   0)

     GPU acceleration is ACTIVE.


     celldm(1)=  20.753528  celldm(2)=   0.000000  celldm(3)=   0.000000
     celldm(4)=   0.000000  celldm(5)=   0.000000  celldm(6)=   0.000000

     crystal axes: (cart. coord. in units of alat)
               a(1) = (   1.000000   0.000000   0.000000 )  
               a(2) = (   0.000000   1.005538   0.000000 )  
               a(3) = (   0.000000   0.000000   1.002000 )  

     reciprocal axes: (cart. coord. in units 2 pi/alat)
               b(1) = (  1.000000  0.000000  0.000000 )  
               b(2) = (  0.000000  0.994492  0.000000 )  
               b(3) = (  0.000000  0.000000  0.998004 )  


     PseudoPot. # 1 for Si read from file:
     ./Si_ONCV_PBE-1.0.upf
     MD5 check sum: 2de5a83d12544a9ea852f39b88f19b1f
     Pseudo is Norm-conserving, Zval =  4.0
     Generated using ONCVPSP code by D. R. Hamann
     Using radial grid of  602 points,  4 beta functions with: 
                l(1) =   0
                l(2) =   0
                l(3) =   1
                l(4) =   1

     atomic species   valence    mass     pseudopotential
        Si             4.00    28.08500     Si( 1.00)

     No symmetry found



   Cartesian axes

     site n.     atom                  positions (alat units)
         1           Si  tau(   1) = (   0.3820525   0.3679761   0.1236790  )
         2           Si  tau(   2) = (  -0.0003527   0.2512214   0.2542329  )
         3           Si  tau(   3) = (   0.3740555   0.1260546   0.3798857  )
         4           Si  tau(   4) = (   0.0032278  -0.0037995   0.0034644  )
         5           Si  tau(   5) = (   0.1247907   0.3685671   0.3802361  )
         6           Si  tau(   6) = (   0.2545009   0.2519759   0.0000365  )
         7           Si  tau(   7) = (   0.1251344   0.1198978   0.1274888  )
         8           Si  tau(   8) = (   0.2493521  -0.0036571   0.2502286  )
         9           Si  tau(   9) = (   0.3815706   0.3761849   0.6274081  )
        10           Si  tau(  10) = (   0.0011999   0.2438059   0.7551906  )
        11           Si  tau(  11) = (   0.3804102   0.1201552   0.8845533  )
        12           Si  tau(  12) = (  -0.0036300   0.0004766   0.5086883  )
        13           Si  tau(  13) = (   0.1279768   0.3685402   0.8802704  )
        14           Si  tau(  14) = (   0.2555050   0.2499520   0.5055130  )
        15           Si  tau(  15) = (   0.1290648   0.1278466   0.6285099  )
        16           Si  tau(  16) = (   0.2505716   0.0024397   0.7587525  )
        17           Si  tau(  17) = (   0.3818371   0.8650145   0.1258608  )
        18           Si  tau(  18) = (  -0.0037611   0.7397863   0.2494050  )
        19           Si  tau(  19) = (   0.3771834   0.6184763   0.3755548  )
        20           Si  tau(  20) = (  -0.0028447   0.4951505  -0.0039796  )
        21           Si  tau(  21) = (   0.1292479   0.8682972   0.3800573  )
        22           Si  tau(  22) = (   0.2489565   0.7447616  -0.0006891  )
        23           Si  tau(  23) = (   0.1247704   0.6215248   0.1256272  )
        24           Si  tau(  24) = (   0.2567479   0.4936947   0.2522059  )
        25           Si  tau(  25) = (   0.3774005   0.8689157   0.6271272  )
        26           Si  tau(  26) = (  -0.0014034   0.7401018   0.7588707  )
        27           Si  tau(  27) = (   0.3798285   0.6238158   0.8868232  )
        28           Si  tau(  28) = (  -0.0024136   0.4950772   0.5017115  )
        29           Si  tau(  29) = (   0.1218114   0.8663177   0.8820196  )
        30           Si  tau(  30) = (   0.2500730   0.7420811   0.5083862  )
        31           Si  tau(  31) = (   0.1246557   0.6193767   0.6303176  )
        32           Si  tau(  32) = (   0.2546453   0.4953872   0.7531609  )
        33           Si  tau(  33) = (   0.8792532   0.3709486   0.1238192  )
        34           Si  tau(  34) = (   0.5072011   0.2439990   0.2552929  )
        35           Si  tau(  35) = (   0.8856106   0.1281830   0.3791340  )
        36           Si  tau(  36) = (   0.5082161   0.0004889   0.0015421  )
        37           Si  tau(  37) = (   0.6294402   0.3705636   0.3740620  )
        38           Si  tau(  38) = (   0.7550145   0.2440861  -0.0013006  )
        39           Si  tau(  39) = (   0.6291095   0.1207997   0.1276452  )
        40           Si  tau(  40) = (   0.7547946  -0.0019317   0.2522284  )
        41           Si  tau(  41) = (   0.8811248   0.3754441   0.6338408  )
        42           Si  tau(  42) = (   0.5014298   0.2448208   0.7531284  )
        43           Si  tau(  43) = (   0.8825050   0.1241182   0.8875149  )
        44           Si  tau(  44) = (   0.5060934  -0.0035064   0.5011870  )
        45           Si  tau(  45) = (   0.6261203   0.3739253   0.8797515  )
        46           Si  tau(  46) = (   0.7602280   0.2462303   0.5075284  )
        47           Si  tau(  47) = (   0.6290261   0.1223892   0.6301087  )
        48           Si  tau(  48) = (   0.7574426  -0.0036380   0.7551733  )
        49           Si  tau(  49) = (   0.8844204   0.8692411   0.1302747  )
        50           Si  tau(  50) = (   0.5009325   0.7422333   0.2480235  )
        51           Si  tau(  51) = (   0.8796722   0.6234260   0.3759263  )
        52           Si  tau(  52) = (   0.5035792   0.4971891  -0.0023396  )
        53           Si  tau(  53) = (   0.6322442   0.8671595   0.3766342  )
        54           Si  tau(  54) = (   0.7604916   0.7435764  -0.0032097  )
        55           Si  tau(  55) = (   0.6302740   0.6228389   0.1248532  )
        56           Si  tau(  56) = (   0.7527305   0.4986992   0.2504388  )
        57           Si  tau(  57) = (   0.8789295   0.8673887   0.6325623  )
        58           Si  tau(  58) = (   0.5033935   0.7457131   0.7562524  )
        59           Si  tau(  59) = (   0.8849733   0.6214876   0.8812928  )
        60           Si  tau(  60) = (   0.5029678   0.4961015   0.5033975  )
        61           Si  tau(  61) = (   0.6265504   0.8707383   0.8809172  )
        62           Si  tau(  62) = (   0.7541645   0.7463453   0.5003528  )
        63           Si  tau(  63) = (   0.6276445   0.6212229   0.6263212  )
        64           Si  tau(  64) = (   0.7575978   0.4995426   0.7600075  )

     number of k points=     1
                       cart. coord. in units 2pi/alat
        k(    1) = (   0.0000000   0.0000000   0.0000000), wk =   2.0000000

     Dense  grid:    99969 G-vectors     FFT dimensions: (  75,  75,  75)

     Estimated max dynamical RAM per process >     292.43 MB

     Initial potential from superposition of free atoms

     starting charge     253.0416, renormalised to     256.0000
     Starting wfcs are random

     total cpu time spent up to now is        1.4 secs

     Self-consistent Calculation

     iteration #  1     ecut=    30.00 Ry     beta= 0.50
     Davidson diagonalization with overlap
     ethr =  1.00E-02,  avg # of iterations = 13.0

     Threshold (ethr) on eigenvalues was too large:
     Diagonalizing with lowered threshold

     Davidson diagonalization with overlap
     ethr =  6.41E-04,  avg # of iterations =  4.0

     total cpu time spent up to now is        1.9 secs

     total energy              =    -503.76989947 Ry
     estimated scf accuracy    <       1.78465710 Ry

     iteration #  2     ecut=    30.00 Ry     beta= 0.50
     Davidson diagonalization with overlap
     ethr =  6.97E-04,  avg # of iterations =  1.0

     total cpu time spent up to now is        2.0 secs

     total energy              =    -503.77088076 Ry
     estimated scf accuracy    <       0.33421860 Ry

     iteration #  3     ecut=    30.00 Ry     beta= 0.50
     Davidson diagonalization with overlap
     ethr =  1.31E-04,  avg # of iterations =  2.0

     total cpu time spent up to now is        2.1 secs

     total energy              =    -503.80014518 Ry
     estimated scf accuracy    <       0.00513640 Ry

     iteration #  4     ecut=    30.00 Ry     beta= 0.50
     Davidson diagonalization with overlap
     ethr =  2.01E-06,  avg # of iterations =  9.0

     total cpu time spent up to now is        2.4 secs

     total energy              =    -503.80860797 Ry
     estimated scf accuracy    <       0.00309263 Ry

     iteration #  5     ecut=    30.00 Ry     beta= 0.50
     Davidson diagonalization with overlap
     ethr =  1.21E-06,  avg # of iterations =  3.0

     total cpu time spent up to now is        2.5 secs

     total energy              =    -503.80933813 Ry
     estimated scf accuracy    <       0.00075134 Ry

     iteration #  6     ecut=    30.00 Ry     beta= 0.50
     Davidson diagonalization with overlap
     ethr =  2.93E-07,  avg # of iterations =  2.0

     total cpu time spent up to now is        2.7 secs

     total energy              =    -503.80935447 Ry
     estimated scf accuracy    <       0.00016416 Ry

     iteration #  7     ecut=    30.00 Ry     beta= 0.50
     Davidson diagonalization with overlap
     ethr =  6.41E-08,  avg # of iterations =  4.0

     total cpu time spent up to now is        2.9 secs

     total energy              =    -503.80940028 Ry
     estimated scf accuracy    <       0.00006426 Ry

     iteration #  8     ecut=    30.00 Ry     beta= 0.50
     Davidson diagonalization with overlap
     ethr =  2.51E-08,  avg # of iterations =  5.0

     total cpu time spent up to now is        3.0 secs

     total energy              =    -503.80941245 Ry
     estimated scf accuracy    <       0.00000209 Ry

     iteration #  9     ecut=    30.00 Ry     beta= 0.50
     Davidson diagonalization with overlap
     ethr =  8.16E-10,  avg # of iterations = 11.0

     total cpu time spent up to now is        3.3 secs

     total energy              =    -503.80941225 Ry
     estimated scf accuracy    <       0.00000839 Ry

     iteration # 10     ecut=    30.00 Ry     beta= 0.50
     Davidson diagonalization with overlap
     ethr =  8.16E-10,  avg # of iterations =  3.0

     total cpu time spent up to now is        3.4 secs

     End of self-consistent calculation

          k = 0.0000 0.0000 0.0000 ( 12515 PWs)   bands (ev):

    -5.8820  -4.9750  -4.8910  -4.8704  -4.8047  -4.7231  -4.7101  -4.1365
    -4.0593  -4.0154  -3.9732  -3.9418  -3.9008  -3.8886  -3.8404  -3.8029
    -3.7736  -3.7361  -3.7002  -3.6890  -3.6108  -3.5609  -3.3852  -2.0163
    -1.9810  -1.9367  -1.8733  -1.8375  -1.8073  -1.7911  -1.7839  -1.7755
    -1.7263  -1.7225  -1.6955  -1.6728  -1.6637  -1.6086  -1.5714  -1.5259
    -1.4672  -1.0508  -0.9543  -0.9180  -0.8224   0.3275   0.3431   0.3740
     0.3817   0.4108   0.4295   0.4330   0.4576   0.4850   0.4923   0.5038
     0.5537   1.9799   1.9887   2.0201   2.0306   2.0511   2.0709   2.0879
     2.0966   2.1173   2.1247   2.1500   2.1637   2.1752   2.1928   2.2043
     2.2264   2.2428   2.2510   2.2684   2.2871   2.3010   2.3309   2.3535
     2.3589   2.3657   2.3979   2.4623   2.4649   2.4865   2.5615   3.0329
     3.0458   3.1011   3.1159   3.1395   3.1560   3.8759   3.9018   3.9294
     3.9549   3.9845   4.0113   4.0810   4.0882   4.1108   4.1274   4.1438
     4.2251   4.2591   4.3451   4.4423   4.5120   4.5335   4.5648   4.5844
     4.5929   4.6063   4.6252   4.6569   4.6663   4.6900   4.7124   4.7232
     4.7424   4.7670   4.7910   4.8160   5.1105   5.7932   5.9237   5.9458

     highest occupied level (ev):     5.9458

!    total energy              =    -503.80941337 Ry
     estimated scf accuracy    <       0.00000017 Ry

     The total energy is the sum of the following terms:
     one-electron contribution =     141.03950084 Ry
     hartree contribution      =      37.76986249 Ry
     xc contribution           =    -153.15354957 Ry
     ewald contribution        =    -529.46522712 Ry

     convergence has been achieved in  10 iterations

     Forces acting on atoms (cartesian axes, Ry/au):

     atom    1 type  1   force =     0.00665865    0.01483420    0.01996078
     atom    2 type  1   force =     0.02884733   -0.01296773   -0.02441276
     atom    3 type  1   force =     0.01604786   -0.03113725   -0.01324270
     atom    4 type  1   force =     0.00624228   -0.03048638    0.01236348
     atom    5 type  1   force =     0.02036141    0.02090850   -0.00668946
     atom    6 type  1   force =    -0.00619426   -0.03972837    0.02236091
     atom    7 type  1   force =     0.01088508    0.02699752   -0.00269168
     atom    8 type  1   force =     0.02344818   -0.02834143    0.01478005
     atom    9 type  1   force =    -0.01064840   -0.02071220    0.01232912
     atom   10 type  1   force =     0.01659301    0.01661327    0.00614261
     atom   11 type  1   force =    -0.01306599    0.01635112   -0.01936374
     atom   12 type  1   force =     0.04565751   -0.03762489   -0.01009665
     atom   13 type  1   force =    -0.00608651    0.01663253   -0.02562281
     atom   14 type  1   force =    -0.01073744    0.00807295   -0.00013355
     atom   15 type  1   force =    -0.00624730   -0.02417071    0.00685802
     atom   16 type  1   force =     0.00168573   -0.04911867   -0.01352262
     atom   17 type  1   force =    -0.02673655    0.05658903   -0.01371960
     atom   18 type  1   force =     0.05772037    0.02852283    0.02105063
     atom   19 type  1   force =    -0.00094662    0.01057930    0.01950682
     atom   20 type  1   force =     0.05244064   -0.01423535    0.03656506
     atom   21 type  1   force =    -0.02937726    0.02165455   -0.00417092
     atom   22 type  1   force =     0.00961100    0.00934195    0.02819199
     atom   23 type  1   force =     0.00681331   -0.02666420   -0.00131689
     atom   24 type  1   force =    -0.02675150   -0.00682863   -0.01118597
     atom   25 type  1   force =     0.00124388    0.03631203    0.01794347
     atom   26 type  1   force =     0.03439581    0.02874657   -0.03328737
     atom   27 type  1   force =    -0.01747452   -0.01033456   -0.04930336
     atom   28 type  1   force =     0.02513110    0.01042372    0.00575388
     atom   29 type  1   force =     0.01492257    0.04519877   -0.02072681
     atom   30 type  1   force =     0.01208557    0.00751607   -0.02320379
     atom   31 type  1   force =    -0.00222559   -0.01151221    0.00056568
     atom   32 type  1   force =    -0.00273211    0.01167554    0.01903378
     atom   33 type  1   force =    -0.02378572    0.00744335    0.00773486
     atom   34 type  1   force =    -0.02173843    0.00222081   -0.01560497
     atom   35 type  1   force =    -0.04409358   -0.02999266    0.00116529
     atom   36 type  1   force =    -0.01467495   -0.05126667    0.01686785
     atom   37 type  1   force =     0.01605790    0.00333763    0.03106962
     atom   38 type  1   force =    -0.02472229    0.02364835    0.02796248
     atom   39 type  1   force =     0.01430737    0.00471010    0.00182718
     atom   40 type  1   force =     0.01701536   -0.02180535    0.01188906
     atom   41 type  1   force =    -0.01706440   -0.01377639   -0.00053511
     atom   42 type  1   force =     0.00535632    0.01008977    0.00629120
     atom   43 type  1   force =    -0.01300477   -0.02971653   -0.04540715
     atom   44 type  1   force =    -0.01172233   -0.02079878    0.00126288
     atom   45 type  1   force =     0.01704432   -0.02021178   -0.01920455
     atom   46 type  1   force =    -0.02467466    0.01780009   -0.00910005
     atom   47 type  1   force =     0.01192062   -0.01148143   -0.00651181
     atom   48 type  1   force =    -0.01319762   -0.01289453    0.01504180
     atom   49 type  1   force =    -0.03955079    0.03339664   -0.02295888
     atom   50 type  1   force =     0.02297787    0.00426356    0.02604549
     atom   51 type  1   force =    -0.02870181   -0.02508820    0.01095704
     atom   52 type  1   force =     0.00662597   -0.00157304    0.03888675
     atom   53 type  1   force =    -0.02432463    0.03610458   -0.01670729
     atom   54 type  1   force =    -0.02285055    0.02931515    0.03346520
     atom   55 type  1   force =     0.00061518   -0.00772219   -0.01449777
     atom   56 type  1   force =     0.00616978   -0.00859255   -0.00092939
     atom   57 type  1   force =    -0.01205878    0.02634053   -0.00805313
     atom   58 type  1   force =    -0.00636832    0.00377789   -0.00921644
     atom   59 type  1   force =    -0.04650427   -0.01119837   -0.01004259
     atom   60 type  1   force =     0.01535384    0.00314647   -0.02401314
     atom   61 type  1   force =     0.02706584    0.02104374   -0.01307501
     atom   62 type  1   force =     0.00565020   -0.00402100    0.01928114
     atom   63 type  1   force =     0.01347162    0.00077187    0.01753013
     atom   64 type  1   force =    -0.02216154   -0.00037890   -0.02213632

     Total force =     0.298918     Total SCF correction =     0.000731


     Computing stress (Cartesian axis) and pressure

          total   stress  (Ry/bohr**3)                   (kbar)     P=       -3.88
  -0.00001137  -0.00002359   0.00001219           -1.67       -3.47        1.79
  -0.00002359  -0.00004858  -0.00002675           -3.47       -7.15       -3.94
   0.00001219  -0.00002675  -0.00001908            1.79       -3.94       -2.81

 
     init_run     :      0.94s CPU      1.39s WALL (       1 calls)
     electrons    :      1.93s CPU      1.98s WALL (       1 calls)
     forces       :      0.06s CPU      0.07s WALL (       1 calls)
     stress       :      0.24s CPU      0.27s WALL (       1 calls)

     Called by init_run:
     wfcinit      :      0.57s CPU      0.89s WALL (       1 calls)
                                        0.89s GPU  (       1 calls)
     potinit      :      0.22s CPU      0.28s WALL (       1 calls)
     hinit0       :      0.12s CPU      0.13s WALL (       1 calls)

     Called by electrons:
     c_bands      :      1.23s CPU      1.25s WALL (      11 calls)
     sum_band     :      0.28s CPU      0.29s WALL (      11 calls)
     v_of_rho     :      0.18s CPU      0.24s WALL (      11 calls)
     mix_rho      :      0.22s CPU      0.24s WALL (      11 calls)

     Called by c_bands:
     init_us_2    :      0.04s CPU      0.04s WALL (      23 calls)
     init_us_2:gp :      0.04s CPU      0.04s WALL (      23 calls)
     regterg      :      1.13s CPU      1.14s WALL (      11 calls)

     Called by *egterg:
     rdiaghg      :      0.33s CPU      0.39s WALL (      67 calls)
                                        0.38s GPU  (      67 calls)
     h_psi        :      1.19s CPU      1.46s WALL (      69 calls)
                                        1.45s GPU  (      69 calls)
     g_psi        :      0.00s CPU      0.00s WALL (      57 calls)
                                        0.00s GPU  (      57 calls)

     Called by h_psi:
     h_psi:calbec :      0.43s CPU      0.72s WALL (      69 calls)
                                        0.72s GPU  (      69 calls)
     vloc_psi     :      0.66s CPU      0.67s WALL (      69 calls)
                                        0.66s GPU  (      69 calls)
     add_vuspsi   :      0.03s CPU      0.06s WALL (      69 calls)
                                        0.06s GPU  (      69 calls)

     General routines
     calbec       :      0.43s CPU      0.69s WALL (      74 calls)
     fft          :      0.18s CPU      0.19s WALL (      95 calls)
                                        0.04s GPU  (      59 calls)
     ffts         :      0.04s CPU      0.05s WALL (      11 calls)
     fftw         :      0.05s CPU      0.74s WALL (    1060 calls)
                                        0.64s GPU  (    1060 calls)
 
     Parallel routines
 
     PWSCF        :      3.19s CPU      3.77s WALL

 
   This run was terminated on:  22:49:37   8Jul2023            

=------------------------------------------------------------------------------=
   JOB DONE.
=------------------------------------------------------------------------------=
