An instance of this daemon is already running

     Program PWSCF v.7.1 starts on 10May2023 at 11:42:35 

     This program is part of the open-source Quantum ESPRESSO suite
     for quantum simulation of materials; please cite
         "P. Giannozzi et al., J. Phys.:Condens. Matter 21 395502 (2009);
         "P. Giannozzi et al., J. Phys.:Condens. Matter 29 465901 (2017);
         "P. Giannozzi et al., J. Chem. Phys. 152 154105 (2020);
          URL http://www.quantum-espresso.org", 
     in publications or presentations arising from this work. More details at
     http://www.quantum-espresso.org/quote

     Parallel version (MPI & OpenMP), running on       4 processor cores
     Number of MPI processes:                 4
     Threads/MPI process:                     1

     MPI processes distributed on     1 nodes
     707048 MiB available memory on the printing compute node when the environment starts
 
     Reading input from pw-si-76.in
Warning: card &CELL ignored
Warning: card / ignored

     Current dimensions of program PWSCF are:
     Max number of different atomic species (ntypx) = 10
     Max number of k-points (npk) =  40000
     Max angular momentum in pseudopotentials (lmaxx) =  4

     IMPORTANT: XC functional enforced from input :
     Exchange-correlation= PBE
                           (   1   4   3   4   0   0   0)
     Any further DFT definition will be discarded
     Please, verify this is what you really want


     gamma-point specific algorithms are used
 
     K-points division:     npool     =       2
     R & G space division:  proc/nbgrp/npool/nimage =       2
     Subspace diagonalization in iterative solution of the eigenvalue problem:
     a serial algorithm will be used

     Message from routine divide_et_impera:
     suboptimal parallelization: some nodes have no k-points
 
     Parallelization info
     --------------------
     sticks:   dense  smooth     PW     G-vecs:    dense   smooth      PW
     Min        1939    1939    513                96301    96301   13102
     Max        1940    1940    514                96312    96312   13103
     Sum        3879    3879   1027               192613   192613   26205
 
     Using Slab Decomposition
 


     bravais-lattice index     =            0
     lattice parameter (alat)  =      20.6196  a.u.
     unit-cell volume          =    8675.7374 (a.u.)^3
     number of atoms/cell      =           64
     number of atomic types    =            1
     number of electrons       =       256.00
     number of Kohn-Sham states=          154
     kinetic-energy cutoff     =      30.0000  Ry
     charge density cutoff     =     120.0000  Ry
     scf convergence threshold =      1.0E-06
     mixing beta               =       0.5000
     number of iterations used =            8  plain     mixing
     Exchange-correlation= PBE
                           (   1   4   3   4   0   0   0)

     GPU acceleration is ACTIVE.
     GPU-aware MPI enabled

     Message from routine print_cuda_info:
     High GPU oversubscription detected. Are you sure this is what you want?

     celldm(1)=  20.619609  celldm(2)=   0.000000  celldm(3)=   0.000000
     celldm(4)=   0.000000  celldm(5)=   0.000000  celldm(6)=   0.000000

     crystal axes: (cart. coord. in units of alat)
               a(1) = (   1.000000   0.000000   0.000000 )  
               a(2) = (   0.000000   0.958674   0.000000 )  
               a(3) = (   0.000000   0.000000   1.032272 )  

     reciprocal axes: (cart. coord. in units 2 pi/alat)
               b(1) = (  1.000000  0.000000  0.000000 )  
               b(2) = (  0.000000  1.043108  0.000000 )  
               b(3) = (  0.000000  0.000000  0.968736 )  


     PseudoPot. # 1 for Si read from file:
     /home/ppiaggi/pseudos/Si_ONCV_PBE_sr.upf
     MD5 check sum: 8553c464762ac42b85b1eed164b4d029
     Pseudo is Norm-conserving, Zval =  4.0
     Generated using ONCVPSP code by D. R. Hamann
     Using radial grid of 1510 points,  4 beta functions with: 
                l(1) =   0
                l(2) =   0
                l(3) =   1
                l(4) =   1

     atomic species   valence    mass     pseudopotential
        Si             4.00    28.08500     Si( 1.00)

     No symmetry found



   Cartesian axes

     site n.     atom                  positions (alat units)
         1           Si  tau(   1) = (  -0.0149665   0.0127491   0.0094302  )
         2           Si  tau(   2) = (  -0.0125259   0.2482362   0.2645695  )
         3           Si  tau(   3) = (   0.2573878   0.0007408   0.2724929  )
         4           Si  tau(   4) = (   0.2614841   0.2315206   0.0109649  )
         5           Si  tau(   5) = (   0.1316397   0.1177130   0.1113698  )
         6           Si  tau(   6) = (   0.4791928  -0.0062676   0.0129797  )
         7           Si  tau(   7) = (   0.4780410   0.2484694   0.2650362  )
         8           Si  tau(   8) = (   0.6145555   0.1131400   0.1396900  )
         9           Si  tau(   9) = (   0.7479001  -0.0026161   0.2731677  )
        10           Si  tau(  10) = (   0.7223014   0.2233178   0.0141694  )
        11           Si  tau(  11) = (   0.0071859   0.4677527  -0.0041006  )
        12           Si  tau(  12) = (   0.2471818   0.4623284   0.2686694  )
        13           Si  tau(  13) = (   0.1237596   0.6065785   0.1261308  )
        14           Si  tau(  14) = (   0.3631745   0.3726812   0.1267316  )
        15           Si  tau(  15) = (   0.4721378   0.4666425  -0.0130352  )
        16           Si  tau(  16) = (   0.6059816   0.5930988   0.1162483  )
        17           Si  tau(  17) = (   0.8687914   0.3523835   0.1191955  )
        18           Si  tau(  18) = (   0.7293129   0.4771021   0.2400747  )
        19           Si  tau(  19) = (   0.0043735   0.7239548   0.2701971  )
        20           Si  tau(  20) = (   0.2440082   0.7048972   0.0066030  )
        21           Si  tau(  21) = (   0.3761541   0.8333162   0.1377059  )
        22           Si  tau(  22) = (   0.4838853   0.7007482   0.2515470  )
        23           Si  tau(  23) = (   0.7263778   0.7122523   0.0126109  )
        24           Si  tau(  24) = (   0.8507991   0.8313516   0.1103627  )
        25           Si  tau(  25) = (   0.0114986   0.0063066   0.5331362  )
        26           Si  tau(  26) = (   0.2543466   0.2525606   0.5095781  )
        27           Si  tau(  27) = (   0.1045469   0.1027712   0.6447068  )
        28           Si  tau(  28) = (   0.3675375   0.1081170   0.4008526  )
        29           Si  tau(  29) = (   0.4826364   0.0109989   0.5014612  )
        30           Si  tau(  30) = (   0.6218602   0.1116612   0.6560762  )
        31           Si  tau(  31) = (   0.8687787   0.1145918   0.3913642  )
        32           Si  tau(  32) = (   0.7486441   0.2284994   0.4995229  )
        33           Si  tau(  33) = (   0.1130766   0.3709306   0.3793145  )
        34           Si  tau(  34) = (  -0.0047699   0.4791290   0.5070399  )
        35           Si  tau(  35) = (   0.1177134   0.5869290   0.6441438  )
        36           Si  tau(  36) = (   0.6002350   0.3519871   0.3805148  )
        37           Si  tau(  37) = (   0.3598236   0.6087690   0.3701906  )
        38           Si  tau(  38) = (   0.3696324   0.3685846   0.6422687  )
        39           Si  tau(  39) = (   0.4806524   0.4640183   0.5032613  )
        40           Si  tau(  40) = (   0.5993862   0.5940985   0.6550536  )
        41           Si  tau(  41) = (   0.8594410   0.6028538   0.3797866  )
        42           Si  tau(  42) = (   0.8517673   0.3431194   0.6296131  )
        43           Si  tau(  43) = (   0.1249550   0.8400019   0.3892746  )
        44           Si  tau(  44) = (   0.2591161   0.7102005   0.4991258  )
        45           Si  tau(  45) = (   0.6266812   0.8302129   0.3699342  )
        46           Si  tau(  46) = (   0.3482211   0.8242778   0.6517938  )
        47           Si  tau(  47) = (   0.7155418   0.7009598   0.5187254  )
        48           Si  tau(  48) = (   0.8481237   0.8514350   0.6571073  )
        49           Si  tau(  49) = (   0.0028119   0.2433069   0.7872016  )
        50           Si  tau(  50) = (   0.2580240  -0.0151713   0.7650697  )
        51           Si  tau(  51) = (   0.3582940   0.1060949   0.9085274  )
        52           Si  tau(  52) = (   0.4726104   0.2546512   0.7747792  )
        53           Si  tau(  53) = (   0.7160241   0.0048324   0.7718732  )
        54           Si  tau(  54) = (   0.8705072   0.1303684   0.9127525  )
        55           Si  tau(  55) = (   0.1369567   0.3488118   0.9141112  )
        56           Si  tau(  56) = (   0.2437604   0.4638634   0.7732571  )
        57           Si  tau(  57) = (   0.6163966   0.3735895   0.9153089  )
        58           Si  tau(  58) = (   0.3823209   0.6038256   0.8970456  )
        59           Si  tau(  59) = (   0.7229813   0.4771765   0.7560363  )
        60           Si  tau(  60) = (   0.8447573   0.5821203   0.9181049  )
        61           Si  tau(  61) = (  -0.0109708   0.7216175   0.7606405  )
        62           Si  tau(  62) = (   0.1372525   0.8407723   0.8836776  )
        63           Si  tau(  63) = (   0.4903054   0.7254229   0.7652423  )
        64           Si  tau(  64) = (   0.6071648   0.8327697   0.9130296  )

     number of k points=     1  Fermi-Dirac smearing, width (Ry)=  0.0100
                       cart. coord. in units 2pi/alat
        k(    1) = (   0.0000000   0.0000000   0.0000000), wk =   2.0000000

     Dense  grid:    96307 G-vectors     FFT dimensions: (  72,  72,  75)

     Estimated max dynamical RAM per process >     154.29 MB

     Estimated total dynamical RAM >     593.67 MB

     Initial potential from superposition of free atoms

     starting charge     255.9608, renormalised to     256.0000
     Starting wfcs are  256 randomized atomic wfcs

     total cpu time spent up to now is        5.2 secs

     Self-consistent Calculation

     iteration #  1     ecut=    30.00 Ry     beta= 0.50
     Davidson diagonalization with overlap
     ethr =  1.00E-02,  avg # of iterations =  3.0

     Threshold (ethr) on eigenvalues was too large:
     Diagonalizing with lowered threshold

     Davidson diagonalization with overlap
     ethr =  6.85E-04,  avg # of iterations =  4.0

     total cpu time spent up to now is        5.4 secs

     total energy              =    -502.52981285 Ry
     estimated scf accuracy    <       1.98409677 Ry

     iteration #  2     ecut=    30.00 Ry     beta= 0.50
     Davidson diagonalization with overlap
     ethr =  7.75E-04,  avg # of iterations =  2.0

     total cpu time spent up to now is        5.5 secs

     total energy              =    -502.45625498 Ry
     estimated scf accuracy    <       0.57291536 Ry

     iteration #  3     ecut=    30.00 Ry     beta= 0.50
     Davidson diagonalization with overlap
     ethr =  2.24E-04,  avg # of iterations = 11.0

     total cpu time spent up to now is        5.7 secs

     total energy              =    -502.26233777 Ry
     estimated scf accuracy    <       2.66508043 Ry

     iteration #  4     ecut=    30.00 Ry     beta= 0.50
     Davidson diagonalization with overlap
     ethr =  2.24E-04,  avg # of iterations =  8.0

     total cpu time spent up to now is        5.8 secs

     total energy              =    -502.60127274 Ry
     estimated scf accuracy    <       0.12563478 Ry

     iteration #  5     ecut=    30.00 Ry     beta= 0.50
     Davidson diagonalization with overlap
     ethr =  4.91E-05,  avg # of iterations = 17.0

     total cpu time spent up to now is        6.0 secs

     total energy              =    -502.61058201 Ry
     estimated scf accuracy    <       0.04536620 Ry

     iteration #  6     ecut=    30.00 Ry     beta= 0.50
     Davidson diagonalization with overlap
     ethr =  1.77E-05,  avg # of iterations =  5.0

     total cpu time spent up to now is        6.1 secs

     total energy              =    -502.61354435 Ry
     estimated scf accuracy    <       0.01853656 Ry

     iteration #  7     ecut=    30.00 Ry     beta= 0.50
     Davidson diagonalization with overlap
     ethr =  7.24E-06,  avg # of iterations = 12.0

     total cpu time spent up to now is        6.3 secs

     total energy              =    -502.61608291 Ry
     estimated scf accuracy    <       0.00088893 Ry

     iteration #  8     ecut=    30.00 Ry     beta= 0.50
     Davidson diagonalization with overlap
     ethr =  3.47E-07,  avg # of iterations =  9.0

     total cpu time spent up to now is        6.5 secs

     total energy              =    -502.61626247 Ry
     estimated scf accuracy    <       0.00070177 Ry

     iteration #  9     ecut=    30.00 Ry     beta= 0.50
     Davidson diagonalization with overlap
     ethr =  2.74E-07,  avg # of iterations =  3.0

     total cpu time spent up to now is        6.6 secs

     total energy              =    -502.61630219 Ry
     estimated scf accuracy    <       0.00032459 Ry

     iteration # 10     ecut=    30.00 Ry     beta= 0.50
     Davidson diagonalization with overlap
     ethr =  1.27E-07,  avg # of iterations =  2.0

     total cpu time spent up to now is        6.7 secs

     total energy              =    -502.61633854 Ry
     estimated scf accuracy    <       0.00003385 Ry

     iteration # 11     ecut=    30.00 Ry     beta= 0.50
     Davidson diagonalization with overlap
     ethr =  1.32E-08,  avg # of iterations =  4.0

     total cpu time spent up to now is        6.8 secs

     total energy              =    -502.61634491 Ry
     estimated scf accuracy    <       0.00000468 Ry

     iteration # 12     ecut=    30.00 Ry     beta= 0.50
     Davidson diagonalization with overlap
     ethr =  1.83E-09,  avg # of iterations =  4.0

     total cpu time spent up to now is        6.9 secs

     total energy              =    -502.61634592 Ry
     estimated scf accuracy    <       0.00000217 Ry

     iteration # 13     ecut=    30.00 Ry     beta= 0.50
     Davidson diagonalization with overlap
     ethr =  8.46E-10,  avg # of iterations =  3.0

     total cpu time spent up to now is        7.0 secs

     total energy              =    -502.61634606 Ry
     estimated scf accuracy    <       0.00000130 Ry

     iteration # 14     ecut=    30.00 Ry     beta= 0.50
     Davidson diagonalization with overlap
     ethr =  5.07E-10,  avg # of iterations =  2.0

     total cpu time spent up to now is        7.1 secs

     End of self-consistent calculation

          k = 0.0000 0.0000 0.0000 ( 12005 PWs)   bands (ev):

    -5.9878  -5.0699  -5.0541  -4.9534  -4.9151  -4.8547  -4.6515  -4.2247
    -4.1535  -4.0961  -4.0674  -4.0421  -3.9513  -3.8648  -3.7941  -3.7706
    -3.6782  -3.6082  -3.5675  -3.4766  -3.3921  -3.3459  -3.0736  -2.2141
    -2.1526  -2.0005  -1.9532  -1.8477  -1.7397  -1.6816  -1.6207  -1.5690
    -1.5303  -1.5025  -1.4459  -1.4135  -1.3298  -1.2702  -1.2274  -1.1583
    -1.0644  -0.7428  -0.7098  -0.6805  -0.6383   0.3432   0.4621   0.4922
     0.5333   0.5858   0.6636   0.6860   0.7753   0.7868   0.8790   0.9495
     1.0225   1.7343   1.8657   1.8822   1.9467   1.9860   2.0393   2.1102
     2.1315   2.1573   2.2130   2.2369   2.3047   2.3369   2.3556   2.3707
     2.4146   2.4527   2.4986   2.5049   2.5531   2.6144   2.6823   2.7258
     2.7486   2.8576   2.9036   2.9476   3.0195   3.0316   3.1117   3.1759
     3.2360   3.2678   3.4121   3.5327   3.6256   3.8708   3.9175   3.9462
     4.0199   4.1393   4.1564   4.2178   4.3014   4.3428   4.4075   4.4128
     4.4719   4.5643   4.5851   4.6451   4.6547   4.7489   4.8321   4.8906
     4.9085   4.9386   5.0132   5.1101   5.1565   5.1854   5.2301   5.3532
     5.4226   5.5033   5.6511   5.7058   5.8315   6.2515   6.3549   6.4168
     6.4371   6.5633   6.6655   6.6976   6.8674   6.8919   6.9610   7.1252
     7.2075   7.2349   7.2998   7.3712   7.4024   7.4669   7.4940   7.6221
     7.9371   8.0073   8.1329   8.1779   8.2166   8.3112   8.3317   8.4030
     8.4598   8.5234

     the Fermi energy is     6.4240 ev

!    total energy              =    -502.61634622 Ry
     estimated scf accuracy    <       0.00000008 Ry
     smearing contrib. (-TS)   =      -0.09146830 Ry
     internal energy E=F+TS    =    -502.52487792 Ry

     The total energy is F=E-TS. E is the sum of the following terms:
     one-electron contribution =     143.47239955 Ry
     hartree contribution      =      39.11521085 Ry
     xc contribution           =    -153.97901058 Ry
     ewald contribution        =    -531.13347774 Ry

     convergence has been achieved in  14 iterations

     Forces acting on atoms (cartesian axes, Ry/au):

     atom    1 type  1   force =     0.01387567   -0.06629167   -0.04974890
     atom    2 type  1   force =     0.01127977   -0.04955077   -0.04561465
     atom    3 type  1   force =    -0.06303619   -0.02976206   -0.09416988
     atom    4 type  1   force =    -0.01071473    0.03301111   -0.04647273
     atom    5 type  1   force =    -0.04250271   -0.02300967    0.13742282
     atom    6 type  1   force =     0.06670835    0.02989100   -0.04852654
     atom    7 type  1   force =    -0.02674136   -0.07831105   -0.06258480
     atom    8 type  1   force =    -0.06400247   -0.02864431    0.06213408
     atom    9 type  1   force =     0.01863563   -0.00262414   -0.10450835
     atom   10 type  1   force =     0.07365689    0.08163632   -0.07777120
     atom   11 type  1   force =    -0.04843531    0.04086786    0.01855120
     atom   12 type  1   force =     0.00018229    0.10776681   -0.06648100
     atom   13 type  1   force =    -0.06384519   -0.08750205    0.07555240
     atom   14 type  1   force =     0.00497091   -0.06756547    0.03267847
     atom   15 type  1   force =     0.05223554    0.06866466    0.02242554
     atom   16 type  1   force =    -0.06267627   -0.06136934    0.03134381
     atom   17 type  1   force =    -0.02052996    0.00404885    0.01812222
     atom   18 type  1   force =     0.03849119   -0.01596366    0.03691269
     atom   19 type  1   force =    -0.06865890   -0.01823610   -0.07299926
     atom   20 type  1   force =     0.06984808    0.09510865   -0.08513100
     atom   21 type  1   force =    -0.09044365   -0.02167858    0.01138383
     atom   22 type  1   force =     0.10867107    0.06978780   -0.03149833
     atom   23 type  1   force =     0.01202382   -0.00846927   -0.10318064
     atom   24 type  1   force =     0.09338823    0.07243672    0.11043744
     atom   25 type  1   force =    -0.23577647   -0.20945689   -0.23117346
     atom   26 type  1   force =    -0.07674392   -0.04281262    0.01097031
     atom   27 type  1   force =     0.23291663    0.23858996    0.22853432
     atom   28 type  1   force =    -0.10535593    0.19461325   -0.11238566
     atom   29 type  1   force =     0.18470008   -0.17844424    0.16919563
     atom   30 type  1   force =    -0.15132366    0.16145342   -0.16660642
     atom   31 type  1   force =     0.10066343   -0.02678442   -0.01628350
     atom   32 type  1   force =    -0.11928829    0.01051498    0.04124729
     atom   33 type  1   force =    -0.00511453   -0.08128446    0.05542535
     atom   34 type  1   force =    -0.07314632    0.01050160    0.03060277
     atom   35 type  1   force =     0.00940586    0.02734135   -0.01428281
     atom   36 type  1   force =     0.12026005    0.02510904    0.02094093
     atom   37 type  1   force =     0.03080130   -0.14706237    0.02214327
     atom   38 type  1   force =    -0.03650237   -0.02885233   -0.01299749
     atom   39 type  1   force =     0.01525259    0.10325401    0.00709680
     atom   40 type  1   force =    -0.03886431   -0.01276756   -0.09553948
     atom   41 type  1   force =    -0.00173120   -0.02210200    0.01558373
     atom   42 type  1   force =     0.07754383    0.07100976    0.06072226
     atom   43 type  1   force =     0.01419278    0.02490362    0.04452275
     atom   44 type  1   force =    -0.12081405    0.04269900    0.10842387
     atom   45 type  1   force =    -0.09996073   -0.03665572    0.07379443
     atom   46 type  1   force =     0.11463105   -0.04398734   -0.14590311
     atom   47 type  1   force =     0.07244940    0.05904243   -0.01209220
     atom   48 type  1   force =     0.03801655   -0.05062945   -0.06362781
     atom   49 type  1   force =    -0.03952583   -0.01989120   -0.05319168
     atom   50 type  1   force =    -0.07932037    0.15596872    0.03881268
     atom   51 type  1   force =     0.05005973    0.02776703   -0.03009780
     atom   52 type  1   force =     0.08377933   -0.07895177    0.05490528
     atom   53 type  1   force =     0.13667335   -0.09971638    0.18426779
     atom   54 type  1   force =    -0.05227484   -0.01138170   -0.02494021
     atom   55 type  1   force =    -0.00146739   -0.00381376   -0.01269873
     atom   56 type  1   force =    -0.00098006    0.08266401    0.02727772
     atom   57 type  1   force =     0.01943010   -0.08801883   -0.05258502
     atom   58 type  1   force =    -0.09396253   -0.01573400   -0.01529362
     atom   59 type  1   force =     0.08710719   -0.06012635    0.07513474
     atom   60 type  1   force =     0.05401821    0.00918305   -0.05724465
     atom   61 type  1   force =    -0.01142455   -0.01128851    0.04882066
     atom   62 type  1   force =    -0.10230940   -0.06466573    0.09611389
     atom   63 type  1   force =     0.00363947    0.01770919    0.05192146
     atom   64 type  1   force =    -0.00203492    0.02786157   -0.01779149

     Total force =     1.118674     Total SCF correction =     0.000400


     Computing stress (Cartesian axis) and pressure

          total   stress  (Ry/bohr**3)                   (kbar)     P=       51.97
   0.00035962   0.00003142  -0.00003392           52.90        4.62       -4.99
   0.00003142   0.00044124  -0.00000114            4.62       64.91       -0.17
  -0.00003392  -0.00000114   0.00025890           -4.99       -0.17       38.09

 
     init_run     :      1.22s CPU      5.09s WALL (       1 calls)
     electrons    :      1.81s CPU      1.93s WALL (       1 calls)
     forces       :      0.04s CPU      0.05s WALL (       1 calls)
     stress       :      0.15s CPU      0.17s WALL (       1 calls)

     Called by init_run:
     wfcinit      :      0.55s CPU      4.25s WALL (       1 calls)
                                        4.25s GPU  (       1 calls)
     potinit      :      0.21s CPU      0.30s WALL (       1 calls)
     hinit0       :      0.43s CPU      0.46s WALL (       1 calls)

     Called by electrons:
     c_bands      :      1.17s CPU      1.23s WALL (      15 calls)
     sum_band     :      0.33s CPU      0.36s WALL (      15 calls)
     v_of_rho     :      0.16s CPU      0.26s WALL (      15 calls)
     mix_rho      :      0.14s CPU      0.15s WALL (      15 calls)

     Called by c_bands:
     init_us_2    :      0.06s CPU      0.06s WALL (      31 calls)
     init_us_2:gp :      0.05s CPU      0.06s WALL (      31 calls)
     regterg      :      1.03s CPU      1.09s WALL (      15 calls)

     Called by *egterg:
     rdiaghg      :      0.48s CPU      1.24s WALL (     103 calls)
                                        1.22s GPU  (     103 calls)
     h_psi        :      0.92s CPU      3.90s WALL (     105 calls)
                                        3.90s GPU  (     105 calls)
     g_psi        :      0.00s CPU      0.00s WALL (      89 calls)
                                        0.00s GPU  (      89 calls)

     Called by h_psi:
     h_psi:calbec :      0.50s CPU      3.40s WALL (     105 calls)
                                        3.40s GPU  (     105 calls)
     vloc_psi     :      0.36s CPU      0.43s WALL (     105 calls)
                                        0.42s GPU  (     105 calls)
     add_vuspsi   :      0.04s CPU      0.06s WALL (     105 calls)
                                        0.06s GPU  (     105 calls)

     General routines
     calbec       :      0.50s CPU      3.41s WALL (     110 calls)
     fft          :      0.53s CPU      0.66s WALL (     127 calls)
                                        0.13s GPU  (      81 calls)
     ffts         :      0.04s CPU      0.05s WALL (      15 calls)
     fftw         :      0.42s CPU      0.55s WALL (    1663 calls)
                                        0.49s GPU  (    1663 calls)
 
     Parallel routines
 
     PWSCF        :      3.27s CPU      7.32s WALL

 
   This run was terminated on:  11:42:42  10May2023            

=------------------------------------------------------------------------------=
   JOB DONE.
=------------------------------------------------------------------------------=
