
     Program PWSCF v.7.0 starts on  8Jul2023 at 22:49: 3 

     This program is part of the open-source Quantum ESPRESSO suite
     for quantum simulation of materials; please cite
         "P. Giannozzi et al., J. Phys.:Condens. Matter 21 395502 (2009);
         "P. Giannozzi et al., J. Phys.:Condens. Matter 29 465901 (2017);
         "P. Giannozzi et al., J. Chem. Phys. 152 154105 (2020);
          URL http://www.quantum-espresso.org", 
     in publications or presentations arising from this work. More details at
     http://www.quantum-espresso.org/quote

     Parallel version (MPI & OpenMP), running on       1 processor cores
     Number of MPI processes:                 1
     Threads/MPI process:                     1

     MPI processes distributed on     1 nodes
     109180 MiB available memory on the printing compute node when the environment starts
 
     Reading input from pw-si-73.in
Warning: card &CELL ignored
Warning: card / ignored

     Current dimensions of program PWSCF are:
     Max number of different atomic species (ntypx) = 10
     Max number of k-points (npk) =  40000
     Max angular momentum in pseudopotentials (lmaxx) =  4

     IMPORTANT: XC functional enforced from input :
     Exchange-correlation= PBE
                           (   1   4   3   4   0   0   0)
     Any further DFT definition will be discarded
     Please, verify this is what you really want


     gamma-point specific algorithms are used

     Subspace diagonalization in iterative solution of the eigenvalue problem:
     a serial algorithm will be used

 
     G-vector sticks info
     --------------------
     sticks:   dense  smooth     PW     G-vecs:    dense   smooth      PW
     Sum        4051    4051   1007               195065   195065   24313
 
     Using Slab Decomposition
 


     bravais-lattice index     =            0
     lattice parameter (alat)  =      20.6535  a.u.
     unit-cell volume          =    8790.5466 (a.u.)^3
     number of atoms/cell      =           64
     number of atomic types    =            1
     number of electrons       =       256.00
     number of Kohn-Sham states=          128
     kinetic-energy cutoff     =      30.0000  Ry
     charge density cutoff     =     120.0000  Ry
     scf convergence threshold =      1.0E-06
     mixing beta               =       0.5000
     number of iterations used =            8  plain     mixing
     Exchange-correlation= PBE
                           (   1   4   3   4   0   0   0)

     GPU acceleration is ACTIVE.


     celldm(1)=  20.653543  celldm(2)=   0.000000  celldm(3)=   0.000000
     celldm(4)=   0.000000  celldm(5)=   0.000000  celldm(6)=   0.000000

     crystal axes: (cart. coord. in units of alat)
               a(1) = (   1.000000   0.000000   0.000000 )  
               a(2) = (   0.000000   0.998347   0.000000 )  
               a(3) = (   0.000000   0.000000   0.999426 )  

     reciprocal axes: (cart. coord. in units 2 pi/alat)
               b(1) = (  1.000000  0.000000  0.000000 )  
               b(2) = (  0.000000  1.001656  0.000000 )  
               b(3) = (  0.000000  0.000000  1.000575 )  


     PseudoPot. # 1 for Si read from file:
     ./Si_ONCV_PBE-1.0.upf
     MD5 check sum: 2de5a83d12544a9ea852f39b88f19b1f
     Pseudo is Norm-conserving, Zval =  4.0
     Generated using ONCVPSP code by D. R. Hamann
     Using radial grid of  602 points,  4 beta functions with: 
                l(1) =   0
                l(2) =   0
                l(3) =   1
                l(4) =   1

     atomic species   valence    mass     pseudopotential
        Si             4.00    28.08500     Si( 1.00)

     No symmetry found



   Cartesian axes

     site n.     atom                  positions (alat units)
         1           Si  tau(   1) = (   0.3754048   0.3726748   0.1233223  )
         2           Si  tau(   2) = (  -0.0007298   0.2518367   0.2511431  )
         3           Si  tau(   3) = (   0.3770376   0.1286901   0.3774663  )
         4           Si  tau(   4) = (  -0.0006057   0.0032412   0.0044914  )
         5           Si  tau(   5) = (   0.1267083   0.3731081   0.3836062  )
         6           Si  tau(   6) = (   0.2499051   0.2534367   0.0018078  )
         7           Si  tau(   7) = (   0.1233762   0.1222521   0.1273513  )
         8           Si  tau(   8) = (   0.2578603   0.0007445   0.2500301  )
         9           Si  tau(   9) = (   0.3822155   0.3726930   0.6303398  )
        10           Si  tau(  10) = (  -0.0011992   0.2487981   0.7619519  )
        11           Si  tau(  11) = (   0.3817018   0.1273751   0.8858649  )
        12           Si  tau(  12) = (   0.0022594   0.0042181   0.5096449  )
        13           Si  tau(  13) = (   0.1245942   0.3789364   0.8860008  )
        14           Si  tau(  14) = (   0.2489434   0.2521354   0.5064835  )
        15           Si  tau(  15) = (   0.1261583   0.1217977   0.6381856  )
        16           Si  tau(  16) = (   0.2497639  -0.0005070   0.7573739  )
        17           Si  tau(  17) = (   0.3807147   0.8769009   0.1261184  )
        18           Si  tau(  18) = (   0.0024146   0.7494326   0.2494089  )
        19           Si  tau(  19) = (   0.3788818   0.6248403   0.3839307  )
        20           Si  tau(  20) = (  -0.0009859   0.5011137  -0.0034512  )
        21           Si  tau(  21) = (   0.1261637   0.8794989   0.3821199  )
        22           Si  tau(  22) = (   0.2573141   0.7529976  -0.0031941  )
        23           Si  tau(  23) = (   0.1279720   0.6258637   0.1264740  )
        24           Si  tau(  24) = (   0.2551264   0.4995722   0.2572829  )
        25           Si  tau(  25) = (   0.3765239   0.8729016   0.6306049  )
        26           Si  tau(  26) = (  -0.0035074   0.7471423   0.7634061  )
        27           Si  tau(  27) = (   0.3774422   0.6238143   0.8883707  )
        28           Si  tau(  28) = (   0.0000414   0.4982347   0.5049892  )
        29           Si  tau(  29) = (   0.1256741   0.8738013   0.8846166  )
        30           Si  tau(  30) = (   0.2522143   0.7461121   0.5059467  )
        31           Si  tau(  31) = (   0.1245281   0.6248265   0.6321456  )
        32           Si  tau(  32) = (   0.2490035   0.5033832   0.7642180  )
        33           Si  tau(  33) = (   0.8900662   0.3771151   0.1272953  )
        34           Si  tau(  34) = (   0.5040270   0.2543803   0.2525435  )
        35           Si  tau(  35) = (   0.8847650   0.1261696   0.3791715  )
        36           Si  tau(  36) = (   0.5025855  -0.0030980  -0.0022940  )
        37           Si  tau(  37) = (   0.6317028   0.3718196   0.3831188  )
        38           Si  tau(  38) = (   0.7614753   0.2523436  -0.0030180  )
        39           Si  tau(  39) = (   0.6295304   0.1223278   0.1315281  )
        40           Si  tau(  40) = (   0.7628762   0.0019105   0.2517286  )
        41           Si  tau(  41) = (   0.8898901   0.3763907   0.6307128  )
        42           Si  tau(  42) = (   0.5056141   0.2539988   0.7597579  )
        43           Si  tau(  43) = (   0.8892312   0.1235181   0.8897648  )
        44           Si  tau(  44) = (   0.5103543   0.0044509   0.5066636  )
        45           Si  tau(  45) = (   0.6355389   0.3746929   0.8884215  )
        46           Si  tau(  46) = (   0.7633541   0.2466179   0.5038889  )
        47           Si  tau(  47) = (   0.6316694   0.1231763   0.6367744  )
        48           Si  tau(  48) = (   0.7582354   0.0002745   0.7587487  )
        49           Si  tau(  49) = (   0.8819859   0.8735960   0.1259494  )
        50           Si  tau(  50) = (   0.5107414   0.7503472   0.2499828  )
        51           Si  tau(  51) = (   0.8863097   0.6283238   0.3803354  )
        52           Si  tau(  52) = (   0.5056313   0.4973554   0.0014073  )
        53           Si  tau(  53) = (   0.6322233   0.8793973   0.3823789  )
        54           Si  tau(  54) = (   0.7625693   0.7485087  -0.0025837  )
        55           Si  tau(  55) = (   0.6356066   0.6213275   0.1246822  )
        56           Si  tau(  56) = (   0.7598920   0.5017017   0.2531275  )
        57           Si  tau(  57) = (   0.8878888   0.8752981   0.6369980  )
        58           Si  tau(  58) = (   0.5110033   0.7537025   0.7631196  )
        59           Si  tau(  59) = (   0.8909887   0.6269595   0.8889461  )
        60           Si  tau(  60) = (   0.5019473   0.4994444   0.5042246  )
        61           Si  tau(  61) = (   0.6374388   0.8749520   0.8860318  )
        62           Si  tau(  62) = (   0.7577301   0.7550318   0.5074148  )
        63           Si  tau(  63) = (   0.6322230   0.6262069   0.6352643  )
        64           Si  tau(  64) = (   0.7569306   0.4984154   0.7640449  )

     number of k points=     1
                       cart. coord. in units 2pi/alat
        k(    1) = (   0.0000000   0.0000000   0.0000000), wk =   2.0000000

     Dense  grid:    97533 G-vectors     FFT dimensions: (  75,  72,  72)

     Estimated max dynamical RAM per process >     283.89 MB

     Initial potential from superposition of free atoms

     starting charge     253.0416, renormalised to     256.0000
     Starting wfcs are random

     total cpu time spent up to now is        1.4 secs

     Self-consistent Calculation

     iteration #  1     ecut=    30.00 Ry     beta= 0.50
     Davidson diagonalization with overlap
     ethr =  1.00E-02,  avg # of iterations = 13.0

     Threshold (ethr) on eigenvalues was too large:
     Diagonalizing with lowered threshold

     Davidson diagonalization with overlap
     ethr =  6.15E-04,  avg # of iterations = 14.0

     total cpu time spent up to now is        1.9 secs

     total energy              =    -503.70118849 Ry
     estimated scf accuracy    <       1.85857527 Ry

     iteration #  2     ecut=    30.00 Ry     beta= 0.50
     Davidson diagonalization with overlap
     ethr =  7.26E-04,  avg # of iterations =  1.0

     total cpu time spent up to now is        2.0 secs

     total energy              =    -503.69985533 Ry
     estimated scf accuracy    <       0.34286844 Ry

     iteration #  3     ecut=    30.00 Ry     beta= 0.50
     Davidson diagonalization with overlap
     ethr =  1.34E-04,  avg # of iterations =  2.0

     total cpu time spent up to now is        2.1 secs

     total energy              =    -503.72922526 Ry
     estimated scf accuracy    <       0.00541315 Ry

     iteration #  4     ecut=    30.00 Ry     beta= 0.50
     Davidson diagonalization with overlap
     ethr =  2.11E-06,  avg # of iterations = 11.0

     total cpu time spent up to now is        2.3 secs

     total energy              =    -503.73696199 Ry
     estimated scf accuracy    <       0.00305343 Ry

     iteration #  5     ecut=    30.00 Ry     beta= 0.50
     Davidson diagonalization with overlap
     ethr =  1.19E-06,  avg # of iterations =  4.0

     total cpu time spent up to now is        2.4 secs

     total energy              =    -503.73766231 Ry
     estimated scf accuracy    <       0.00084154 Ry

     iteration #  6     ecut=    30.00 Ry     beta= 0.50
     Davidson diagonalization with overlap
     ethr =  3.29E-07,  avg # of iterations =  3.0

     total cpu time spent up to now is        2.6 secs

     total energy              =    -503.73769501 Ry
     estimated scf accuracy    <       0.00015421 Ry

     iteration #  7     ecut=    30.00 Ry     beta= 0.50
     Davidson diagonalization with overlap
     ethr =  6.02E-08,  avg # of iterations =  8.0

     total cpu time spent up to now is        2.7 secs

     total energy              =    -503.73774362 Ry
     estimated scf accuracy    <       0.00007002 Ry

     iteration #  8     ecut=    30.00 Ry     beta= 0.50
     Davidson diagonalization with overlap
     ethr =  2.74E-08,  avg # of iterations =  3.0

     total cpu time spent up to now is        2.9 secs

     total energy              =    -503.73775248 Ry
     estimated scf accuracy    <       0.00000404 Ry

     iteration #  9     ecut=    30.00 Ry     beta= 0.50
     Davidson diagonalization with overlap
     ethr =  1.58E-09,  avg # of iterations =  6.0

     total cpu time spent up to now is        3.1 secs

     total energy              =    -503.73775335 Ry
     estimated scf accuracy    <       0.00001436 Ry

     iteration # 10     ecut=    30.00 Ry     beta= 0.50
     Davidson diagonalization with overlap
     ethr =  1.58E-09,  avg # of iterations =  3.0

     total cpu time spent up to now is        3.2 secs

     End of self-consistent calculation

          k = 0.0000 0.0000 0.0000 ( 12157 PWs)   bands (ev):

    -5.8420  -4.8811  -4.8077  -4.7915  -4.7416  -4.6423  -4.6243  -4.0723
    -3.9378  -3.9222  -3.8328  -3.7968  -3.7700  -3.7493  -3.7284  -3.7054
    -3.6402  -3.5907  -3.5538  -3.4821  -3.3845  -3.3523  -3.3134  -1.9892
    -1.9007  -1.8281  -1.7343  -1.6639  -1.6342  -1.6048  -1.5772  -1.5492
    -1.5063  -1.4862  -1.4748  -1.4625  -1.4413  -1.4026  -1.3776  -1.3570
    -1.3147  -0.9362  -0.8611  -0.7871  -0.6365   0.5013   0.5229   0.5404
     0.5839   0.5939   0.6033   0.6261   0.6734   0.6915   0.7132   0.7369
     0.7719   2.0549   2.0638   2.0691   2.1389   2.1468   2.1728   2.2414
     2.2532   2.2815   2.2969   2.3335   2.3403   2.3607   2.3850   2.4114
     2.4299   2.4529   2.4711   2.4906   2.5017   2.5057   2.5279   2.5422
     2.5651   2.6055   2.6214   2.6409   2.6584   2.6798   2.7195   3.1677
     3.1961   3.2627   3.2952   3.3192   3.3655   4.0401   4.1088   4.1749
     4.1926   4.2108   4.2338   4.2397   4.2626   4.2943   4.3318   4.3488
     4.3759   4.4006   4.4368   4.6828   4.7441   4.7950   4.8095   4.8319
     4.8489   4.8545   4.8811   4.9024   4.9291   4.9501   4.9743   4.9803
     5.0094   5.0473   5.0998   5.1109   5.1417   5.9831   6.1490   6.2750

     highest occupied level (ev):     6.2750

!    total energy              =    -503.73775490 Ry
     estimated scf accuracy    <       0.00000041 Ry

     The total energy is the sum of the following terms:
     one-electron contribution =     145.85803755 Ry
     hartree contribution      =      37.56549018 Ry
     xc contribution           =    -153.96192558 Ry
     ewald contribution        =    -533.19935705 Ry

     convergence has been achieved in  10 iterations

     Forces acting on atoms (cartesian axes, Ry/au):

     atom    1 type  1   force =     0.01582413    0.02071266    0.02863858
     atom    2 type  1   force =     0.05107808   -0.01351546    0.02356891
     atom    3 type  1   force =     0.01439699    0.00064379    0.01257331
     atom    4 type  1   force =     0.05456218   -0.05142507    0.03755049
     atom    5 type  1   force =    -0.00540743    0.01347043   -0.02716588
     atom    6 type  1   force =    -0.00573970   -0.03016835    0.02143347
     atom    7 type  1   force =     0.02764767    0.02228850    0.01203869
     atom    8 type  1   force =    -0.02436239    0.00535569    0.01996256
     atom    9 type  1   force =    -0.03220696    0.02198432    0.01531608
     atom   10 type  1   force =     0.04718871    0.00884752   -0.01241530
     atom   11 type  1   force =    -0.02729845    0.00290639   -0.04459314
     atom   12 type  1   force =     0.02155157   -0.00711536   -0.00534529
     atom   13 type  1   force =     0.00686167   -0.02164149   -0.04435330
     atom   14 type  1   force =     0.01577963   -0.02844753    0.01816102
     atom   15 type  1   force =     0.00154913    0.03510019   -0.01826448
     atom   16 type  1   force =     0.02828361   -0.00368957    0.01380995
     atom   17 type  1   force =     0.00511986   -0.02469971   -0.00040156
     atom   18 type  1   force =     0.03064440    0.01530774    0.02131431
     atom   19 type  1   force =     0.01258686    0.00799302   -0.03482653
     atom   20 type  1   force =     0.06651682   -0.01560545    0.08825456
     atom   21 type  1   force =     0.01471917   -0.02051363   -0.01753709
     atom   22 type  1   force =    -0.02134998   -0.00276943    0.06529920
     atom   23 type  1   force =     0.01692009   -0.00693030   -0.00587847
     atom   24 type  1   force =    -0.01021017   -0.00157198   -0.01151146
     atom   25 type  1   force =     0.02450041    0.00670574    0.00585881
     atom   26 type  1   force =     0.06900715    0.01972301   -0.03474116
     atom   27 type  1   force =     0.03283498    0.00550975   -0.05329216
     atom   28 type  1   force =     0.04168440    0.02264842   -0.00599585
     atom   29 type  1   force =    -0.00494845    0.00967233   -0.02740592
     atom   30 type  1   force =    -0.01042142    0.02067036    0.00212622
     atom   31 type  1   force =    -0.00047248   -0.00282514    0.00917730
     atom   32 type  1   force =     0.02291967   -0.01488478   -0.03745340
     atom   33 type  1   force =    -0.06472889    0.00828724   -0.01089356
     atom   34 type  1   force =     0.00013648   -0.01483778    0.00248918
     atom   35 type  1   force =    -0.01434880   -0.00769769   -0.00851338
     atom   36 type  1   force =     0.02824063    0.01794758    0.04897340
     atom   37 type  1   force =     0.00689119    0.01873207   -0.01570599
     atom   38 type  1   force =    -0.00316186   -0.02624061    0.08056017
     atom   39 type  1   force =     0.00590119    0.01845978   -0.02794424
     atom   40 type  1   force =    -0.02448133   -0.00782682    0.01698887
     atom   41 type  1   force =    -0.06665529   -0.01773745    0.02180522
     atom   42 type  1   force =     0.01402768   -0.01407841   -0.00008248
     atom   43 type  1   force =    -0.07524443    0.02275741   -0.07137588
     atom   44 type  1   force =    -0.04381697   -0.00452347   -0.00058964
     atom   45 type  1   force =    -0.02588389    0.00473007   -0.04978023
     atom   46 type  1   force =    -0.02729722    0.01263058    0.02867604
     atom   47 type  1   force =     0.01104511    0.02586778   -0.01133231
     atom   48 type  1   force =     0.01663874    0.00736283    0.01178090
     atom   49 type  1   force =    -0.01797305   -0.00163950    0.00536891
     atom   50 type  1   force =    -0.01323186   -0.00131299    0.02063144
     atom   51 type  1   force =    -0.04120426   -0.00103640   -0.00198150
     atom   52 type  1   force =    -0.00533579    0.00420229    0.03598695
     atom   53 type  1   force =     0.01161318   -0.01003355   -0.02320833
     atom   54 type  1   force =    -0.02112774   -0.00038760    0.05560997
     atom   55 type  1   force =    -0.00680714    0.01303162    0.00146545
     atom   56 type  1   force =     0.00068859   -0.01565594    0.01712404
     atom   57 type  1   force =    -0.04655935    0.00101289   -0.01789784
     atom   58 type  1   force =    -0.03174193   -0.01731674   -0.01674951
     atom   59 type  1   force =    -0.08956464   -0.00913411   -0.06315511
     atom   60 type  1   force =     0.03046097    0.00270038    0.02048622
     atom   61 type  1   force =    -0.01247834    0.00461428   -0.03280405
     atom   62 type  1   force =     0.00601863   -0.01541585    0.00630145
     atom   63 type  1   force =    -0.00273283   -0.00724684   -0.00976507
     atom   64 type  1   force =     0.02295346    0.01604835   -0.02637157

     Total force =     0.379016     Total SCF correction =     0.001239


     Computing stress (Cartesian axis) and pressure

          total   stress  (Ry/bohr**3)                   (kbar)     P=       19.34
   0.00011889  -0.00007964   0.00001618           17.49      -11.72        2.38
  -0.00007964   0.00015448  -0.00005617          -11.72       22.72       -8.26
   0.00001618  -0.00005617   0.00012094            2.38       -8.26       17.79

 
     init_run     :      0.98s CPU      1.40s WALL (       1 calls)
     electrons    :      1.68s CPU      1.75s WALL (       1 calls)
     forces       :      0.06s CPU      0.06s WALL (       1 calls)
     stress       :      0.23s CPU      0.23s WALL (       1 calls)

     Called by init_run:
     wfcinit      :      0.61s CPU      0.90s WALL (       1 calls)
                                        0.90s GPU  (       1 calls)
     potinit      :      0.22s CPU      0.28s WALL (       1 calls)
     hinit0       :      0.12s CPU      0.12s WALL (       1 calls)

     Called by electrons:
     c_bands      :      1.08s CPU      1.10s WALL (      11 calls)
     sum_band     :      0.23s CPU      0.24s WALL (      11 calls)
     v_of_rho     :      0.15s CPU      0.23s WALL (      11 calls)
     mix_rho      :      0.20s CPU      0.22s WALL (      11 calls)

     Called by c_bands:
     init_us_2    :      0.04s CPU      0.04s WALL (      23 calls)
     init_us_2:gp :      0.04s CPU      0.04s WALL (      23 calls)
     regterg      :      0.97s CPU      0.99s WALL (      11 calls)

     Called by *egterg:
     rdiaghg      :      0.35s CPU      0.41s WALL (      78 calls)
                                        0.40s GPU  (      78 calls)
     h_psi        :      1.04s CPU      1.27s WALL (      80 calls)
                                        1.27s GPU  (      80 calls)
     g_psi        :      0.00s CPU      0.00s WALL (      68 calls)
                                        0.00s GPU  (      68 calls)

     Called by h_psi:
     h_psi:calbec :      0.48s CPU      0.73s WALL (      80 calls)
                                        0.73s GPU  (      80 calls)
     vloc_psi     :      0.45s CPU      0.45s WALL (      80 calls)
                                        0.45s GPU  (      80 calls)
     add_vuspsi   :      0.04s CPU      0.07s WALL (      80 calls)
                                        0.07s GPU  (      80 calls)

     General routines
     calbec       :      0.48s CPU      0.70s WALL (      85 calls)
     fft          :      0.15s CPU      0.17s WALL (      95 calls)
                                        0.03s GPU  (      59 calls)
     ffts         :      0.04s CPU      0.04s WALL (      11 calls)
     fftw         :      0.03s CPU      0.50s WALL (    1088 calls)
                                        0.41s GPU  (    1088 calls)
 
     Parallel routines
 
     PWSCF        :      2.97s CPU      3.49s WALL

 
   This run was terminated on:  22:49: 7   8Jul2023            

=------------------------------------------------------------------------------=
   JOB DONE.
=------------------------------------------------------------------------------=
