
     Program PWSCF v.7.0 starts on  8Jul2023 at 22:42:42 

     This program is part of the open-source Quantum ESPRESSO suite
     for quantum simulation of materials; please cite
         "P. Giannozzi et al., J. Phys.:Condens. Matter 21 395502 (2009);
         "P. Giannozzi et al., J. Phys.:Condens. Matter 29 465901 (2017);
         "P. Giannozzi et al., J. Chem. Phys. 152 154105 (2020);
          URL http://www.quantum-espresso.org", 
     in publications or presentations arising from this work. More details at
     http://www.quantum-espresso.org/quote

     Parallel version (MPI & OpenMP), running on       1 processor cores
     Number of MPI processes:                 1
     Threads/MPI process:                     1

     MPI processes distributed on     1 nodes
     107786 MiB available memory on the printing compute node when the environment starts
 
     Reading input from pw-si-23.in
Warning: card &CELL ignored
Warning: card / ignored

     Current dimensions of program PWSCF are:
     Max number of different atomic species (ntypx) = 10
     Max number of k-points (npk) =  40000
     Max angular momentum in pseudopotentials (lmaxx) =  4

     IMPORTANT: XC functional enforced from input :
     Exchange-correlation= PBE
                           (   1   4   3   4   0   0   0)
     Any further DFT definition will be discarded
     Please, verify this is what you really want


     gamma-point specific algorithms are used

     Subspace diagonalization in iterative solution of the eigenvalue problem:
     a serial algorithm will be used

 
     G-vector sticks info
     --------------------
     sticks:   dense  smooth     PW     G-vecs:    dense   smooth      PW
     Sum        4055    4055   1007               192393   192393   24001
 
     Using Slab Decomposition
 


     bravais-lattice index     =            0
     lattice parameter (alat)  =      20.6787  a.u.
     unit-cell volume          =    8670.4371 (a.u.)^3
     number of atoms/cell      =           64
     number of atomic types    =            1
     number of electrons       =       256.00
     number of Kohn-Sham states=          128
     kinetic-energy cutoff     =      30.0000  Ry
     charge density cutoff     =     120.0000  Ry
     scf convergence threshold =      1.0E-06
     mixing beta               =       0.5000
     number of iterations used =            8  plain     mixing
     Exchange-correlation= PBE
                           (   1   4   3   4   0   0   0)

     GPU acceleration is ACTIVE.


     celldm(1)=  20.678675  celldm(2)=   0.000000  celldm(3)=   0.000000
     celldm(4)=   0.000000  celldm(5)=   0.000000  celldm(6)=   0.000000

     crystal axes: (cart. coord. in units of alat)
               a(1) = (   1.000000   0.000000   0.000000 )  
               a(2) = (   0.000000   0.997475   0.000000 )  
               a(3) = (   0.000000   0.000000   0.983039 )  

     reciprocal axes: (cart. coord. in units 2 pi/alat)
               b(1) = (  1.000000  0.000000  0.000000 )  
               b(2) = (  0.000000  1.002532  0.000000 )  
               b(3) = (  0.000000  0.000000  1.017253 )  


     PseudoPot. # 1 for Si read from file:
     ./Si_ONCV_PBE-1.0.upf
     MD5 check sum: 2de5a83d12544a9ea852f39b88f19b1f
     Pseudo is Norm-conserving, Zval =  4.0
     Generated using ONCVPSP code by D. R. Hamann
     Using radial grid of  602 points,  4 beta functions with: 
                l(1) =   0
                l(2) =   0
                l(3) =   1
                l(4) =   1

     atomic species   valence    mass     pseudopotential
        Si             4.00    28.08500     Si( 1.00)

     No symmetry found



   Cartesian axes

     site n.     atom                  positions (alat units)
         1           Si  tau(   1) = (   0.3795040   0.3802624   0.1250174  )
         2           Si  tau(   2) = (   0.0029341   0.2569390   0.2476548  )
         3           Si  tau(   3) = (   0.3713951   0.1246360   0.3642639  )
         4           Si  tau(   4) = (   0.0040441   0.0041156  -0.0001587  )
         5           Si  tau(   5) = (   0.1259142   0.3788481   0.3696320  )
         6           Si  tau(   6) = (   0.2533902   0.2555709   0.0032005  )
         7           Si  tau(   7) = (   0.1255864   0.1227468   0.1245407  )
         8           Si  tau(   8) = (   0.2458715   0.0027570   0.2471668  )
         9           Si  tau(   9) = (   0.3771851   0.3789556   0.6065946  )
        10           Si  tau(  10) = (  -0.0041203   0.2566247   0.7323706  )
        11           Si  tau(  11) = (   0.3787951   0.1308881   0.8549636  )
        12           Si  tau(  12) = (  -0.0028900   0.0010293   0.4892293  )
        13           Si  tau(  13) = (   0.1243217   0.3851156   0.8590777  )
        14           Si  tau(  14) = (   0.2530547   0.2509444   0.4922331  )
        15           Si  tau(  15) = (   0.1287562   0.1267879   0.6069917  )
        16           Si  tau(  16) = (   0.2488569  -0.0042351   0.7287189  )
        17           Si  tau(  17) = (   0.3759689   0.8841798   0.1234609  )
        18           Si  tau(  18) = (   0.0006199   0.7647466   0.2450547  )
        19           Si  tau(  19) = (   0.3744847   0.6352094   0.3642804  )
        20           Si  tau(  20) = (  -0.0017224   0.5114959   0.0017343  )
        21           Si  tau(  21) = (   0.1265007   0.8914922   0.3641203  )
        22           Si  tau(  22) = (   0.2528186   0.7661680   0.0014283  )
        23           Si  tau(  23) = (   0.1251827   0.6358583   0.1213435  )
        24           Si  tau(  24) = (   0.2515195   0.5092719   0.2477299  )
        25           Si  tau(  25) = (   0.3762242   0.8880778   0.6090884  )
        26           Si  tau(  26) = (   0.0042805   0.7580538   0.7361354  )
        27           Si  tau(  27) = (   0.3736625   0.6383081   0.8572498  )
        28           Si  tau(  28) = (  -0.0033245   0.5041723   0.4885186  )
        29           Si  tau(  29) = (   0.1295318   0.8852412   0.8566793  )
        30           Si  tau(  30) = (   0.2486713   0.7572942   0.4920306  )
        31           Si  tau(  31) = (   0.1265248   0.6327339   0.6142385  )
        32           Si  tau(  32) = (   0.2519572   0.5071047   0.7318528  )
        33           Si  tau(  33) = (   0.8716461   0.3795899   0.1217100  )
        34           Si  tau(  34) = (   0.5030880   0.2519356   0.2428939  )
        35           Si  tau(  35) = (   0.8730407   0.1235840   0.3631671  )
        36           Si  tau(  36) = (   0.5037439  -0.0015270  -0.0035203  )
        37           Si  tau(  37) = (   0.6237438   0.3791819   0.3696236  )
        38           Si  tau(  38) = (   0.7491338   0.2540073  -0.0033555  )
        39           Si  tau(  39) = (   0.6229744   0.1263454   0.1189370  )
        40           Si  tau(  40) = (   0.7512594  -0.0014753   0.2426475  )
        41           Si  tau(  41) = (   0.8720682   0.3815620   0.6073790  )
        42           Si  tau(  42) = (   0.4988350   0.2565480   0.7337738  )
        43           Si  tau(  43) = (   0.8746560   0.1302569   0.8557730  )
        44           Si  tau(  44) = (   0.4967714   0.0012524   0.4921742  )
        45           Si  tau(  45) = (   0.6293752   0.3794680   0.8574075  )
        46           Si  tau(  46) = (   0.7515657   0.2507408   0.4922456  )
        47           Si  tau(  47) = (   0.6269994   0.1265624   0.6136551  )
        48           Si  tau(  48) = (   0.7485794  -0.0045671   0.7304390  )
        49           Si  tau(  49) = (   0.8715998   0.8871620   0.1183065  )
        50           Si  tau(  50) = (   0.4978316   0.7611300   0.2477244  )
        51           Si  tau(  51) = (   0.8770024   0.6365851   0.3644072  )
        52           Si  tau(  52) = (   0.4996737   0.5044125   0.0025425  )
        53           Si  tau(  53) = (   0.6282187   0.8845684   0.3708558  )
        54           Si  tau(  54) = (   0.7517119   0.7627549   0.0001798  )
        55           Si  tau(  55) = (   0.6245253   0.6382925   0.1246904  )
        56           Si  tau(  56) = (   0.7485001   0.5112740   0.2442906  )
        57           Si  tau(  57) = (   0.8723733   0.8879099   0.6100913  )
        58           Si  tau(  58) = (   0.4974044   0.7614612   0.7371167  )
        59           Si  tau(  59) = (   0.8712253   0.6315666   0.8560573  )
        60           Si  tau(  60) = (   0.4976706   0.5105344   0.4917189  )
        61           Si  tau(  61) = (   0.6211010   0.8905170   0.8577466  )
        62           Si  tau(  62) = (   0.7481892   0.7583999   0.4879239  )
        63           Si  tau(  63) = (   0.6284920   0.6332786   0.6141553  )
        64           Si  tau(  64) = (   0.7473901   0.5051667   0.7292791  )

     number of k points=     1
                       cart. coord. in units 2pi/alat
        k(    1) = (   0.0000000   0.0000000   0.0000000), wk =   2.0000000

     Dense  grid:    96197 G-vectors     FFT dimensions: (  75,  72,  72)

     Estimated max dynamical RAM per process >     280.39 MB

     Initial potential from superposition of free atoms

     starting charge     253.0416, renormalised to     256.0000
     Starting wfcs are random

     total cpu time spent up to now is        2.8 secs

     Self-consistent Calculation

     iteration #  1     ecut=    30.00 Ry     beta= 0.50
     Davidson diagonalization with overlap
     ethr =  1.00E-02,  avg # of iterations = 11.0

     Threshold (ethr) on eigenvalues was too large:
     Diagonalizing with lowered threshold

     Davidson diagonalization with overlap
     ethr =  6.05E-04,  avg # of iterations = 13.0

     total cpu time spent up to now is        3.6 secs

     total energy              =    -503.72067548 Ry
     estimated scf accuracy    <       1.91505682 Ry

     iteration #  2     ecut=    30.00 Ry     beta= 0.50
     Davidson diagonalization with overlap
     ethr =  7.48E-04,  avg # of iterations =  1.0

     total cpu time spent up to now is        3.8 secs

     total energy              =    -503.71479214 Ry
     estimated scf accuracy    <       0.34684930 Ry

     iteration #  3     ecut=    30.00 Ry     beta= 0.50
     Davidson diagonalization with overlap
     ethr =  1.35E-04,  avg # of iterations =  2.0

     total cpu time spent up to now is        4.1 secs

     total energy              =    -503.73932305 Ry
     estimated scf accuracy    <       0.00570998 Ry

     iteration #  4     ecut=    30.00 Ry     beta= 0.50
     Davidson diagonalization with overlap
     ethr =  2.23E-06,  avg # of iterations = 12.0

     total cpu time spent up to now is        4.5 secs

     total energy              =    -503.74556068 Ry
     estimated scf accuracy    <       0.00355739 Ry

     iteration #  5     ecut=    30.00 Ry     beta= 0.50
     Davidson diagonalization with overlap
     ethr =  1.39E-06,  avg # of iterations =  3.0

     total cpu time spent up to now is        4.8 secs

     total energy              =    -503.74636416 Ry
     estimated scf accuracy    <       0.00125888 Ry

     iteration #  6     ecut=    30.00 Ry     beta= 0.50
     Davidson diagonalization with overlap
     ethr =  4.92E-07,  avg # of iterations =  7.0

     total cpu time spent up to now is        5.1 secs

     total energy              =    -503.74642451 Ry
     estimated scf accuracy    <       0.00021691 Ry

     iteration #  7     ecut=    30.00 Ry     beta= 0.50
     Davidson diagonalization with overlap
     ethr =  8.47E-08,  avg # of iterations =  4.0

     total cpu time spent up to now is        5.4 secs

     total energy              =    -503.74648250 Ry
     estimated scf accuracy    <       0.00006174 Ry

     iteration #  8     ecut=    30.00 Ry     beta= 0.50
     Davidson diagonalization with overlap
     ethr =  2.41E-08,  avg # of iterations =  4.0

     total cpu time spent up to now is        5.7 secs

     total energy              =    -503.74649562 Ry
     estimated scf accuracy    <       0.00000276 Ry

     iteration #  9     ecut=    30.00 Ry     beta= 0.50
     Davidson diagonalization with overlap
     ethr =  1.08E-09,  avg # of iterations = 11.0

     total cpu time spent up to now is        6.1 secs

     total energy              =    -503.74649494 Ry
     estimated scf accuracy    <       0.00001014 Ry

     iteration # 10     ecut=    30.00 Ry     beta= 0.50
     Davidson diagonalization with overlap
     ethr =  1.08E-09,  avg # of iterations =  3.0

     total cpu time spent up to now is        6.3 secs

     End of self-consistent calculation

          k = 0.0000 0.0000 0.0000 ( 12001 PWs)   bands (ev):

    -5.7689  -4.7774  -4.7368  -4.6988  -4.6740  -4.6054  -4.5483  -3.9630
    -3.8711  -3.7969  -3.7861  -3.7289  -3.6771  -3.6414  -3.6139  -3.5975
    -3.5843  -3.5524  -3.5200  -3.4014  -3.3517  -3.2627  -3.2477  -1.8420
    -1.7955  -1.6895  -1.5969  -1.5742  -1.5436  -1.5017  -1.4842  -1.4494
    -1.4232  -1.3951  -1.3700  -1.3490  -1.3310  -1.3163  -1.2712  -1.2651
    -1.2305  -0.8283  -0.7533  -0.7181  -0.5808   0.6233   0.6648   0.6740
     0.7080   0.7206   0.7319   0.7686   0.7729   0.7958   0.8307   0.8577
     0.8748   2.1433   2.1956   2.2226   2.2408   2.2794   2.3344   2.3488
     2.3514   2.3699   2.3805   2.3952   2.4186   2.4330   2.4534   2.4843
     2.5070   2.5334   2.5430   2.5580   2.5752   2.6107   2.6276   2.6564
     2.6711   2.6864   2.7254   2.7435   2.7693   2.8608   2.8761   3.2764
     3.3074   3.3434   3.4222   3.4634   3.4745   4.1859   4.2454   4.2630
     4.2981   4.3452   4.3529   4.3613   4.3704   4.3916   4.4385   4.4612
     4.5055   4.5180   4.7280   4.7974   4.8368   4.8891   4.9128   4.9262
     4.9553   4.9832   5.0018   5.0050   5.0244   5.0758   5.0944   5.1026
     5.1394   5.1839   5.2024   5.2523   5.2831   6.1463   6.2754   6.4002

     highest occupied level (ev):     6.4002

!    total energy              =    -503.74649633 Ry
     estimated scf accuracy    <       0.00000022 Ry

     The total energy is the sum of the following terms:
     one-electron contribution =     149.63797527 Ry
     hartree contribution      =      36.96685067 Ry
     xc contribution           =    -154.42023924 Ry
     ewald contribution        =    -535.93108302 Ry

     convergence has been achieved in  10 iterations

     Forces acting on atoms (cartesian axes, Ry/au):

     atom    1 type  1   force =    -0.02029795    0.00237527    0.00626177
     atom    2 type  1   force =    -0.01963586   -0.02161058   -0.02088303
     atom    3 type  1   force =     0.02571062    0.02154246    0.00956222
     atom    4 type  1   force =    -0.02096410    0.02912194   -0.02641204
     atom    5 type  1   force =     0.01319172    0.01141233    0.00717177
     atom    6 type  1   force =    -0.01355343   -0.00780285   -0.01899114
     atom    7 type  1   force =     0.00072722    0.05276324   -0.00657519
     atom    8 type  1   force =     0.04616459    0.03628166   -0.04063084
     atom    9 type  1   force =    -0.00757714    0.01262537    0.02721521
     atom   10 type  1   force =     0.03163264    0.00194785   -0.00060654
     atom   11 type  1   force =    -0.02822409   -0.02117017    0.01168432
     atom   12 type  1   force =     0.01490859    0.05504344   -0.01339891
     atom   13 type  1   force =     0.00078747   -0.01367807    0.00506244
     atom   14 type  1   force =    -0.00337544    0.01155879   -0.02939667
     atom   15 type  1   force =    -0.03720067    0.00266082    0.03055326
     atom   16 type  1   force =     0.01237110    0.08670980    0.02178315
     atom   17 type  1   force =     0.00293951   -0.00798365    0.00880693
     atom   18 type  1   force =     0.00109879   -0.00668146   -0.01673038
     atom   19 type  1   force =    -0.00369262   -0.00212689    0.02935675
     atom   20 type  1   force =    -0.00600233   -0.01680230   -0.01345827
     atom   21 type  1   force =    -0.02777784   -0.08653754    0.04949782
     atom   22 type  1   force =    -0.01239611   -0.03704041   -0.01354808
     atom   23 type  1   force =     0.00546052    0.00672569    0.01036103
     atom   24 type  1   force =    -0.01122978   -0.01788307   -0.02117858
     atom   25 type  1   force =    -0.01244602   -0.08810987    0.01543688
     atom   26 type  1   force =    -0.02869056    0.00510603   -0.00071046
     atom   27 type  1   force =     0.00124936   -0.03049663    0.01861723
     atom   28 type  1   force =     0.01881583    0.02530993   -0.00139129
     atom   29 type  1   force =    -0.02279782   -0.03561731    0.01908547
     atom   30 type  1   force =     0.00492976    0.01609811   -0.02285104
     atom   31 type  1   force =    -0.01754550   -0.01636960   -0.01445128
     atom   32 type  1   force =     0.00449964   -0.00673952    0.01345554
     atom   33 type  1   force =     0.01486538    0.01172932    0.00666951
     atom   34 type  1   force =    -0.01113427   -0.00076329    0.01605993
     atom   35 type  1   force =     0.01279299    0.02874509    0.01213442
     atom   36 type  1   force =    -0.05055939    0.07786452    0.02458471
     atom   37 type  1   force =     0.00903228    0.01074936    0.00100449
     atom   38 type  1   force =     0.00676510   -0.00994290    0.00704348
     atom   39 type  1   force =     0.01944202    0.00039466    0.00433351
     atom   40 type  1   force =    -0.02801259    0.05576790    0.00015869
     atom   41 type  1   force =     0.00660949   -0.00913049    0.01543460
     atom   42 type  1   force =     0.02639510    0.00003143   -0.00210344
     atom   43 type  1   force =    -0.00070712   -0.01954634   -0.00027377
     atom   44 type  1   force =     0.03696324    0.06363614   -0.03429981
     atom   45 type  1   force =    -0.03041969    0.01287726    0.00116105
     atom   46 type  1   force =    -0.01096613   -0.00060271   -0.02670114
     atom   47 type  1   force =    -0.02115815    0.00818129   -0.00023579
     atom   48 type  1   force =    -0.00154990    0.08076811    0.03567770
     atom   49 type  1   force =     0.04267756   -0.04223671    0.00078857
     atom   50 type  1   force =     0.02045069    0.00257709   -0.00416023
     atom   51 type  1   force =    -0.00371004   -0.01097593    0.00665114
     atom   52 type  1   force =     0.01500152    0.02776384   -0.02633920
     atom   53 type  1   force =    -0.02998716   -0.02553138   -0.01161531
     atom   54 type  1   force =    -0.02721679   -0.01805839   -0.02842856
     atom   55 type  1   force =    -0.00705712   -0.01124467   -0.01409518
     atom   56 type  1   force =     0.00131198   -0.01973214    0.00578017
     atom   57 type  1   force =     0.02800286   -0.08742951    0.00108195
     atom   58 type  1   force =     0.01871594   -0.00164596   -0.01553838
     atom   59 type  1   force =     0.01088206    0.00820470    0.00295711
     atom   60 type  1   force =     0.01642689   -0.00401302   -0.01846193
     atom   61 type  1   force =     0.03961466   -0.08967478   -0.01470528
     atom   62 type  1   force =     0.02393951   -0.01120076    0.01347881
     atom   63 type  1   force =    -0.03622156    0.01479088   -0.00595459
     atom   64 type  1   force =     0.01773056   -0.00298541    0.02521473

     Total force =     0.361096     Total SCF correction =     0.000813


     Computing stress (Cartesian axis) and pressure

          total   stress  (Ry/bohr**3)                   (kbar)     P=       32.09
   0.00018860   0.00003521  -0.00006968           27.74        5.18      -10.25
   0.00003521   0.00017510  -0.00001046            5.18       25.76       -1.54
  -0.00006968  -0.00001046   0.00029078          -10.25       -1.54       42.78

 
     init_run     :      0.91s CPU      2.79s WALL (       1 calls)
     electrons    :      1.71s CPU      3.50s WALL (       1 calls)
     forces       :      0.07s CPU      0.13s WALL (       1 calls)
     stress       :      0.25s CPU      0.51s WALL (       1 calls)

     Called by init_run:
     wfcinit      :      0.55s CPU      1.80s WALL (       1 calls)
                                        1.80s GPU  (       1 calls)
     potinit      :      0.20s CPU      0.55s WALL (       1 calls)
     hinit0       :      0.11s CPU      0.24s WALL (       1 calls)

     Called by electrons:
     c_bands      :      1.07s CPU      2.18s WALL (      11 calls)
     sum_band     :      0.24s CPU      0.47s WALL (      11 calls)
     v_of_rho     :      0.16s CPU      0.46s WALL (      11 calls)
     mix_rho      :      0.22s CPU      0.45s WALL (      11 calls)

     Called by c_bands:
     init_us_2    :      0.04s CPU      0.08s WALL (      23 calls)
     init_us_2:gp :      0.04s CPU      0.08s WALL (      23 calls)
     regterg      :      0.95s CPU      1.93s WALL (      11 calls)

     Called by *egterg:
     rdiaghg      :      0.34s CPU      0.79s WALL (      81 calls)
                                        0.78s GPU  (      81 calls)
     h_psi        :      0.97s CPU      2.56s WALL (      83 calls)
                                        2.55s GPU  (      83 calls)
     g_psi        :      0.00s CPU      0.03s WALL (      71 calls)
                                        0.00s GPU  (      71 calls)

     Called by h_psi:
     h_psi:calbec :      0.43s CPU      1.45s WALL (      83 calls)
                                        1.44s GPU  (      83 calls)
     vloc_psi     :      0.43s CPU      0.93s WALL (      83 calls)
                                        0.93s GPU  (      83 calls)
     add_vuspsi   :      0.04s CPU      0.15s WALL (      83 calls)
                                        0.10s GPU  (      83 calls)

     General routines
     calbec       :      0.43s CPU      1.41s WALL (      88 calls)
     fft          :      0.15s CPU      0.36s WALL (      95 calls)
                                        0.06s GPU  (      59 calls)
     ffts         :      0.04s CPU      0.10s WALL (      11 calls)
     fftw         :      0.03s CPU      1.00s WALL (    1090 calls)
                                        0.44s GPU  (    1090 calls)
 
     Parallel routines
 
     PWSCF        :      2.96s CPU      7.02s WALL

 
   This run was terminated on:  22:42:49   8Jul2023            

=------------------------------------------------------------------------------=
   JOB DONE.
=------------------------------------------------------------------------------=
