
     Program PWSCF v.7.0 starts on  8Jul2023 at 22:50:14 

     This program is part of the open-source Quantum ESPRESSO suite
     for quantum simulation of materials; please cite
         "P. Giannozzi et al., J. Phys.:Condens. Matter 21 395502 (2009);
         "P. Giannozzi et al., J. Phys.:Condens. Matter 29 465901 (2017);
         "P. Giannozzi et al., J. Chem. Phys. 152 154105 (2020);
          URL http://www.quantum-espresso.org", 
     in publications or presentations arising from this work. More details at
     http://www.quantum-espresso.org/quote

     Parallel version (MPI & OpenMP), running on       1 processor cores
     Number of MPI processes:                 1
     Threads/MPI process:                     1

     MPI processes distributed on     1 nodes
     109176 MiB available memory on the printing compute node when the environment starts
 
     Reading input from pw-si-89.in
Warning: card &CELL ignored
Warning: card / ignored

     Current dimensions of program PWSCF are:
     Max number of different atomic species (ntypx) = 10
     Max number of k-points (npk) =  40000
     Max angular momentum in pseudopotentials (lmaxx) =  4

     IMPORTANT: XC functional enforced from input :
     Exchange-correlation= PBE
                           (   1   4   3   4   0   0   0)
     Any further DFT definition will be discarded
     Please, verify this is what you really want


     gamma-point specific algorithms are used

     Subspace diagonalization in iterative solution of the eigenvalue problem:
     a serial algorithm will be used

 
     G-vector sticks info
     --------------------
     sticks:   dense  smooth     PW     G-vecs:    dense   smooth      PW
     Sum        4221    4221   1053               204625   204625   25561
 
     Using Slab Decomposition
 


     bravais-lattice index     =            0
     lattice parameter (alat)  =      20.9975  a.u.
     unit-cell volume          =    9217.3757 (a.u.)^3
     number of atoms/cell      =           64
     number of atomic types    =            1
     number of electrons       =       256.00
     number of Kohn-Sham states=          128
     kinetic-energy cutoff     =      30.0000  Ry
     charge density cutoff     =     120.0000  Ry
     scf convergence threshold =      1.0E-06
     mixing beta               =       0.5000
     number of iterations used =            8  plain     mixing
     Exchange-correlation= PBE
                           (   1   4   3   4   0   0   0)

     GPU acceleration is ACTIVE.


     celldm(1)=  20.997472  celldm(2)=   0.000000  celldm(3)=   0.000000
     celldm(4)=   0.000000  celldm(5)=   0.000000  celldm(6)=   0.000000

     crystal axes: (cart. coord. in units of alat)
               a(1) = (   1.000000   0.000000   0.000000 )  
               a(2) = (   0.000000   1.005023   0.000000 )  
               a(3) = (   0.000000   0.000000   0.990673 )  

     reciprocal axes: (cart. coord. in units 2 pi/alat)
               b(1) = (  1.000000  0.000000  0.000000 )  
               b(2) = (  0.000000  0.995002  0.000000 )  
               b(3) = (  0.000000  0.000000  1.009415 )  


     PseudoPot. # 1 for Si read from file:
     ./Si_ONCV_PBE-1.0.upf
     MD5 check sum: 2de5a83d12544a9ea852f39b88f19b1f
     Pseudo is Norm-conserving, Zval =  4.0
     Generated using ONCVPSP code by D. R. Hamann
     Using radial grid of  602 points,  4 beta functions with: 
                l(1) =   0
                l(2) =   0
                l(3) =   1
                l(4) =   1

     atomic species   valence    mass     pseudopotential
        Si             4.00    28.08500     Si( 1.00)

     No symmetry found



   Cartesian axes

     site n.     atom                  positions (alat units)
         1           Si  tau(   1) = (   0.3773807   0.3827753   0.1275512  )
         2           Si  tau(   2) = (  -0.0036452   0.2495849   0.2482134  )
         3           Si  tau(   3) = (   0.3840146   0.1219963   0.3792744  )
         4           Si  tau(   4) = (  -0.0005229  -0.0000047  -0.0011421  )
         5           Si  tau(   5) = (   0.1266564   0.3770691   0.3722554  )
         6           Si  tau(   6) = (   0.2520465   0.2554011   0.0037745  )
         7           Si  tau(   7) = (   0.1284897   0.1277052   0.1254373  )
         8           Si  tau(   8) = (   0.2498459  -0.0024467   0.2539921  )
         9           Si  tau(   9) = (   0.3801527   0.3760351   0.6206364  )
        10           Si  tau(  10) = (  -0.0036593   0.2490466   0.7456588  )
        11           Si  tau(  11) = (   0.3790992   0.1253610   0.8722394  )
        12           Si  tau(  12) = (   0.0005897  -0.0021837   0.4990197  )
        13           Si  tau(  13) = (   0.1253031   0.3830719   0.8734382  )
        14           Si  tau(  14) = (   0.2537730   0.2508487   0.4972536  )
        15           Si  tau(  15) = (   0.1256028   0.1280151   0.6225381  )
        16           Si  tau(  16) = (   0.2561485   0.0040954   0.7462055  )
        17           Si  tau(  17) = (   0.3817022   0.8860481   0.1282040  )
        18           Si  tau(  18) = (  -0.0040237   0.7590208   0.2469838  )
        19           Si  tau(  19) = (   0.3843093   0.6316971   0.3724568  )
        20           Si  tau(  20) = (   0.0003028   0.5034448  -0.0042171  )
        21           Si  tau(  21) = (   0.1246746   0.8814331   0.3713243  )
        22           Si  tau(  22) = (   0.2522160   0.7584244   0.0006840  )
        23           Si  tau(  23) = (   0.1253057   0.6309608   0.1236481  )
        24           Si  tau(  24) = (   0.2559878   0.5026806   0.2489703  )
        25           Si  tau(  25) = (   0.3817427   0.8834733   0.6219849  )
        26           Si  tau(  26) = (  -0.0021369   0.7587837   0.7457490  )
        27           Si  tau(  27) = (   0.3841636   0.6283366   0.8717260  )
        28           Si  tau(  28) = (   0.0025748   0.5052078   0.5017398  )
        29           Si  tau(  29) = (   0.1257499   0.8835140   0.8726815  )
        30           Si  tau(  30) = (   0.2516523   0.7615303   0.4974602  )
        31           Si  tau(  31) = (   0.1303427   0.6330756   0.6220725  )
        32           Si  tau(  32) = (   0.2583532   0.5054927   0.7495416  )
        33           Si  tau(  33) = (   0.8867674   0.3750889   0.1269281  )
        34           Si  tau(  34) = (   0.5088749   0.2555238   0.2520202  )
        35           Si  tau(  35) = (   0.8951781   0.1266257   0.3704297  )
        36           Si  tau(  36) = (   0.5072414  -0.0011671   0.0037341  )
        37           Si  tau(  37) = (   0.6353661   0.3802220   0.3761136  )
        38           Si  tau(  38) = (   0.7677783   0.2555317   0.0034392  )
        39           Si  tau(  39) = (   0.6361074   0.1304993   0.1281947  )
        40           Si  tau(  40) = (   0.7648851   0.0007341   0.2537488  )
        41           Si  tau(  41) = (   0.8888333   0.3777345   0.6271878  )
        42           Si  tau(  42) = (   0.5131528   0.2525708   0.7463064  )
        43           Si  tau(  43) = (   0.8892818   0.1290854   0.8768840  )
        44           Si  tau(  44) = (   0.5133067  -0.0030586   0.5025242  )
        45           Si  tau(  45) = (   0.6342427   0.3742374   0.8775799  )
        46           Si  tau(  46) = (   0.7597258   0.2532212   0.4975022  )
        47           Si  tau(  47) = (   0.6399117   0.1255348   0.6250072  )
        48           Si  tau(  48) = (   0.7671778   0.0010193   0.7460431  )
        49           Si  tau(  49) = (   0.8925053   0.8793505   0.1204881  )
        50           Si  tau(  50) = (   0.5107602   0.7577465   0.2538200  )
        51           Si  tau(  51) = (   0.8877130   0.6331875   0.3705120  )
        52           Si  tau(  52) = (   0.5099529   0.5087754  -0.0020998  )
        53           Si  tau(  53) = (   0.6316058   0.8791452   0.3752535  )
        54           Si  tau(  54) = (   0.7642912   0.7599368   0.0018803  )
        55           Si  tau(  55) = (   0.6385268   0.6312630   0.1292439  )
        56           Si  tau(  56) = (   0.7651472   0.5070678   0.2537160  )
        57           Si  tau(  57) = (   0.8881364   0.8814246   0.6219577  )
        58           Si  tau(  58) = (   0.5057205   0.7543426   0.7487867  )
        59           Si  tau(  59) = (   0.8874182   0.6344468   0.8750452  )
        60           Si  tau(  60) = (   0.5131528   0.5055588   0.5009016  )
        61           Si  tau(  61) = (   0.6342808   0.8844194   0.8707554  )
        62           Si  tau(  62) = (   0.7604656   0.7558903   0.4999075  )
        63           Si  tau(  63) = (   0.6354069   0.6283227   0.6245557  )
        64           Si  tau(  64) = (   0.7635874   0.5050280   0.7488449  )

     number of k points=     1
                       cart. coord. in units 2pi/alat
        k(    1) = (   0.0000000   0.0000000   0.0000000), wk =   2.0000000

     Dense  grid:   102313 G-vectors     FFT dimensions: (  75,  75,  75)

     Estimated max dynamical RAM per process >     298.55 MB

     Initial potential from superposition of free atoms

     starting charge     253.0416, renormalised to     256.0000
     Starting wfcs are random

     total cpu time spent up to now is        1.4 secs

     Self-consistent Calculation

     iteration #  1     ecut=    30.00 Ry     beta= 0.50
     Davidson diagonalization with overlap
     ethr =  1.00E-02,  avg # of iterations = 15.0

     Threshold (ethr) on eigenvalues was too large:
     Diagonalizing with lowered threshold

     Davidson diagonalization with overlap
     ethr =  6.12E-04,  avg # of iterations =  5.0

     total cpu time spent up to now is        1.9 secs

     total energy              =    -503.72639075 Ry
     estimated scf accuracy    <       1.71545678 Ry

     iteration #  2     ecut=    30.00 Ry     beta= 0.50
     Davidson diagonalization with overlap
     ethr =  6.70E-04,  avg # of iterations =  1.0

     total cpu time spent up to now is        2.0 secs

     total energy              =    -503.72448987 Ry
     estimated scf accuracy    <       0.32539179 Ry

     iteration #  3     ecut=    30.00 Ry     beta= 0.50
     Davidson diagonalization with overlap
     ethr =  1.27E-04,  avg # of iterations =  2.0

     total cpu time spent up to now is        2.2 secs

     total energy              =    -503.74825269 Ry
     estimated scf accuracy    <       0.00465154 Ry

     iteration #  4     ecut=    30.00 Ry     beta= 0.50
     Davidson diagonalization with overlap
     ethr =  1.82E-06,  avg # of iterations = 13.0

     total cpu time spent up to now is        2.4 secs

     total energy              =    -503.75763829 Ry
     estimated scf accuracy    <       0.00237968 Ry

     iteration #  5     ecut=    30.00 Ry     beta= 0.50
     Davidson diagonalization with overlap
     ethr =  9.30E-07,  avg # of iterations =  3.0

     total cpu time spent up to now is        2.6 secs

     total energy              =    -503.75813320 Ry
     estimated scf accuracy    <       0.00063172 Ry

     iteration #  6     ecut=    30.00 Ry     beta= 0.50
     Davidson diagonalization with overlap
     ethr =  2.47E-07,  avg # of iterations =  3.0

     total cpu time spent up to now is        2.7 secs

     total energy              =    -503.75816431 Ry
     estimated scf accuracy    <       0.00011006 Ry

     iteration #  7     ecut=    30.00 Ry     beta= 0.50
     Davidson diagonalization with overlap
     ethr =  4.30E-08,  avg # of iterations =  7.0

     total cpu time spent up to now is        2.9 secs

     total energy              =    -503.75819418 Ry
     estimated scf accuracy    <       0.00007556 Ry

     iteration #  8     ecut=    30.00 Ry     beta= 0.50
     Davidson diagonalization with overlap
     ethr =  2.95E-08,  avg # of iterations =  3.0

     total cpu time spent up to now is        3.1 secs

     total energy              =    -503.75820623 Ry
     estimated scf accuracy    <       0.00000265 Ry

     iteration #  9     ecut=    30.00 Ry     beta= 0.50
     Davidson diagonalization with overlap
     ethr =  1.04E-09,  avg # of iterations =  7.0

     total cpu time spent up to now is        3.3 secs

     total energy              =    -503.75820619 Ry
     estimated scf accuracy    <       0.00001509 Ry

     iteration # 10     ecut=    30.00 Ry     beta= 0.50
     Davidson diagonalization with overlap
     ethr =  1.04E-09,  avg # of iterations =  3.0

     total cpu time spent up to now is        3.5 secs

     End of self-consistent calculation

          k = 0.0000 0.0000 0.0000 ( 12781 PWs)   bands (ev):

    -5.9927  -5.0501  -5.0222  -4.9675  -4.9520  -4.8936  -4.7957  -4.3238
    -4.1671  -4.1157  -4.0937  -4.0840  -4.0412  -4.0254  -3.9658  -3.8991
    -3.8901  -3.8649  -3.8098  -3.7255  -3.6837  -3.6662  -3.6192  -2.3040
    -2.2563  -2.1004  -2.0088  -1.9714  -1.9605  -1.9566  -1.9093  -1.8913
    -1.8699  -1.8678  -1.8459  -1.8114  -1.7881  -1.7774  -1.7312  -1.7254
    -1.6951  -1.1478  -1.1250  -1.0844  -0.9456   0.0916   0.1619   0.1821
     0.1976   0.2196   0.2240   0.2278   0.2548   0.2752   0.3037   0.3172
     0.3808   1.7356   1.7537   1.7663   1.7829   1.8530   1.9116   1.9529
     1.9600   1.9861   2.0061   2.0197   2.0324   2.0445   2.0699   2.0720
     2.0922   2.1161   2.1269   2.1490   2.1689   2.1809   2.1893   2.2087
     2.2235   2.2281   2.2463   2.2572   2.2690   2.2895   2.3171   2.7810
     2.8575   2.8942   2.9410   2.9981   3.0007   3.7053   3.7215   3.7401
     3.7730   3.8060   3.8351   3.8446   3.8581   3.8738   3.9224   3.9318
     3.9830   3.9914   4.1307   4.2783   4.3044   4.3353   4.3713   4.3910
     4.4133   4.4371   4.4440   4.4845   4.4948   4.5086   4.5323   4.5508
     4.5664   4.6080   4.6310   4.6484   4.7000   5.5779   5.6378   5.7498

     highest occupied level (ev):     5.7498

!    total energy              =    -503.75820783 Ry
     estimated scf accuracy    <       0.00000042 Ry

     The total energy is the sum of the following terms:
     one-electron contribution =     134.95819618 Ry
     hartree contribution      =      38.71665037 Ry
     xc contribution           =    -152.39644066 Ry
     ewald contribution        =    -525.03661372 Ry

     convergence has been achieved in  10 iterations

     Forces acting on atoms (cartesian axes, Ry/au):

     atom    1 type  1   force =     0.03089985   -0.01395156   -0.01722338
     atom    2 type  1   force =     0.08439511    0.02037007   -0.01161669
     atom    3 type  1   force =    -0.00373588    0.00764132   -0.01103764
     atom    4 type  1   force =     0.06758550    0.01608265    0.02770896
     atom    5 type  1   force =     0.00173026    0.00174948    0.00423094
     atom    6 type  1   force =     0.00788042   -0.00079462    0.00083196
     atom    7 type  1   force =    -0.00589333   -0.01093710    0.00448921
     atom    8 type  1   force =     0.02520595    0.03134263   -0.01352351
     atom    9 type  1   force =     0.01479185    0.01035891    0.00893101
     atom   10 type  1   force =     0.06938149    0.01326250    0.01805091
     atom   11 type  1   force =     0.01668178    0.01806442   -0.00662727
     atom   12 type  1   force =     0.05220562    0.02330067   -0.00956290
     atom   13 type  1   force =     0.01775209   -0.03008182   -0.03935767
     atom   14 type  1   force =    -0.00109794   -0.00003205   -0.00146028
     atom   15 type  1   force =     0.00994679   -0.01004116   -0.00178385
     atom   16 type  1   force =    -0.01495412   -0.00603451    0.00229432
     atom   17 type  1   force =    -0.00911181   -0.02998720    0.00400332
     atom   18 type  1   force =     0.07262073   -0.02076822    0.00478562
     atom   19 type  1   force =    -0.01137965   -0.00479065    0.01933499
     atom   20 type  1   force =     0.02875399    0.00551113    0.05396981
     atom   21 type  1   force =    -0.00674361   -0.01266921    0.01299997
     atom   22 type  1   force =     0.01703545   -0.00844036    0.01748776
     atom   23 type  1   force =     0.00887228   -0.00644481    0.00643904
     atom   24 type  1   force =    -0.01909327    0.02473716    0.01142019
     atom   25 type  1   force =    -0.00402709   -0.01111288    0.00949200
     atom   26 type  1   force =     0.06247652   -0.01611981    0.01091136
     atom   27 type  1   force =    -0.01963633    0.02302869   -0.00756347
     atom   28 type  1   force =     0.03668788    0.00188317   -0.01699239
     atom   29 type  1   force =     0.01410672   -0.00412601   -0.03676255
     atom   30 type  1   force =     0.01819771   -0.01813898   -0.00866339
     atom   31 type  1   force =    -0.00044530   -0.00250757    0.01237081
     atom   32 type  1   force =    -0.01213346   -0.00734504   -0.01440997
     atom   33 type  1   force =    -0.02624209    0.04235556   -0.00379954
     atom   34 type  1   force =    -0.01399196   -0.00458116   -0.00125060
     atom   35 type  1   force =    -0.08163901   -0.01683715    0.04328049
     atom   36 type  1   force =     0.00632156    0.03173769    0.00745960
     atom   37 type  1   force =     0.00316410    0.00265963   -0.00440216
     atom   38 type  1   force =    -0.04159476   -0.01782918    0.01589694
     atom   39 type  1   force =     0.00542183   -0.01294402   -0.00215932
     atom   40 type  1   force =    -0.01253044   -0.00311851   -0.02029241
     atom   41 type  1   force =    -0.05519649    0.01117734   -0.02614528
     atom   42 type  1   force =    -0.02430305   -0.01016605    0.00788259
     atom   43 type  1   force =    -0.05048778   -0.00731030   -0.03599107
     atom   44 type  1   force =    -0.00900491    0.02027855   -0.00150168
     atom   45 type  1   force =     0.01357404    0.02219610   -0.03545767
     atom   46 type  1   force =     0.02081605   -0.00438894    0.00020737
     atom   47 type  1   force =    -0.00489562    0.00149371   -0.00801574
     atom   48 type  1   force =    -0.01777143    0.01114874    0.01822859
     atom   49 type  1   force =    -0.07393755    0.02594938    0.01778683
     atom   50 type  1   force =    -0.01615264   -0.00808652   -0.02792292
     atom   51 type  1   force =    -0.03028995   -0.00883631    0.03874983
     atom   52 type  1   force =     0.00259538   -0.02058182    0.04804497
     atom   53 type  1   force =     0.03188458    0.00969244    0.00782644
     atom   54 type  1   force =    -0.02816889   -0.00975988    0.01047840
     atom   55 type  1   force =    -0.00436244    0.00711269   -0.01142920
     atom   56 type  1   force =    -0.01839713   -0.02109310   -0.01511478
     atom   57 type  1   force =    -0.05069052   -0.00586150   -0.00442357
     atom   58 type  1   force =     0.01086387    0.00854076   -0.01113007
     atom   59 type  1   force =    -0.04372575   -0.00550506   -0.03557369
     atom   60 type  1   force =    -0.02849506   -0.00523372   -0.00868363
     atom   61 type  1   force =     0.00488005   -0.01410813   -0.01292340
     atom   62 type  1   force =    -0.00687346   -0.00533675   -0.00727420
     atom   63 type  1   force =     0.00544988    0.01037015    0.00850579
     atom   64 type  1   force =    -0.01517663   -0.00614389    0.01597590

     Total force =     0.325225     Total SCF correction =     0.001229


     Computing stress (Cartesian axis) and pressure

          total   stress  (Ry/bohr**3)                   (kbar)     P=      -22.13
  -0.00017650  -0.00001470  -0.00000217          -25.96       -2.16       -0.32
  -0.00001470  -0.00018051  -0.00004622           -2.16      -26.55       -6.80
  -0.00000217  -0.00004622  -0.00009432           -0.32       -6.80      -13.88

 
     init_run     :      0.99s CPU      1.40s WALL (       1 calls)
     electrons    :      1.95s CPU      2.04s WALL (       1 calls)
     forces       :      0.07s CPU      0.07s WALL (       1 calls)
     stress       :      0.24s CPU      0.27s WALL (       1 calls)

     Called by init_run:
     wfcinit      :      0.60s CPU      0.88s WALL (       1 calls)
                                        0.88s GPU  (       1 calls)
     potinit      :      0.24s CPU      0.29s WALL (       1 calls)
     hinit0       :      0.12s CPU      0.12s WALL (       1 calls)

     Called by electrons:
     c_bands      :      1.26s CPU      1.30s WALL (      11 calls)
     sum_band     :      0.27s CPU      0.29s WALL (      11 calls)
     v_of_rho     :      0.18s CPU      0.24s WALL (      11 calls)
     mix_rho      :      0.23s CPU      0.24s WALL (      11 calls)

     Called by c_bands:
     init_us_2    :      0.04s CPU      0.04s WALL (      23 calls)
     init_us_2:gp :      0.04s CPU      0.04s WALL (      23 calls)
     regterg      :      1.15s CPU      1.17s WALL (      11 calls)

     Called by *egterg:
     rdiaghg      :      0.33s CPU      0.39s WALL (      72 calls)
                                        0.38s GPU  (      72 calls)
     h_psi        :      1.24s CPU      1.47s WALL (      74 calls)
                                        1.46s GPU  (      74 calls)
     g_psi        :      0.00s CPU      0.00s WALL (      62 calls)
                                        0.00s GPU  (      62 calls)

     Called by h_psi:
     h_psi:calbec :      0.48s CPU      0.72s WALL (      74 calls)
                                        0.72s GPU  (      74 calls)
     vloc_psi     :      0.66s CPU      0.67s WALL (      74 calls)
                                        0.67s GPU  (      74 calls)
     add_vuspsi   :      0.04s CPU      0.07s WALL (      74 calls)
                                        0.07s GPU  (      74 calls)

     General routines
     calbec       :      0.47s CPU      0.69s WALL (      79 calls)
     fft          :      0.17s CPU      0.19s WALL (      95 calls)
                                        0.04s GPU  (      59 calls)
     ffts         :      0.04s CPU      0.05s WALL (      11 calls)
     fftw         :      0.04s CPU      0.75s WALL (    1080 calls)
                                        0.64s GPU  (    1080 calls)
 
     Parallel routines
 
     PWSCF        :      3.27s CPU      3.83s WALL

 
   This run was terminated on:  22:50:17   8Jul2023            

=------------------------------------------------------------------------------=
   JOB DONE.
=------------------------------------------------------------------------------=
