
     Program PWSCF v.7.0 starts on  8Jul2023 at 22:43:17 

     This program is part of the open-source Quantum ESPRESSO suite
     for quantum simulation of materials; please cite
         "P. Giannozzi et al., J. Phys.:Condens. Matter 21 395502 (2009);
         "P. Giannozzi et al., J. Phys.:Condens. Matter 29 465901 (2017);
         "P. Giannozzi et al., J. Chem. Phys. 152 154105 (2020);
          URL http://www.quantum-espresso.org", 
     in publications or presentations arising from this work. More details at
     http://www.quantum-espresso.org/quote

     Parallel version (MPI & OpenMP), running on       1 processor cores
     Number of MPI processes:                 1
     Threads/MPI process:                     1

     MPI processes distributed on     1 nodes
     107780 MiB available memory on the printing compute node when the environment starts
 
     Reading input from pw-si-27.in
Warning: card &CELL ignored
Warning: card / ignored

     Current dimensions of program PWSCF are:
     Max number of different atomic species (ntypx) = 10
     Max number of k-points (npk) =  40000
     Max angular momentum in pseudopotentials (lmaxx) =  4

     IMPORTANT: XC functional enforced from input :
     Exchange-correlation= PBE
                           (   1   4   3   4   0   0   0)
     Any further DFT definition will be discarded
     Please, verify this is what you really want


     gamma-point specific algorithms are used

     Subspace diagonalization in iterative solution of the eigenvalue problem:
     a serial algorithm will be used

 
     G-vector sticks info
     --------------------
     sticks:   dense  smooth     PW     G-vecs:    dense   smooth      PW
     Sum        4193    4193   1045               204489   204489   25577
 
     Using Slab Decomposition
 


     bravais-lattice index     =            0
     lattice parameter (alat)  =      21.0963  a.u.
     unit-cell volume          =    9210.6193 (a.u.)^3
     number of atoms/cell      =           64
     number of atomic types    =            1
     number of electrons       =       256.00
     number of Kohn-Sham states=          128
     kinetic-energy cutoff     =      30.0000  Ry
     charge density cutoff     =     120.0000  Ry
     scf convergence threshold =      1.0E-06
     mixing beta               =       0.5000
     number of iterations used =            8  plain     mixing
     Exchange-correlation= PBE
                           (   1   4   3   4   0   0   0)

     GPU acceleration is ACTIVE.


     celldm(1)=  21.096265  celldm(2)=   0.000000  celldm(3)=   0.000000
     celldm(4)=   0.000000  celldm(5)=   0.000000  celldm(6)=   0.000000

     crystal axes: (cart. coord. in units of alat)
               a(1) = (   1.000000   0.000000   0.000000 )  
               a(2) = (   0.000000   0.986277   0.000000 )  
               a(3) = (   0.000000   0.000000   0.994657 )  

     reciprocal axes: (cart. coord. in units 2 pi/alat)
               b(1) = (  1.000000  0.000000  0.000000 )  
               b(2) = (  0.000000  1.013914  0.000000 )  
               b(3) = (  0.000000  0.000000  1.005372 )  


     PseudoPot. # 1 for Si read from file:
     ./Si_ONCV_PBE-1.0.upf
     MD5 check sum: 2de5a83d12544a9ea852f39b88f19b1f
     Pseudo is Norm-conserving, Zval =  4.0
     Generated using ONCVPSP code by D. R. Hamann
     Using radial grid of  602 points,  4 beta functions with: 
                l(1) =   0
                l(2) =   0
                l(3) =   1
                l(4) =   1

     atomic species   valence    mass     pseudopotential
        Si             4.00    28.08500     Si( 1.00)

     No symmetry found



   Cartesian axes

     site n.     atom                  positions (alat units)
         1           Si  tau(   1) = (   0.3732646   0.3664097   0.1257967  )
         2           Si  tau(   2) = (   0.0033477   0.2437985   0.2483576  )
         3           Si  tau(   3) = (   0.3700047   0.1212724   0.3807948  )
         4           Si  tau(   4) = (  -0.0034510   0.0022338   0.0009748  )
         5           Si  tau(   5) = (   0.1233192   0.3664847   0.3818247  )
         6           Si  tau(   6) = (   0.2516677   0.2426725  -0.0035912  )
         7           Si  tau(   7) = (   0.1289315   0.1181001   0.1296164  )
         8           Si  tau(   8) = (   0.2507645   0.0013897   0.2497482  )
         9           Si  tau(   9) = (   0.3700364   0.3631105   0.6311444  )
        10           Si  tau(  10) = (  -0.0036730   0.2478052   0.7518754  )
        11           Si  tau(  11) = (   0.3754472   0.1230361   0.8787323  )
        12           Si  tau(  12) = (   0.0013638   0.0037520   0.4998198  )
        13           Si  tau(  13) = (   0.1277316   0.3626579   0.8787931  )
        14           Si  tau(  14) = (   0.2469961   0.2424346   0.4987541  )
        15           Si  tau(  15) = (   0.1237942   0.1265871   0.6319807  )
        16           Si  tau(  16) = (   0.2515626   0.0037576   0.7585643  )
        17           Si  tau(  17) = (   0.3767343   0.8524162   0.1262771  )
        18           Si  tau(  18) = (   0.0028219   0.7291855   0.2515625  )
        19           Si  tau(  19) = (   0.3748957   0.6079379   0.3727885  )
        20           Si  tau(  20) = (   0.0028799   0.4859074  -0.0019971  )
        21           Si  tau(  21) = (   0.1286189   0.8559770   0.3736688  )
        22           Si  tau(  22) = (   0.2479165   0.7311241   0.0032473  )
        23           Si  tau(  23) = (   0.1241425   0.6075055   0.1259691  )
        24           Si  tau(  24) = (   0.2500546   0.4850545   0.2496533  )
        25           Si  tau(  25) = (   0.3774247   0.8562272   0.6316385  )
        26           Si  tau(  26) = (  -0.0004845   0.7350683   0.7551683  )
        27           Si  tau(  27) = (   0.3695312   0.6093328   0.8784254  )
        28           Si  tau(  28) = (  -0.0035990   0.4844729   0.4987656  )
        29           Si  tau(  29) = (   0.1269103   0.8519478   0.8786077  )
        30           Si  tau(  30) = (   0.2489176   0.7292223   0.5001429  )
        31           Si  tau(  31) = (   0.1271214   0.6069469   0.6252333  )
        32           Si  tau(  32) = (   0.2455437   0.4872452   0.7561528  )
        33           Si  tau(  33) = (   0.8727922   0.3644183   0.1227378  )
        34           Si  tau(  34) = (   0.4967022   0.2400621   0.2492929  )
        35           Si  tau(  35) = (   0.8677505   0.1259505   0.3758543  )
        36           Si  tau(  36) = (   0.4991798  -0.0000412   0.0032413  )
        37           Si  tau(  37) = (   0.6251931   0.3696637   0.3765700  )
        38           Si  tau(  38) = (   0.7455825   0.2411806  -0.0016597  )
        39           Si  tau(  39) = (   0.6238404   0.1201103   0.1300578  )
        40           Si  tau(  40) = (   0.7454772  -0.0020182   0.2508228  )
        41           Si  tau(  41) = (   0.8743233   0.3638633   0.6319806  )
        42           Si  tau(  42) = (   0.5023548   0.2419429   0.7503360  )
        43           Si  tau(  43) = (   0.8743285   0.1203677   0.8828934  )
        44           Si  tau(  44) = (   0.4987054  -0.0034232   0.5070694  )
        45           Si  tau(  45) = (   0.6259103   0.3688828   0.8826892  )
        46           Si  tau(  46) = (   0.7487032   0.2445767   0.4996292  )
        47           Si  tau(  47) = (   0.6209822   0.1211335   0.6330531  )
        48           Si  tau(  48) = (   0.7466238  -0.0008762   0.7561127  )
        49           Si  tau(  49) = (   0.8669213   0.8564854   0.1299682  )
        50           Si  tau(  50) = (   0.4956513   0.7350689   0.2506735  )
        51           Si  tau(  51) = (   0.8718438   0.6107707   0.3783209  )
        52           Si  tau(  52) = (   0.5015898   0.4916733   0.0029118  )
        53           Si  tau(  53) = (   0.6187855   0.8575261   0.3743572  )
        54           Si  tau(  54) = (   0.7438069   0.7347032   0.0030673  )
        55           Si  tau(  55) = (   0.6223534   0.6089974   0.1288101  )
        56           Si  tau(  56) = (   0.7448454   0.4879903   0.2485975  )
        57           Si  tau(  57) = (   0.8667107   0.8537241   0.6253187  )
        58           Si  tau(  58) = (   0.4955483   0.7333996   0.7567369  )
        59           Si  tau(  59) = (   0.8694434   0.6107001   0.8822310  )
        60           Si  tau(  60) = (   0.4983477   0.4874674   0.5065860  )
        61           Si  tau(  61) = (   0.6209816   0.8526961   0.8795381  )
        62           Si  tau(  62) = (   0.7500924   0.7328377   0.5072209  )
        63           Si  tau(  63) = (   0.6263495   0.6127990   0.6331932  )
        64           Si  tau(  64) = (   0.7484026   0.4861509   0.7571579  )

     number of k points=     1
                       cart. coord. in units 2pi/alat
        k(    1) = (   0.0000000   0.0000000   0.0000000), wk =   2.0000000

     Dense  grid:   102245 G-vectors     FFT dimensions: (  75,  75,  75)

     Estimated max dynamical RAM per process >     298.36 MB

     Initial potential from superposition of free atoms

     starting charge     253.0416, renormalised to     256.0000
     Starting wfcs are random

     total cpu time spent up to now is        2.9 secs

     Self-consistent Calculation

     iteration #  1     ecut=    30.00 Ry     beta= 0.50
     Davidson diagonalization with overlap
     ethr =  1.00E-02,  avg # of iterations = 11.0

     Threshold (ethr) on eigenvalues was too large:
     Diagonalizing with lowered threshold

     Davidson diagonalization with overlap
     ethr =  5.37E-04,  avg # of iterations = 11.0

     total cpu time spent up to now is        3.8 secs

     total energy              =    -503.75412395 Ry
     estimated scf accuracy    <       1.71797372 Ry

     iteration #  2     ecut=    30.00 Ry     beta= 0.50
     Davidson diagonalization with overlap
     ethr =  6.71E-04,  avg # of iterations =  1.0

     total cpu time spent up to now is        4.1 secs

     total energy              =    -503.75242587 Ry
     estimated scf accuracy    <       0.32779283 Ry

     iteration #  3     ecut=    30.00 Ry     beta= 0.50
     Davidson diagonalization with overlap
     ethr =  1.28E-04,  avg # of iterations =  2.0

     total cpu time spent up to now is        4.4 secs

     total energy              =    -503.78093946 Ry
     estimated scf accuracy    <       0.00463954 Ry

     iteration #  4     ecut=    30.00 Ry     beta= 0.50
     Davidson diagonalization with overlap
     ethr =  1.81E-06,  avg # of iterations = 10.0

     total cpu time spent up to now is        4.9 secs

     total energy              =    -503.78974708 Ry
     estimated scf accuracy    <       0.00118009 Ry

     iteration #  5     ecut=    30.00 Ry     beta= 0.50
     Davidson diagonalization with overlap
     ethr =  4.61E-07,  avg # of iterations =  4.0

     total cpu time spent up to now is        5.2 secs

     total energy              =    -503.78998794 Ry
     estimated scf accuracy    <       0.00033150 Ry

     iteration #  6     ecut=    30.00 Ry     beta= 0.50
     Davidson diagonalization with overlap
     ethr =  1.29E-07,  avg # of iterations =  3.0

     total cpu time spent up to now is        5.5 secs

     total energy              =    -503.79003277 Ry
     estimated scf accuracy    <       0.00003427 Ry

     iteration #  7     ecut=    30.00 Ry     beta= 0.50
     Davidson diagonalization with overlap
     ethr =  1.34E-08,  avg # of iterations =  7.0

     total cpu time spent up to now is        5.9 secs

     total energy              =    -503.79004304 Ry
     estimated scf accuracy    <       0.00001500 Ry

     iteration #  8     ecut=    30.00 Ry     beta= 0.50
     Davidson diagonalization with overlap
     ethr =  5.86E-09,  avg # of iterations =  3.0

     total cpu time spent up to now is        6.3 secs

     total energy              =    -503.79004479 Ry
     estimated scf accuracy    <       0.00000217 Ry

     iteration #  9     ecut=    30.00 Ry     beta= 0.50
     Davidson diagonalization with overlap
     ethr =  8.46E-10,  avg # of iterations =  6.0

     total cpu time spent up to now is        6.7 secs

     total energy              =    -503.79004552 Ry
     estimated scf accuracy    <       0.00000163 Ry

     iteration # 10     ecut=    30.00 Ry     beta= 0.50
     Davidson diagonalization with overlap
     ethr =  6.36E-10,  avg # of iterations =  3.0

     total cpu time spent up to now is        6.9 secs

     End of self-consistent calculation

          k = 0.0000 0.0000 0.0000 ( 12789 PWs)   bands (ev):

    -5.9619  -5.0232  -4.9876  -4.9613  -4.9252  -4.8562  -4.8065  -4.1961
    -4.1493  -4.1062  -4.0808  -4.0488  -4.0362  -4.0328  -3.9703  -3.9599
    -3.9043  -3.8820  -3.8391  -3.7657  -3.7203  -3.6880  -3.5639  -2.2332
    -2.1639  -2.1005  -2.0463  -2.0168  -1.9942  -1.9649  -1.9189  -1.8962
    -1.8689  -1.8523  -1.8203  -1.8074  -1.7998  -1.7914  -1.7375  -1.7233
    -1.6506  -1.1777  -1.1046  -1.0260  -0.9497   0.1029   0.1455   0.1762
     0.1892   0.2085   0.2224   0.2536   0.2813   0.3140   0.3423   0.3574
     0.3809   1.8250   1.8587   1.8704   1.8833   1.9197   1.9377   1.9420
     1.9598   1.9671   1.9962   1.9998   2.0137   2.0265   2.0485   2.0522
     2.0754   2.0884   2.0959   2.1129   2.1243   2.1492   2.1738   2.1819
     2.1996   2.2025   2.2198   2.2316   2.2981   2.3119   2.3449   2.8486
     2.8829   2.8917   2.9712   2.9979   3.0049   3.7010   3.7410   3.7668
     3.8072   3.8226   3.8334   3.8630   3.8886   3.9126   3.9342   3.9678
     3.9872   4.0667   4.2057   4.2584   4.2825   4.3094   4.3224   4.3503
     4.3764   4.4060   4.4131   4.4253   4.4495   4.4730   4.4933   4.5433
     4.5659   4.6054   4.6661   4.6944   4.8018   5.5268   5.6559   5.7999

     highest occupied level (ev):     5.7999

!    total energy              =    -503.79004536 Ry
     estimated scf accuracy    <       0.00000038 Ry

     The total energy is the sum of the following terms:
     one-electron contribution =     135.54721587 Ry
     hartree contribution      =      38.49799164 Ry
     xc contribution           =    -152.42196168 Ry
     ewald contribution        =    -525.41329119 Ry

     convergence has been achieved in  10 iterations

     Forces acting on atoms (cartesian axes, Ry/au):

     atom    1 type  1   force =     0.01039859   -0.01095349   -0.01122521
     atom    2 type  1   force =    -0.02079755    0.00301716    0.01671253
     atom    3 type  1   force =     0.02510203   -0.01290409   -0.01355565
     atom    4 type  1   force =     0.02653354   -0.05679158    0.04575816
     atom    5 type  1   force =     0.00287042   -0.00791799   -0.03857604
     atom    6 type  1   force =    -0.00362937   -0.00286338    0.05971672
     atom    7 type  1   force =    -0.01896191    0.01886203   -0.03333064
     atom    8 type  1   force =     0.01652207   -0.04915189    0.01497867
     atom    9 type  1   force =     0.01023289    0.00366939   -0.01404189
     atom   10 type  1   force =     0.01358238   -0.02448815    0.02742061
     atom   11 type  1   force =     0.02309726   -0.00670647   -0.02573780
     atom   12 type  1   force =    -0.01757012   -0.03214799    0.00588699
     atom   13 type  1   force =    -0.02546132    0.00714369   -0.03428301
     atom   14 type  1   force =    -0.00126051    0.00986033    0.03437538
     atom   15 type  1   force =     0.00047444   -0.01976772   -0.01442261
     atom   16 type  1   force =    -0.01135531   -0.04032078   -0.02142356
     atom   17 type  1   force =    -0.02052758    0.04314405   -0.00845462
     atom   18 type  1   force =    -0.02314749    0.02013695    0.00365527
     atom   19 type  1   force =    -0.00073468    0.00215419    0.01811276
     atom   20 type  1   force =    -0.02249954    0.00660472    0.03253257
     atom   21 type  1   force =    -0.01387817    0.02120164    0.00887316
     atom   22 type  1   force =     0.00560431    0.00192810    0.02699828
     atom   23 type  1   force =     0.00163191   -0.00308066    0.00142888
     atom   24 type  1   force =    -0.01113742    0.00561809    0.01535643
     atom   25 type  1   force =    -0.02950021    0.01347808   -0.01184969
     atom   26 type  1   force =    -0.01364852   -0.01701729   -0.02205291
     atom   27 type  1   force =     0.01545872    0.00022113   -0.01598828
     atom   28 type  1   force =    -0.00232831    0.01648664    0.03026202
     atom   29 type  1   force =    -0.01708875    0.05211249   -0.01579579
     atom   30 type  1   force =     0.01771144    0.01748729    0.00564188
     atom   31 type  1   force =    -0.03038563    0.00973945    0.00606231
     atom   32 type  1   force =     0.01368978   -0.00472314   -0.01667908
     atom   33 type  1   force =     0.00867334    0.00064056    0.00407619
     atom   34 type  1   force =     0.00192326    0.01919003    0.02704065
     atom   35 type  1   force =     0.03735147   -0.02141748   -0.01442829
     atom   36 type  1   force =     0.00228071   -0.02953240    0.01856959
     atom   37 type  1   force =    -0.02242018   -0.01970299    0.00102576
     atom   38 type  1   force =     0.00910393    0.00115900    0.04987919
     atom   39 type  1   force =    -0.00464445    0.00016437   -0.01987739
     atom   40 type  1   force =     0.00406161   -0.01219908    0.02123694
     atom   41 type  1   force =    -0.01828438    0.01655766   -0.03072495
     atom   42 type  1   force =    -0.02099166    0.02703743    0.03010594
     atom   43 type  1   force =    -0.00950547    0.01301565   -0.05972542
     atom   44 type  1   force =    -0.00527725   -0.00567928   -0.01117479
     atom   45 type  1   force =    -0.01984764   -0.01572948   -0.04436117
     atom   46 type  1   force =    -0.01567193    0.00478379    0.03031301
     atom   47 type  1   force =     0.02859761   -0.00912147   -0.03610750
     atom   48 type  1   force =     0.00500427   -0.02989054   -0.00327336
     atom   49 type  1   force =     0.03183347    0.00980933   -0.00972879
     atom   50 type  1   force =     0.01522291   -0.01854506    0.00907057
     atom   51 type  1   force =     0.00266043   -0.00394984   -0.01163201
     atom   52 type  1   force =    -0.02507895   -0.00925494    0.01932224
     atom   53 type  1   force =     0.01806116    0.00729624    0.02339093
     atom   54 type  1   force =     0.01067543   -0.01062376    0.03284255
     atom   55 type  1   force =    -0.00286740    0.02639410   -0.00185512
     atom   56 type  1   force =     0.02838744    0.00033116    0.01188027
     atom   57 type  1   force =     0.04842224    0.05178133    0.02291914
     atom   58 type  1   force =     0.00855726   -0.00832356   -0.00637105
     atom   59 type  1   force =     0.02657241    0.00467553   -0.03055550
     atom   60 type  1   force =     0.00242135    0.00799069   -0.00459923
     atom   61 type  1   force =    -0.00461602    0.04251889   -0.02156896
     atom   62 type  1   force =    -0.02990144   -0.00327549   -0.03652073
     atom   63 type  1   force =    -0.01754623   -0.01225655   -0.00553456
     atom   64 type  1   force =     0.00784530    0.01212537   -0.00998998

     Total force =     0.296982     Total SCF correction =     0.001192


     Computing stress (Cartesian axis) and pressure

          total   stress  (Ry/bohr**3)                   (kbar)     P=      -22.08
  -0.00018653  -0.00005769   0.00002352          -27.44       -8.49        3.46
  -0.00005769  -0.00010421   0.00000299           -8.49      -15.33        0.44
   0.00002352   0.00000299  -0.00015962            3.46        0.44      -23.48

 
     init_run     :      1.00s CPU      2.84s WALL (       1 calls)
     electrons    :      1.97s CPU      4.05s WALL (       1 calls)
     forces       :      0.07s CPU      0.15s WALL (       1 calls)
     stress       :      0.24s CPU      0.55s WALL (       1 calls)

     Called by init_run:
     wfcinit      :      0.60s CPU      1.81s WALL (       1 calls)
                                        1.81s GPU  (       1 calls)
     potinit      :      0.24s CPU      0.58s WALL (       1 calls)
     hinit0       :      0.12s CPU      0.25s WALL (       1 calls)

     Called by electrons:
     c_bands      :      1.24s CPU      2.52s WALL (      11 calls)
     sum_band     :      0.28s CPU      0.61s WALL (      11 calls)
     v_of_rho     :      0.20s CPU      0.51s WALL (      11 calls)
     mix_rho      :      0.25s CPU      0.51s WALL (      11 calls)

     Called by c_bands:
     init_us_2    :      0.03s CPU      0.12s WALL (      23 calls)
     init_us_2:gp :      0.03s CPU      0.11s WALL (      23 calls)
     regterg      :      1.12s CPU      2.27s WALL (      11 calls)

     Called by *egterg:
     rdiaghg      :      0.33s CPU      0.83s WALL (      71 calls)
                                        0.82s GPU  (      71 calls)
     h_psi        :      1.20s CPU      2.86s WALL (      73 calls)
                                        2.86s GPU  (      73 calls)
     g_psi        :      0.00s CPU      0.00s WALL (      61 calls)
                                        0.00s GPU  (      61 calls)

     Called by h_psi:
     h_psi:calbec :      0.47s CPU      1.49s WALL (      73 calls)
                                        1.45s GPU  (      73 calls)
     vloc_psi     :      0.61s CPU      1.21s WALL (      73 calls)
                                        1.21s GPU  (      73 calls)
     add_vuspsi   :      0.04s CPU      0.15s WALL (      73 calls)
                                        0.11s GPU  (      73 calls)

     General routines
     calbec       :      0.47s CPU      1.42s WALL (      78 calls)
     fft          :      0.19s CPU      0.43s WALL (      95 calls)
                                        0.06s GPU  (      59 calls)
     ffts         :      0.05s CPU      0.09s WALL (      11 calls)
     fftw         :      0.04s CPU      1.33s WALL (    1070 calls)
                                        0.68s GPU  (    1070 calls)
 
     Parallel routines
 
     PWSCF        :      3.31s CPU      7.70s WALL

 
   This run was terminated on:  22:43:25   8Jul2023            

=------------------------------------------------------------------------------=
   JOB DONE.
=------------------------------------------------------------------------------=
