
     Program PWSCF v.7.0 starts on  8Jul2023 at 22:50:41 

     This program is part of the open-source Quantum ESPRESSO suite
     for quantum simulation of materials; please cite
         "P. Giannozzi et al., J. Phys.:Condens. Matter 21 395502 (2009);
         "P. Giannozzi et al., J. Phys.:Condens. Matter 29 465901 (2017);
         "P. Giannozzi et al., J. Chem. Phys. 152 154105 (2020);
          URL http://www.quantum-espresso.org", 
     in publications or presentations arising from this work. More details at
     http://www.quantum-espresso.org/quote

     Parallel version (MPI & OpenMP), running on       1 processor cores
     Number of MPI processes:                 1
     Threads/MPI process:                     1

     MPI processes distributed on     1 nodes
     109182 MiB available memory on the printing compute node when the environment starts
 
     Reading input from pw-si-95.in
Warning: card &CELL ignored
Warning: card / ignored

     Current dimensions of program PWSCF are:
     Max number of different atomic species (ntypx) = 10
     Max number of k-points (npk) =  40000
     Max angular momentum in pseudopotentials (lmaxx) =  4

     IMPORTANT: XC functional enforced from input :
     Exchange-correlation= PBE
                           (   1   4   3   4   0   0   0)
     Any further DFT definition will be discarded
     Please, verify this is what you really want


     gamma-point specific algorithms are used

     Subspace diagonalization in iterative solution of the eigenvalue problem:
     a serial algorithm will be used

 
     G-vector sticks info
     --------------------
     sticks:   dense  smooth     PW     G-vecs:    dense   smooth      PW
     Sum        4153    4153   1037               199309   199309   24965
 
     Using Slab Decomposition
 


     bravais-lattice index     =            0
     lattice parameter (alat)  =      20.7330  a.u.
     unit-cell volume          =    8976.8701 (a.u.)^3
     number of atoms/cell      =           64
     number of atomic types    =            1
     number of electrons       =       256.00
     number of Kohn-Sham states=          128
     kinetic-energy cutoff     =      30.0000  Ry
     charge density cutoff     =     120.0000  Ry
     scf convergence threshold =      1.0E-06
     mixing beta               =       0.5000
     number of iterations used =            8  plain     mixing
     Exchange-correlation= PBE
                           (   1   4   3   4   0   0   0)

     GPU acceleration is ACTIVE.


     celldm(1)=  20.733013  celldm(2)=   0.000000  celldm(3)=   0.000000
     celldm(4)=   0.000000  celldm(5)=   0.000000  celldm(6)=   0.000000

     crystal axes: (cart. coord. in units of alat)
               a(1) = (   1.000000   0.000000   0.000000 )  
               a(2) = (   0.000000   1.009298   0.000000 )  
               a(3) = (   0.000000   0.000000   0.997972 )  

     reciprocal axes: (cart. coord. in units 2 pi/alat)
               b(1) = (  1.000000  0.000000  0.000000 )  
               b(2) = (  0.000000  0.990788  0.000000 )  
               b(3) = (  0.000000  0.000000  1.002032 )  


     PseudoPot. # 1 for Si read from file:
     ./Si_ONCV_PBE-1.0.upf
     MD5 check sum: 2de5a83d12544a9ea852f39b88f19b1f
     Pseudo is Norm-conserving, Zval =  4.0
     Generated using ONCVPSP code by D. R. Hamann
     Using radial grid of  602 points,  4 beta functions with: 
                l(1) =   0
                l(2) =   0
                l(3) =   1
                l(4) =   1

     atomic species   valence    mass     pseudopotential
        Si             4.00    28.08500     Si( 1.00)

     No symmetry found



   Cartesian axes

     site n.     atom                  positions (alat units)
         1           Si  tau(   1) = (   0.3680868   0.3764192   0.1260631  )
         2           Si  tau(   2) = (  -0.0012860   0.2458757   0.2573181  )
         3           Si  tau(   3) = (   0.3721064   0.1263657   0.3758208  )
         4           Si  tau(   4) = (  -0.0027873  -0.0041888   0.0037001  )
         5           Si  tau(   5) = (   0.1230511   0.3702686   0.3767276  )
         6           Si  tau(   6) = (   0.2483967   0.2452683   0.0046027  )
         7           Si  tau(   7) = (   0.1197871   0.1206886   0.1235484  )
         8           Si  tau(   8) = (   0.2482946   0.0042414   0.2517795  )
         9           Si  tau(   9) = (   0.3725212   0.3784280   0.6287811  )
        10           Si  tau(  10) = (  -0.0013496   0.2517341   0.7602907  )
        11           Si  tau(  11) = (   0.3693127   0.1243512   0.8889004  )
        12           Si  tau(  12) = (   0.0034346  -0.0033186   0.5052773  )
        13           Si  tau(  13) = (   0.1199275   0.3752279   0.8854593  )
        14           Si  tau(  14) = (   0.2456702   0.2470259   0.5035475  )
        15           Si  tau(  15) = (   0.1190710   0.1219884   0.6276818  )
        16           Si  tau(  16) = (   0.2474705  -0.0023948   0.7580989  )
        17           Si  tau(  17) = (   0.3694115   0.8698522   0.1262158  )
        18           Si  tau(  18) = (   0.0028202   0.7470012   0.2548872  )
        19           Si  tau(  19) = (   0.3658050   0.6211841   0.3830721  )
        20           Si  tau(  20) = (  -0.0038002   0.5015642   0.0030787  )
        21           Si  tau(  21) = (   0.1231501   0.8707205   0.3764162  )
        22           Si  tau(  22) = (   0.2454201   0.7502705   0.0001963  )
        23           Si  tau(  23) = (   0.1197995   0.6191688   0.1230727  )
        24           Si  tau(  24) = (   0.2444570   0.4966462   0.2570842  )
        25           Si  tau(  25) = (   0.3702275   0.8725682   0.6332998  )
        26           Si  tau(  26) = (  -0.0034275   0.7454223   0.7582138  )
        27           Si  tau(  27) = (   0.3713760   0.6235709   0.8870306  )
        28           Si  tau(  28) = (  -0.0032585   0.4981331   0.5088908  )
        29           Si  tau(  29) = (   0.1191915   0.8736195   0.8828911  )
        30           Si  tau(  30) = (   0.2457665   0.7482637   0.5083848  )
        31           Si  tau(  31) = (   0.1258042   0.6265120   0.6308836  )
        32           Si  tau(  32) = (   0.2484855   0.4993929   0.7627167  )
        33           Si  tau(  33) = (   0.8619408   0.3700613   0.1246737  )
        34           Si  tau(  34) = (   0.4894361   0.2522831   0.2487480  )
        35           Si  tau(  35) = (   0.8641109   0.1282236   0.3773014  )
        36           Si  tau(  36) = (   0.4912022   0.0039074   0.0036872  )
        37           Si  tau(  37) = (   0.6188141   0.3779525   0.3804396  )
        38           Si  tau(  38) = (   0.7394983   0.2468290  -0.0024142  )
        39           Si  tau(  39) = (   0.6140426   0.1208179   0.1304110  )
        40           Si  tau(  40) = (   0.7358319  -0.0035437   0.2523682  )
        41           Si  tau(  41) = (   0.8583994   0.3734693   0.6279594  )
        42           Si  tau(  42) = (   0.4942557   0.2524792   0.7565471  )
        43           Si  tau(  43) = (   0.8671503   0.1222411   0.8808406  )
        44           Si  tau(  44) = (   0.4908695  -0.0013717   0.5077222  )
        45           Si  tau(  45) = (   0.6168575   0.3778243   0.8824645  )
        46           Si  tau(  46) = (   0.7385521   0.2485045   0.5086134  )
        47           Si  tau(  47) = (   0.6131395   0.1271588   0.6317571  )
        48           Si  tau(  48) = (   0.7421371   0.0016071   0.7557100  )
        49           Si  tau(  49) = (   0.8636699   0.8726456   0.1235550  )
        50           Si  tau(  50) = (   0.4929001   0.7513704   0.2558476  )
        51           Si  tau(  51) = (   0.8665111   0.6268160   0.3767225  )
        52           Si  tau(  52) = (   0.4903284   0.5023456  -0.0012430  )
        53           Si  tau(  53) = (   0.6168604   0.8691733   0.3820093  )
        54           Si  tau(  54) = (   0.7426769   0.7439788   0.0036167  )
        55           Si  tau(  55) = (   0.6205509   0.6203527   0.1222810  )
        56           Si  tau(  56) = (   0.7411270   0.4952153   0.2513722  )
        57           Si  tau(  57) = (   0.8644774   0.8748823   0.6329161  )
        58           Si  tau(  58) = (   0.4888043   0.7480351   0.7551615  )
        59           Si  tau(  59) = (   0.8618893   0.6195996   0.8817316  )
        60           Si  tau(  60) = (   0.4970286   0.5017740   0.5068027  )
        61           Si  tau(  61) = (   0.6172145   0.8726451   0.8826720  )
        62           Si  tau(  62) = (   0.7384310   0.7514806   0.5100447  )
        63           Si  tau(  63) = (   0.6148257   0.6231917   0.6275479  )
        64           Si  tau(  64) = (   0.7410245   0.5022995   0.7569264  )

     number of k points=     1
                       cart. coord. in units 2pi/alat
        k(    1) = (   0.0000000   0.0000000   0.0000000), wk =   2.0000000

     Dense  grid:    99655 G-vectors     FFT dimensions: (  75,  75,  75)

     Estimated max dynamical RAM per process >     291.57 MB

     Initial potential from superposition of free atoms

     starting charge     253.0416, renormalised to     256.0000
     Starting wfcs are random

     total cpu time spent up to now is        1.4 secs

     Self-consistent Calculation

     iteration #  1     ecut=    30.00 Ry     beta= 0.50
     Davidson diagonalization with overlap
     ethr =  1.00E-02,  avg # of iterations = 14.0

     Threshold (ethr) on eigenvalues was too large:
     Diagonalizing with lowered threshold

     Davidson diagonalization with overlap
     ethr =  5.99E-04,  avg # of iterations = 12.0

     total cpu time spent up to now is        1.9 secs

     total energy              =    -503.73661284 Ry
     estimated scf accuracy    <       1.79524017 Ry

     iteration #  2     ecut=    30.00 Ry     beta= 0.50
     Davidson diagonalization with overlap
     ethr =  7.01E-04,  avg # of iterations =  1.0

     total cpu time spent up to now is        2.0 secs

     total energy              =    -503.73559804 Ry
     estimated scf accuracy    <       0.33493670 Ry

     iteration #  3     ecut=    30.00 Ry     beta= 0.50
     Davidson diagonalization with overlap
     ethr =  1.31E-04,  avg # of iterations =  2.0

     total cpu time spent up to now is        2.2 secs

     total energy              =    -503.76191863 Ry
     estimated scf accuracy    <       0.00487315 Ry

     iteration #  4     ecut=    30.00 Ry     beta= 0.50
     Davidson diagonalization with overlap
     ethr =  1.90E-06,  avg # of iterations = 13.0

     total cpu time spent up to now is        2.4 secs

     total energy              =    -503.77072712 Ry
     estimated scf accuracy    <       0.00212654 Ry

     iteration #  5     ecut=    30.00 Ry     beta= 0.50
     Davidson diagonalization with overlap
     ethr =  8.31E-07,  avg # of iterations =  3.0

     total cpu time spent up to now is        2.6 secs

     total energy              =    -503.77115552 Ry
     estimated scf accuracy    <       0.00055727 Ry

     iteration #  6     ecut=    30.00 Ry     beta= 0.50
     Davidson diagonalization with overlap
     ethr =  2.18E-07,  avg # of iterations =  4.0

     total cpu time spent up to now is        2.7 secs

     total energy              =    -503.77121383 Ry
     estimated scf accuracy    <       0.00008477 Ry

     iteration #  7     ecut=    30.00 Ry     beta= 0.50
     Davidson diagonalization with overlap
     ethr =  3.31E-08,  avg # of iterations =  7.0

     total cpu time spent up to now is        2.9 secs

     total energy              =    -503.77123653 Ry
     estimated scf accuracy    <       0.00002035 Ry

     iteration #  8     ecut=    30.00 Ry     beta= 0.50
     Davidson diagonalization with overlap
     ethr =  7.95E-09,  avg # of iterations =  7.0

     total cpu time spent up to now is        3.1 secs

     total energy              =    -503.77124090 Ry
     estimated scf accuracy    <       0.00000172 Ry

     iteration #  9     ecut=    30.00 Ry     beta= 0.50
     Davidson diagonalization with overlap
     ethr =  6.70E-10,  avg # of iterations =  7.0

     total cpu time spent up to now is        3.3 secs

     total energy              =    -503.77124104 Ry
     estimated scf accuracy    <       0.00000274 Ry

     iteration # 10     ecut=    30.00 Ry     beta= 0.50
     Davidson diagonalization with overlap
     ethr =  6.70E-10,  avg # of iterations =  4.0

     total cpu time spent up to now is        3.5 secs

     End of self-consistent calculation

          k = 0.0000 0.0000 0.0000 ( 12483 PWs)   bands (ev):

    -5.8922  -4.9394  -4.9155  -4.8733  -4.7905  -4.7472  -4.7050  -4.1149
    -4.0340  -4.0104  -3.9786  -3.9173  -3.8672  -3.8627  -3.8470  -3.8050
    -3.7752  -3.7574  -3.7053  -3.6796  -3.5518  -3.4880  -3.3595  -2.0710
    -2.0073  -1.9191  -1.8761  -1.8298  -1.8035  -1.7578  -1.7331  -1.7310
    -1.7113  -1.6865  -1.6685  -1.6511  -1.5803  -1.5397  -1.5278  -1.4924
    -1.4776  -1.0612  -0.9438  -0.8708  -0.8333   0.3265   0.3473   0.3717
     0.3946   0.4382   0.4711   0.4935   0.5029   0.5083   0.5293   0.5473
     0.5743   1.9697   1.9885   2.0137   2.0299   2.0441   2.0615   2.0787
     2.0887   2.1188   2.1543   2.1556   2.1698   2.2197   2.2285   2.2448
     2.2451   2.2574   2.2822   2.3103   2.3137   2.3226   2.3405   2.3545
     2.3953   2.4383   2.4641   2.4854   2.5166   2.5495   2.6075   3.0434
     3.0676   3.1018   3.1342   3.1652   3.2002   3.9186   3.9566   3.9601
     3.9955   4.0165   4.0322   4.0637   4.0958   4.1279   4.1441   4.1777
     4.2312   4.2695   4.4698   4.4822   4.5054   4.5513   4.5607   4.5883
     4.5988   4.6111   4.6420   4.6524   4.6744   4.7064   4.7290   4.7425
     4.7533   4.8004   4.8637   5.0826   5.1606   5.7723   5.9491   6.0559

     highest occupied level (ev):     6.0559

!    total energy              =    -503.77124142 Ry
     estimated scf accuracy    <       0.00000028 Ry

     The total energy is the sum of the following terms:
     one-electron contribution =     141.13338435 Ry
     hartree contribution      =      38.00681421 Ry
     xc contribution           =    -153.26565271 Ry
     ewald contribution        =    -529.64578727 Ry

     convergence has been achieved in  10 iterations

     Forces acting on atoms (cartesian axes, Ry/au):

     atom    1 type  1   force =    -0.00401448    0.00357623    0.00338801
     atom    2 type  1   force =    -0.03115855    0.00630379   -0.03881868
     atom    3 type  1   force =    -0.00553578   -0.00627285    0.01703081
     atom    4 type  1   force =    -0.03481512   -0.02254496    0.00443419
     atom    5 type  1   force =    -0.01707708    0.01064543    0.03012864
     atom    6 type  1   force =    -0.03636223    0.03118565    0.02283644
     atom    7 type  1   force =     0.00238121    0.00959750    0.03038073
     atom    8 type  1   force =    -0.00927202   -0.05942295   -0.00440159
     atom    9 type  1   force =    -0.01852557   -0.01815801    0.01114789
     atom   10 type  1   force =    -0.03565037   -0.01079414   -0.03115622
     atom   11 type  1   force =     0.00449875    0.00294108   -0.07713976
     atom   12 type  1   force =    -0.06134972   -0.03153353   -0.02395493
     atom   13 type  1   force =     0.01911309   -0.00832967   -0.01927605
     atom   14 type  1   force =     0.00862618    0.00782072    0.00541442
     atom   15 type  1   force =     0.02205667    0.01334500    0.03164348
     atom   16 type  1   force =    -0.01338559   -0.01474646   -0.00213673
     atom   17 type  1   force =    -0.00043437    0.05722939    0.01133397
     atom   18 type  1   force =    -0.04719107    0.00263374   -0.02794632
     atom   19 type  1   force =     0.01991168    0.01596865   -0.00882522
     atom   20 type  1   force =    -0.04616536   -0.02906372    0.01323753
     atom   21 type  1   force =     0.01929517    0.04912798    0.01510949
     atom   22 type  1   force =    -0.00997061   -0.01177056    0.03442574
     atom   23 type  1   force =     0.02243844    0.02630183    0.03320242
     atom   24 type  1   force =    -0.00307171    0.00772894   -0.02429537
     atom   25 type  1   force =    -0.01476631    0.03867070   -0.00918042
     atom   26 type  1   force =    -0.02702518    0.01099877   -0.00705853
     atom   27 type  1   force =    -0.02539675    0.02796369   -0.05737521
     atom   28 type  1   force =    -0.01658132    0.00159546   -0.02360364
     atom   29 type  1   force =     0.00140415    0.02599366   -0.03164292
     atom   30 type  1   force =     0.00287649    0.01595091   -0.01898975
     atom   31 type  1   force =    -0.02125854   -0.02572199    0.02237774
     atom   32 type  1   force =    -0.00828869    0.00086574   -0.02391837
     atom   33 type  1   force =     0.04297684   -0.00112943    0.01424654
     atom   34 type  1   force =     0.03079108    0.00451584    0.02155492
     atom   35 type  1   force =     0.01894971   -0.03653713    0.01820139
     atom   36 type  1   force =     0.01909686   -0.07866714    0.02626520
     atom   37 type  1   force =    -0.01287299   -0.02425867   -0.00632038
     atom   38 type  1   force =    -0.00365190   -0.00861737    0.03978215
     atom   39 type  1   force =     0.00784918    0.02397226   -0.01147024
     atom   40 type  1   force =     0.02585425   -0.02730653    0.01440502
     atom   41 type  1   force =     0.05392908    0.00841841    0.03046961
     atom   42 type  1   force =    -0.01604674   -0.00212425    0.01008516
     atom   43 type  1   force =     0.02769902    0.00140210   -0.01641300
     atom   44 type  1   force =     0.00869301   -0.02619935   -0.01510604
     atom   45 type  1   force =     0.00075847   -0.00768586   -0.03125337
     atom   46 type  1   force =    -0.00343318   -0.00265854   -0.03024331
     atom   47 type  1   force =     0.00985954   -0.02138885    0.00386635
     atom   48 type  1   force =    -0.00867468   -0.03559579   -0.00236575
     atom   49 type  1   force =     0.03184619    0.02180053    0.03317727
     atom   50 type  1   force =     0.00039907   -0.03616461   -0.01385643
     atom   51 type  1   force =     0.01399242   -0.01054990    0.01891988
     atom   52 type  1   force =     0.02763017   -0.02926864    0.05338080
     atom   53 type  1   force =    -0.00603471    0.05665333    0.00306293
     atom   54 type  1   force =    -0.00514418    0.02423808    0.00150067
     atom   55 type  1   force =    -0.02624750    0.00819537    0.04200268
     atom   56 type  1   force =     0.01449390    0.01901902    0.00116458
     atom   57 type  1   force =     0.03368996    0.02603886    0.00006931
     atom   58 type  1   force =     0.02882938   -0.00375808    0.01160926
     atom   59 type  1   force =     0.04994779    0.01819438   -0.01911062
     atom   60 type  1   force =    -0.01957070   -0.01327509   -0.02452392
     atom   61 type  1   force =    -0.00412081    0.03606927   -0.02184979
     atom   62 type  1   force =     0.02561297   -0.01369476   -0.02095528
     atom   63 type  1   force =     0.01223453    0.02081759    0.03443784
     atom   64 type  1   force =    -0.01464147   -0.01854107   -0.02110519

     Total force =     0.344141     Total SCF correction =     0.000964


     Computing stress (Cartesian axis) and pressure

          total   stress  (Ry/bohr**3)                   (kbar)     P=       -0.12
   0.00001756   0.00000717   0.00004465            2.58        1.05        6.57
   0.00000717  -0.00004311   0.00003237            1.05       -6.34        4.76
   0.00004465   0.00003237   0.00002315            6.57        4.76        3.41

 
     init_run     :      0.94s CPU      1.40s WALL (       1 calls)
     electrons    :      1.93s CPU      2.03s WALL (       1 calls)
     forces       :      0.07s CPU      0.07s WALL (       1 calls)
     stress       :      0.23s CPU      0.26s WALL (       1 calls)

     Called by init_run:
     wfcinit      :      0.57s CPU      0.89s WALL (       1 calls)
                                        0.89s GPU  (       1 calls)
     potinit      :      0.22s CPU      0.28s WALL (       1 calls)
     hinit0       :      0.11s CPU      0.12s WALL (       1 calls)

     Called by electrons:
     c_bands      :      1.27s CPU      1.30s WALL (      11 calls)
     sum_band     :      0.26s CPU      0.28s WALL (      11 calls)
     v_of_rho     :      0.18s CPU      0.24s WALL (      11 calls)
     mix_rho      :      0.22s CPU      0.23s WALL (      11 calls)

     Called by c_bands:
     init_us_2    :      0.03s CPU      0.04s WALL (      23 calls)
     init_us_2:gp :      0.03s CPU      0.03s WALL (      23 calls)
     regterg      :      1.16s CPU      1.19s WALL (      11 calls)

     Called by *egterg:
     rdiaghg      :      0.36s CPU      0.43s WALL (      84 calls)
                                        0.42s GPU  (      84 calls)
     h_psi        :      1.18s CPU      1.46s WALL (      86 calls)
                                        1.46s GPU  (      86 calls)
     g_psi        :      0.00s CPU      0.00s WALL (      74 calls)
                                        0.00s GPU  (      74 calls)

     Called by h_psi:
     h_psi:calbec :      0.45s CPU      0.74s WALL (      86 calls)
                                        0.74s GPU  (      86 calls)
     vloc_psi     :      0.62s CPU      0.65s WALL (      86 calls)
                                        0.64s GPU  (      86 calls)
     add_vuspsi   :      0.04s CPU      0.07s WALL (      86 calls)
                                        0.07s GPU  (      86 calls)

     General routines
     calbec       :      0.45s CPU      0.70s WALL (      91 calls)
     fft          :      0.17s CPU      0.19s WALL (      95 calls)
                                        0.04s GPU  (      59 calls)
     ffts         :      0.04s CPU      0.05s WALL (      11 calls)
     fftw         :      0.03s CPU      0.72s WALL (    1096 calls)
                                        0.62s GPU  (    1096 calls)
 
     Parallel routines
 
     PWSCF        :      3.18s CPU      3.81s WALL

 
   This run was terminated on:  22:50:45   8Jul2023            

=------------------------------------------------------------------------------=
   JOB DONE.
=------------------------------------------------------------------------------=
