An instance of this daemon is already running
An instance of this daemon is already running

     Program PWSCF v.7.1 starts on 10May2023 at 11:32:25 

     This program is part of the open-source Quantum ESPRESSO suite
     for quantum simulation of materials; please cite
         "P. Giannozzi et al., J. Phys.:Condens. Matter 21 395502 (2009);
         "P. Giannozzi et al., J. Phys.:Condens. Matter 29 465901 (2017);
         "P. Giannozzi et al., J. Chem. Phys. 152 154105 (2020);
          URL http://www.quantum-espresso.org", 
     in publications or presentations arising from this work. More details at
     http://www.quantum-espresso.org/quote

     Parallel version (MPI & OpenMP), running on       4 processor cores
     Number of MPI processes:                 4
     Threads/MPI process:                     1

     MPI processes distributed on     1 nodes
     706977 MiB available memory on the printing compute node when the environment starts
 
     Reading input from pw-si-13.in
Warning: card &CELL ignored
Warning: card / ignored

     Current dimensions of program PWSCF are:
     Max number of different atomic species (ntypx) = 10
     Max number of k-points (npk) =  40000
     Max angular momentum in pseudopotentials (lmaxx) =  4

     IMPORTANT: XC functional enforced from input :
     Exchange-correlation= PBE
                           (   1   4   3   4   0   0   0)
     Any further DFT definition will be discarded
     Please, verify this is what you really want


     gamma-point specific algorithms are used
 
     K-points division:     npool     =       2
     R & G space division:  proc/nbgrp/npool/nimage =       2
     Subspace diagonalization in iterative solution of the eigenvalue problem:
     a serial algorithm will be used

     Message from routine divide_et_impera:
     suboptimal parallelization: some nodes have no k-points
 
     Parallelization info
     --------------------
     sticks:   dense  smooth     PW     G-vecs:    dense   smooth      PW
     Min        2174    2174    573               100350   100350   13655
     Max        2175    2175    576               100351   100351   13656
     Sum        4349    4349   1149               200701   200701   27311
 
     Using Slab Decomposition
 


     bravais-lattice index     =            0
     lattice parameter (alat)  =      21.2970  a.u.
     unit-cell volume          =    9044.3793 (a.u.)^3
     number of atoms/cell      =           64
     number of atomic types    =            1
     number of electrons       =       256.00
     number of Kohn-Sham states=          154
     kinetic-energy cutoff     =      30.0000  Ry
     charge density cutoff     =     120.0000  Ry
     scf convergence threshold =      1.0E-06
     mixing beta               =       0.5000
     number of iterations used =            8  plain     mixing
     Exchange-correlation= PBE
                           (   1   4   3   4   0   0   0)

     GPU acceleration is ACTIVE.
     GPU-aware MPI enabled

     Message from routine print_cuda_info:
     High GPU oversubscription detected. Are you sure this is what you want?

     celldm(1)=  21.297020  celldm(2)=   0.000000  celldm(3)=   0.000000
     celldm(4)=   0.000000  celldm(5)=   0.000000  celldm(6)=   0.000000

     crystal axes: (cart. coord. in units of alat)
               a(1) = (   1.000000   0.000000   0.000000 )  
               a(2) = (   0.000000   1.002552   0.000000 )  
               a(3) = (   0.000000   0.000000   0.933932 )  

     reciprocal axes: (cart. coord. in units 2 pi/alat)
               b(1) = (  1.000000  0.000000  0.000000 )  
               b(2) = (  0.000000  0.997454  0.000000 )  
               b(3) = (  0.000000  0.000000  1.070742 )  


     PseudoPot. # 1 for Si read from file:
     /home/ppiaggi/pseudos/Si_ONCV_PBE_sr.upf
     MD5 check sum: 8553c464762ac42b85b1eed164b4d029
     Pseudo is Norm-conserving, Zval =  4.0
     Generated using ONCVPSP code by D. R. Hamann
     Using radial grid of 1510 points,  4 beta functions with: 
                l(1) =   0
                l(2) =   0
                l(3) =   1
                l(4) =   1

     atomic species   valence    mass     pseudopotential
        Si             4.00    28.08500     Si( 1.00)

     No symmetry found



   Cartesian axes

     site n.     atom                  positions (alat units)
         1           Si  tau(   1) = (  -0.0070880   0.0174445   0.0144223  )
         2           Si  tau(   2) = (  -0.0143498   0.2700664   0.2529211  )
         3           Si  tau(   3) = (   0.2478001  -0.0003397   0.2496854  )
         4           Si  tau(   4) = (   0.2730669   0.2467917   0.0041685  )
         5           Si  tau(   5) = (   0.1250912   0.1378826   0.1092596  )
         6           Si  tau(   6) = (   0.5443046   0.0045491   0.0154614  )
         7           Si  tau(   7) = (   0.5432728   0.2422228   0.2299581  )
         8           Si  tau(   8) = (   0.6735122   0.1122831   0.1274865  )
         9           Si  tau(   9) = (   0.7796380  -0.0102563   0.2278825  )
        10           Si  tau(  10) = (   0.7778238   0.2559224  -0.0145912  )
        11           Si  tau(  11) = (  -0.0191209   0.4959292   0.0156125  )
        12           Si  tau(  12) = (   0.2464573   0.5160487   0.2352418  )
        13           Si  tau(  13) = (   0.1474224   0.6137873   0.1107190  )
        14           Si  tau(  14) = (   0.4004407   0.3620520   0.1176702  )
        15           Si  tau(  15) = (   0.5228660   0.5215519  -0.0068839  )
        16           Si  tau(  16) = (   0.6672236   0.6195566   0.1349567  )
        17           Si  tau(  17) = (   0.9338725   0.3733637   0.1333338  )
        18           Si  tau(  18) = (   0.7803295   0.5042989   0.2297647  )
        19           Si  tau(  19) = (  -0.0179307   0.7569839   0.2366295  )
        20           Si  tau(  20) = (   0.2601965   0.7591338   0.0004412  )
        21           Si  tau(  21) = (   0.3826511   0.8660509   0.1292846  )
        22           Si  tau(  22) = (   0.5425553   0.7588397   0.2347688  )
        23           Si  tau(  23) = (   0.7890194   0.7582202   0.0027403  )
        24           Si  tau(  24) = (   0.9119741   0.8677057   0.1131610  )
        25           Si  tau(  25) = (   0.0066032   0.0096269   0.4956433  )
        26           Si  tau(  26) = (   0.2562230   0.2443798   0.5016983  )
        27           Si  tau(  27) = (   0.1272889   0.1417382   0.6018668  )
        28           Si  tau(  28) = (   0.4003808   0.1157975   0.3645891  )
        29           Si  tau(  29) = (   0.5263017   0.0081161   0.5004817  )
        30           Si  tau(  30) = (   0.6588043   0.1285675   0.5982224  )
        31           Si  tau(  31) = (   0.9297152   0.1377526   0.3565731  )
        32           Si  tau(  32) = (   0.7797179   0.2427754   0.4863358  )
        33           Si  tau(  33) = (   0.1205251   0.3719253   0.3575850  )
        34           Si  tau(  34) = (   0.0183392   0.5101315   0.4772195  )
        35           Si  tau(  35) = (   0.1125115   0.6190324   0.6229951  )
        36           Si  tau(  36) = (   0.6557735   0.3700423   0.3694893  )
        37           Si  tau(  37) = (   0.3930091   0.6299625   0.3605305  )
        38           Si  tau(  38) = (   0.3902666   0.3765364   0.6129280  )
        39           Si  tau(  39) = (   0.5341366   0.4911618   0.4925228  )
        40           Si  tau(  40) = (   0.6578484   0.6412157   0.6009920  )
        41           Si  tau(  41) = (   0.9141822   0.6202475   0.3496752  )
        42           Si  tau(  42) = (   0.9044319   0.3638505   0.5942017  )
        43           Si  tau(  43) = (   0.1129576   0.8774646   0.3638263  )
        44           Si  tau(  44) = (   0.2800746   0.7443028   0.4753392  )
        45           Si  tau(  45) = (   0.6448614   0.8930754   0.3697799  )
        46           Si  tau(  46) = (   0.4001588   0.8813325   0.6167458  )
        47           Si  tau(  47) = (   0.7731930   0.7599622   0.4850807  )
        48           Si  tau(  48) = (   0.9265185   0.8731967   0.5941803  )
        49           Si  tau(  49) = (  -0.0027263   0.2456402   0.7137130  )
        50           Si  tau(  50) = (   0.2468260  -0.0108075   0.7208350  )
        51           Si  tau(  51) = (   0.4111107   0.1160839   0.8639358  )
        52           Si  tau(  52) = (   0.5264132   0.2414696   0.7318322  )
        53           Si  tau(  53) = (   0.7886070  -0.0036429   0.7285899  )
        54           Si  tau(  54) = (   0.9312832   0.1110379   0.8555328  )
        55           Si  tau(  55) = (   0.1258024   0.3634050   0.8417717  )
        56           Si  tau(  56) = (   0.2640755   0.5160820   0.7372485  )
        57           Si  tau(  57) = (   0.6674225   0.3958313   0.8481362  )
        58           Si  tau(  58) = (   0.3764040   0.6400923   0.8414770  )
        59           Si  tau(  59) = (   0.8036459   0.5152661   0.7397575  )
        60           Si  tau(  60) = (   0.9242964   0.6454935   0.8390532  )
        61           Si  tau(  61) = (  -0.0099684   0.7409119   0.7455224  )
        62           Si  tau(  62) = (   0.1403736   0.8781013   0.8400235  )
        63           Si  tau(  63) = (   0.5133943   0.7550813   0.7250349  )
        64           Si  tau(  64) = (   0.6392617   0.8915724   0.8489645  )

     number of k points=     1  Fermi-Dirac smearing, width (Ry)=  0.0100
                       cart. coord. in units 2pi/alat
        k(    1) = (   0.0000000   0.0000000   0.0000000), wk =   2.0000000

     Dense  grid:   100351 G-vectors     FFT dimensions: (  75,  75,  72)

     Estimated max dynamical RAM per process >     160.52 MB

     Estimated total dynamical RAM >     617.59 MB

     Initial potential from superposition of free atoms

     starting charge     255.9608, renormalised to     256.0000
     Starting wfcs are  256 randomized atomic wfcs

     total cpu time spent up to now is        5.0 secs

     Self-consistent Calculation

     iteration #  1     ecut=    30.00 Ry     beta= 0.50
     Davidson diagonalization with overlap
     ethr =  1.00E-02,  avg # of iterations =  3.0

     Threshold (ethr) on eigenvalues was too large:
     Diagonalizing with lowered threshold

     Davidson diagonalization with overlap
     ethr =  8.65E-04,  avg # of iterations =  2.0

     total cpu time spent up to now is        5.3 secs

     total energy              =    -500.91920324 Ry
     estimated scf accuracy    <       2.58853705 Ry

     iteration #  2     ecut=    30.00 Ry     beta= 0.50
     Davidson diagonalization with overlap
     ethr =  1.01E-03,  avg # of iterations =  5.0

     total cpu time spent up to now is        5.4 secs

     total energy              =    -500.32795791 Ry
     estimated scf accuracy    <       6.15989329 Ry

     iteration #  3     ecut=    30.00 Ry     beta= 0.50
     Davidson diagonalization with overlap
     ethr =  1.01E-03,  avg # of iterations =  4.0

     total cpu time spent up to now is        5.6 secs

     total energy              =    -501.17966047 Ry
     estimated scf accuracy    <       1.72546672 Ry

     iteration #  4     ecut=    30.00 Ry     beta= 0.50
     Davidson diagonalization with overlap
     ethr =  6.74E-04,  avg # of iterations =  3.0

     total cpu time spent up to now is        5.7 secs

     total energy              =    -501.30197202 Ry
     estimated scf accuracy    <       0.48076018 Ry

     iteration #  5     ecut=    30.00 Ry     beta= 0.50
     Davidson diagonalization with overlap
     ethr =  1.88E-04,  avg # of iterations =  3.0

     total cpu time spent up to now is        5.8 secs

     total energy              =    -501.36544168 Ry
     estimated scf accuracy    <       0.13464384 Ry

     iteration #  6     ecut=    30.00 Ry     beta= 0.50
     Davidson diagonalization with overlap
     ethr =  5.26E-05,  avg # of iterations = 10.0

     total cpu time spent up to now is        6.0 secs

     total energy              =    -501.38566507 Ry
     estimated scf accuracy    <       0.01657059 Ry

     iteration #  7     ecut=    30.00 Ry     beta= 0.50
     Davidson diagonalization with overlap
     ethr =  6.47E-06,  avg # of iterations = 18.0

     total cpu time spent up to now is        6.2 secs

     total energy              =    -501.38819780 Ry
     estimated scf accuracy    <       0.00561475 Ry

     iteration #  8     ecut=    30.00 Ry     beta= 0.50
     Davidson diagonalization with overlap
     ethr =  2.19E-06,  avg # of iterations =  6.0

     total cpu time spent up to now is        6.3 secs

     total energy              =    -501.38879414 Ry
     estimated scf accuracy    <       0.00394953 Ry

     iteration #  9     ecut=    30.00 Ry     beta= 0.50
     Davidson diagonalization with overlap
     ethr =  1.54E-06,  avg # of iterations =  3.0

     total cpu time spent up to now is        6.5 secs

     total energy              =    -501.38929959 Ry
     estimated scf accuracy    <       0.00036388 Ry

     iteration # 10     ecut=    30.00 Ry     beta= 0.50
     Davidson diagonalization with overlap
     ethr =  1.42E-07,  avg # of iterations =  4.0

     total cpu time spent up to now is        6.6 secs

     total energy              =    -501.38934545 Ry
     estimated scf accuracy    <       0.00025224 Ry

     iteration # 11     ecut=    30.00 Ry     beta= 0.50
     Davidson diagonalization with overlap
     ethr =  9.85E-08,  avg # of iterations =  3.0

     total cpu time spent up to now is        6.7 secs

     total energy              =    -501.38937918 Ry
     estimated scf accuracy    <       0.00009459 Ry

     iteration # 12     ecut=    30.00 Ry     beta= 0.50
     Davidson diagonalization with overlap
     ethr =  3.70E-08,  avg # of iterations =  2.0

     total cpu time spent up to now is        6.8 secs

     total energy              =    -501.38939074 Ry
     estimated scf accuracy    <       0.00001428 Ry

     iteration # 13     ecut=    30.00 Ry     beta= 0.50
     Davidson diagonalization with overlap
     ethr =  5.58E-09,  avg # of iterations =  4.0

     total cpu time spent up to now is        6.9 secs

     total energy              =    -501.38939268 Ry
     estimated scf accuracy    <       0.00000526 Ry

     iteration # 14     ecut=    30.00 Ry     beta= 0.50
     Davidson diagonalization with overlap
     ethr =  2.05E-09,  avg # of iterations =  3.0

     total cpu time spent up to now is        7.1 secs

     total energy              =    -501.38939362 Ry
     estimated scf accuracy    <       0.00000278 Ry

     iteration # 15     ecut=    30.00 Ry     beta= 0.50
     Davidson diagonalization with overlap
     ethr =  1.09E-09,  avg # of iterations =  2.0

     total cpu time spent up to now is        7.2 secs

     End of self-consistent calculation

          k = 0.0000 0.0000 0.0000 ( 12566 PWs)   bands (ev):

    -6.5840  -5.9014  -5.7228  -5.3846  -5.2397  -5.1546  -5.0490  -4.7813
    -4.5028  -4.3490  -4.3019  -4.2238  -4.1658  -4.0443  -4.0017  -3.9729
    -3.8196  -3.7754  -3.7045  -3.6068  -3.4425  -3.3884  -3.3218  -2.8487
    -2.7307  -2.4149  -2.2281  -2.1868  -2.1524  -2.0350  -2.0060  -1.8867
    -1.8340  -1.7780  -1.6984  -1.6360  -1.6009  -1.5567  -1.4311  -1.3374
    -1.3224  -1.2080  -1.0226  -0.9571  -0.6873  -0.1392  -0.1311  -0.0303
    -0.0058   0.1093   0.1400   0.1993   0.2963   0.4431   0.5653   0.6394
     0.7527   1.3207   1.4116   1.4554   1.4914   1.5584   1.6197   1.7082
     1.8218   1.8751   1.9090   1.9477   2.0114   2.0277   2.1169   2.1755
     2.1921   2.2396   2.2630   2.2971   2.3264   2.3592   2.4220   2.4502
     2.4993   2.5103   2.5904   2.6044   2.6509   2.6929   2.7446   2.7574
     2.8477   2.9582   3.0379   3.1193   3.2968   3.3873   3.4806   3.6235
     3.6956   3.7022   3.8357   3.9027   3.9420   4.0410   4.0629   4.0927
     4.1854   4.2825   4.3144   4.4009   4.4831   4.5314   4.5735   4.6342
     4.6508   4.7207   4.8030   4.8747   4.9361   4.9640   5.0090   5.0238
     5.0923   5.1989   5.2709   5.3356   5.4523   5.6031   5.6691   5.7789
     5.9760   6.0137   6.2487   6.3713   6.4152   6.4548   6.5212   6.5776
     6.6502   6.7286   6.8029   6.8574   6.9541   7.0623   7.0700   7.1112
     7.1868   7.2573   7.3931   7.4915   7.5543   7.7673   7.8134   7.9011
     8.0235   8.0660

     the Fermi energy is     5.8741 ev

!    total energy              =    -501.38939362 Ry
     estimated scf accuracy    <       0.00000059 Ry
     smearing contrib. (-TS)   =      -0.07580588 Ry
     internal energy E=F+TS    =    -501.31358774 Ry

     The total energy is F=E-TS. E is the sum of the following terms:
     one-electron contribution =     118.78217397 Ry
     hartree contribution      =      47.47972319 Ry
     xc contribution           =    -152.67572635 Ry
     ewald contribution        =    -514.89975855 Ry

     convergence has been achieved in  15 iterations

     Forces acting on atoms (cartesian axes, Ry/au):

     atom    1 type  1   force =     0.47325646   -0.62109930    0.57997162
     atom    2 type  1   force =     0.21999761   -0.12561596    0.09647405
     atom    3 type  1   force =     0.02898537    0.00214520   -0.01757771
     atom    4 type  1   force =    -0.03025032    0.00290574    0.01717910
     atom    5 type  1   force =     0.03411165    0.00611779    0.08155485
     atom    6 type  1   force =    -0.10676665    0.03739789    0.14521574
     atom    7 type  1   force =    -0.04406359    0.00963684    0.04809243
     atom    8 type  1   force =    -0.03575061    0.10878402   -0.05987576
     atom    9 type  1   force =     0.06911762   -0.02931830    0.09885809
     atom   10 type  1   force =     0.05931766   -0.08101997    0.10143991
     atom   11 type  1   force =     0.17407266    0.08746666   -0.09522330
     atom   12 type  1   force =     0.10192411   -0.11161054    0.09083361
     atom   13 type  1   force =    -0.10129678    0.08226658   -0.06033051
     atom   14 type  1   force =     0.01928111    0.06402647    0.01438893
     atom   15 type  1   force =     0.00426852   -0.03914703    0.08137857
     atom   16 type  1   force =    -0.09010849    0.09653393   -0.10790443
     atom   17 type  1   force =    -0.26579412    0.09384158   -0.14894985
     atom   18 type  1   force =     0.06887613   -0.10629406    0.10313309
     atom   19 type  1   force =     0.18966632   -0.05774258    0.07824954
     atom   20 type  1   force =    -0.01331612   -0.00380594    0.10225521
     atom   21 type  1   force =     0.03397883    0.03795646    0.02102724
     atom   22 type  1   force =    -0.05403070   -0.00739471    0.03218707
     atom   23 type  1   force =    -0.09163178   -0.01416688    0.01509812
     atom   24 type  1   force =    -0.10626115    0.10650098   -0.05224678
     atom   25 type  1   force =     0.08440958    0.04854542   -0.07525628
     atom   26 type  1   force =     0.07291520    0.06299013   -0.10446126
     atom   27 type  1   force =     0.01573738   -0.09708380    0.05006368
     atom   28 type  1   force =    -0.02408968    0.02765852    0.00126587
     atom   29 type  1   force =    -0.03274564   -0.01550214   -0.03627467
     atom   30 type  1   force =    -0.00947599   -0.02028614    0.07951336
     atom   31 type  1   force =    -0.17064267   -0.17923988    0.11786327
     atom   32 type  1   force =     0.01778109    0.02014272   -0.06241189
     atom   33 type  1   force =     0.10419448    0.03978018    0.04296916
     atom   34 type  1   force =     0.00980268   -0.06046639    0.03096901
     atom   35 type  1   force =     0.08019496    0.02512822   -0.01048655
     atom   36 type  1   force =     0.00210066    0.00121492   -0.04002287
     atom   37 type  1   force =     0.05328514   -0.04553044   -0.03365362
     atom   38 type  1   force =     0.00468239   -0.00170082    0.02102682
     atom   39 type  1   force =    -0.03181009    0.03328980   -0.01018492
     atom   40 type  1   force =    -0.02268059   -0.05228895    0.05497047
     atom   41 type  1   force =    -0.12684202   -0.01409433    0.04151443
     atom   42 type  1   force =    -0.05522129    0.10325655   -0.01180537
     atom   43 type  1   force =     0.04817724   -0.01592881    0.00673817
     atom   44 type  1   force =    -0.07133713    0.06383668    0.05767993
     atom   45 type  1   force =     0.02891733   -0.02930953   -0.01884794
     atom   46 type  1   force =    -0.04614253    0.00444423   -0.05069953
     atom   47 type  1   force =     0.03939737    0.02394244   -0.04321224
     atom   48 type  1   force =    -0.13146976   -0.06946429    0.07671160
     atom   49 type  1   force =     0.07321935   -0.01060750    0.06941359
     atom   50 type  1   force =     0.06393882    0.06982574   -0.03237678
     atom   51 type  1   force =    -0.05690192    0.02696954   -0.10417515
     atom   52 type  1   force =     0.00883807    0.03317221   -0.01075310
     atom   53 type  1   force =    -0.01358645    0.00696666   -0.02177527
     atom   54 type  1   force =    -0.48935701    0.62838428   -0.65925554
     atom   55 type  1   force =     0.00961738    0.03926696   -0.02460224
     atom   56 type  1   force =    -0.05051334   -0.07958109   -0.06204487
     atom   57 type  1   force =    -0.06482070    0.02367317   -0.06446037
     atom   58 type  1   force =     0.10181158   -0.01966010   -0.04479009
     atom   59 type  1   force =    -0.05701818   -0.03133577   -0.09112143
     atom   60 type  1   force =    -0.40462661   -0.49996535    0.49274654
     atom   61 type  1   force =     0.44365438    0.56787213   -0.55543922
     atom   62 type  1   force =    -0.10045113    0.01145153   -0.00956802
     atom   63 type  1   force =     0.04199376   -0.00379072    0.01503276
     atom   64 type  1   force =     0.11748017   -0.15434081   -0.14602830

     Total force =     2.112888     Total SCF correction =     0.001320


     Computing stress (Cartesian axis) and pressure

          total   stress  (Ry/bohr**3)                   (kbar)     P=       43.38
  -0.00004208  -0.00011727   0.00007597           -6.19      -17.25       11.18
  -0.00011727   0.00041553  -0.00056630          -17.25       61.13      -83.31
   0.00007597  -0.00056630   0.00051131           11.18      -83.31       75.22

 
     init_run     :      1.02s CPU      4.94s WALL (       1 calls)
     electrons    :      2.00s CPU      2.15s WALL (       1 calls)
     forces       :      0.04s CPU      0.05s WALL (       1 calls)
     stress       :      0.17s CPU      0.17s WALL (       1 calls)

     Called by init_run:
     wfcinit      :      0.52s CPU      4.25s WALL (       1 calls)
                                        4.25s GPU  (       1 calls)
     potinit      :      0.20s CPU      0.30s WALL (       1 calls)
     hinit0       :      0.28s CPU      0.31s WALL (       1 calls)

     Called by electrons:
     c_bands      :      1.26s CPU      1.33s WALL (      16 calls)
     sum_band     :      0.38s CPU      0.42s WALL (      16 calls)
     v_of_rho     :      0.18s CPU      0.28s WALL (      16 calls)
     mix_rho      :      0.16s CPU      0.18s WALL (      16 calls)

     Called by c_bands:
     init_us_2    :      0.06s CPU      0.06s WALL (      33 calls)
     init_us_2:gp :      0.06s CPU      0.06s WALL (      33 calls)
     regterg      :      1.13s CPU      1.19s WALL (      16 calls)

     Called by *egterg:
     rdiaghg      :      0.42s CPU      1.19s WALL (      90 calls)
                                        1.18s GPU  (      90 calls)
     h_psi        :      1.04s CPU      4.05s WALL (      92 calls)
                                        4.05s GPU  (      92 calls)
     g_psi        :      0.00s CPU      0.00s WALL (      75 calls)
                                        0.00s GPU  (      75 calls)

     Called by h_psi:
     h_psi:calbec :      0.48s CPU      3.40s WALL (      92 calls)
                                        3.40s GPU  (      92 calls)
     vloc_psi     :      0.51s CPU      0.59s WALL (      92 calls)
                                        0.59s GPU  (      92 calls)
     add_vuspsi   :      0.04s CPU      0.05s WALL (      92 calls)
                                        0.05s GPU  (      92 calls)

     General routines
     calbec       :      0.48s CPU      3.40s WALL (      97 calls)
     fft          :      0.40s CPU      0.54s WALL (     135 calls)
                                        0.14s GPU  (      86 calls)
     ffts         :      0.05s CPU      0.06s WALL (      16 calls)
     fftw         :      0.55s CPU      0.74s WALL (    1730 calls)
                                        0.67s GPU  (    1730 calls)
 
     Parallel routines
 
     PWSCF        :      3.27s CPU      7.40s WALL

 
   This run was terminated on:  11:32:32  10May2023            

=------------------------------------------------------------------------------=
   JOB DONE.
=------------------------------------------------------------------------------=
