
     Program PWSCF v.7.0 starts on  8Jul2023 at 22:40:24 

     This program is part of the open-source Quantum ESPRESSO suite
     for quantum simulation of materials; please cite
         "P. Giannozzi et al., J. Phys.:Condens. Matter 21 395502 (2009);
         "P. Giannozzi et al., J. Phys.:Condens. Matter 29 465901 (2017);
         "P. Giannozzi et al., J. Chem. Phys. 152 154105 (2020);
          URL http://www.quantum-espresso.org", 
     in publications or presentations arising from this work. More details at
     http://www.quantum-espresso.org/quote

     Parallel version (MPI & OpenMP), running on       1 processor cores
     Number of MPI processes:                 1
     Threads/MPI process:                     1

     MPI processes distributed on     1 nodes
     107851 MiB available memory on the printing compute node when the environment starts
 
     Reading input from pw-si-7.in
Warning: card &CELL ignored
Warning: card / ignored

     Current dimensions of program PWSCF are:
     Max number of different atomic species (ntypx) = 10
     Max number of k-points (npk) =  40000
     Max angular momentum in pseudopotentials (lmaxx) =  4

     IMPORTANT: XC functional enforced from input :
     Exchange-correlation= PBE
                           (   1   4   3   4   0   0   0)
     Any further DFT definition will be discarded
     Please, verify this is what you really want


     gamma-point specific algorithms are used

     Subspace diagonalization in iterative solution of the eigenvalue problem:
     a serial algorithm will be used

 
     G-vector sticks info
     --------------------
     sticks:   dense  smooth     PW     G-vecs:    dense   smooth      PW
     Sum        4059    4059   1015               198467   198467   24807
 
     Using Slab Decomposition
 


     bravais-lattice index     =            0
     lattice parameter (alat)  =      20.4858  a.u.
     unit-cell volume          =    8942.0719 (a.u.)^3
     number of atoms/cell      =           64
     number of atomic types    =            1
     number of electrons       =       256.00
     number of Kohn-Sham states=          128
     kinetic-energy cutoff     =      30.0000  Ry
     charge density cutoff     =     120.0000  Ry
     scf convergence threshold =      1.0E-06
     mixing beta               =       0.5000
     number of iterations used =            8  plain     mixing
     Exchange-correlation= PBE
                           (   1   4   3   4   0   0   0)

     GPU acceleration is ACTIVE.


     celldm(1)=  20.485793  celldm(2)=   0.000000  celldm(3)=   0.000000
     celldm(4)=   0.000000  celldm(5)=   0.000000  celldm(6)=   0.000000

     crystal axes: (cart. coord. in units of alat)
               a(1) = (   1.000000   0.000000   0.000000 )  
               a(2) = (   0.000000   1.013753   0.000000 )  
               a(3) = (   0.000000   0.000000   1.026001 )  

     reciprocal axes: (cart. coord. in units 2 pi/alat)
               b(1) = (  1.000000  0.000000  0.000000 )  
               b(2) = (  0.000000  0.986434  0.000000 )  
               b(3) = (  0.000000  0.000000  0.974658 )  


     PseudoPot. # 1 for Si read from file:
     ./Si_ONCV_PBE-1.0.upf
     MD5 check sum: 2de5a83d12544a9ea852f39b88f19b1f
     Pseudo is Norm-conserving, Zval =  4.0
     Generated using ONCVPSP code by D. R. Hamann
     Using radial grid of  602 points,  4 beta functions with: 
                l(1) =   0
                l(2) =   0
                l(3) =   1
                l(4) =   1

     atomic species   valence    mass     pseudopotential
        Si             4.00    28.08500     Si( 1.00)

     No symmetry found



   Cartesian axes

     site n.     atom                  positions (alat units)
         1           Si  tau(   1) = (   0.3793519   0.3768353   0.1227465  )
         2           Si  tau(   2) = (  -0.0024816   0.2498976   0.2493533  )
         3           Si  tau(   3) = (   0.3713676   0.1248555   0.3807010  )
         4           Si  tau(   4) = (   0.0033824  -0.0022574  -0.0017479  )
         5           Si  tau(   5) = (   0.1232389   0.3759223   0.3771426  )
         6           Si  tau(   6) = (   0.2481575   0.2461410   0.0042270  )
         7           Si  tau(   7) = (   0.1209716   0.1251335   0.1289129  )
         8           Si  tau(   8) = (   0.2457432   0.0014115   0.2529100  )
         9           Si  tau(   9) = (   0.3751330   0.3722155   0.6343043  )
        10           Si  tau(  10) = (  -0.0016988   0.2475100   0.7643250  )
        11           Si  tau(  11) = (   0.3766981   0.1200217   0.8888717  )
        12           Si  tau(  12) = (   0.0003074   0.0033566   0.5110841  )
        13           Si  tau(  13) = (   0.1292068   0.3752477   0.8906649  )
        14           Si  tau(  14) = (   0.2470330   0.2469377   0.5083228  )
        15           Si  tau(  15) = (   0.1264527   0.1263540   0.6325494  )
        16           Si  tau(  16) = (   0.2544854  -0.0022904   0.7584230  )
        17           Si  tau(  17) = (   0.3758896   0.8729130   0.1223514  )
        18           Si  tau(  18) = (   0.0007683   0.7445773   0.2569621  )
        19           Si  tau(  19) = (   0.3729434   0.6247762   0.3849452  )
        20           Si  tau(  20) = (   0.0036579   0.4941278  -0.0000423  )
        21           Si  tau(  21) = (   0.1278277   0.8732357   0.3807564  )
        22           Si  tau(  22) = (   0.2529532   0.7457697   0.0035818  )
        23           Si  tau(  23) = (   0.1254341   0.6168375   0.1307420  )
        24           Si  tau(  24) = (   0.2510613   0.5011978   0.2504367  )
        25           Si  tau(  25) = (   0.3766804   0.8685857   0.6367750  )
        26           Si  tau(  26) = (   0.0007141   0.7494913   0.7626297  )
        27           Si  tau(  27) = (   0.3726369   0.6240633   0.8924023  )
        28           Si  tau(  28) = (   0.0006724   0.5005904   0.5064480  )
        29           Si  tau(  29) = (   0.1261037   0.8741287   0.8894826  )
        30           Si  tau(  30) = (   0.2525210   0.7442421   0.5045779  )
        31           Si  tau(  31) = (   0.1234311   0.6233225   0.6370289  )
        32           Si  tau(  32) = (   0.2516252   0.4940816   0.7652988  )
        33           Si  tau(  33) = (   0.8800132   0.3741325   0.1310362  )
        34           Si  tau(  34) = (   0.4968039   0.2490686   0.2522916  )
        35           Si  tau(  35) = (   0.8713009   0.1251308   0.3827671  )
        36           Si  tau(  36) = (   0.4967828  -0.0011280   0.0036421  )
        37           Si  tau(  37) = (   0.6240150   0.3744109   0.3819875  )
        38           Si  tau(  38) = (   0.7466283   0.2503007   0.0007808  )
        39           Si  tau(  39) = (   0.6214564   0.1224114   0.1239293  )
        40           Si  tau(  40) = (   0.7509021  -0.0002436   0.2522727  )
        41           Si  tau(  41) = (   0.8781935   0.3748033   0.6365189  )
        42           Si  tau(  42) = (   0.4976761   0.2523688   0.7613232  )
        43           Si  tau(  43) = (   0.8721744   0.1241335   0.8883574  )
        44           Si  tau(  44) = (   0.4984291   0.0033328   0.5057812  )
        45           Si  tau(  45) = (   0.6262937   0.3716836   0.8852163  )
        46           Si  tau(  46) = (   0.7477035   0.2508192   0.5115309  )
        47           Si  tau(  47) = (   0.6259623   0.1224965   0.6323558  )
        48           Si  tau(  48) = (   0.7465896   0.0034472   0.7654128  )
        49           Si  tau(  49) = (   0.8735125   0.8674010   0.1287629  )
        50           Si  tau(  50) = (   0.5034464   0.7474023   0.2557315  )
        51           Si  tau(  51) = (   0.8718839   0.6209108   0.3794684  )
        52           Si  tau(  52) = (   0.5016003   0.4994877  -0.0028130  )
        53           Si  tau(  53) = (   0.6222166   0.8707587   0.3760199  )
        54           Si  tau(  54) = (   0.7488332   0.7432841  -0.0000818  )
        55           Si  tau(  55) = (   0.6262544   0.6207936   0.1271069  )
        56           Si  tau(  56) = (   0.7513510   0.5003632   0.2497656  )
        57           Si  tau(  57) = (   0.8799838   0.8728092   0.6360857  )
        58           Si  tau(  58) = (   0.4998835   0.7441492   0.7650305  )
        59           Si  tau(  59) = (   0.8774653   0.6185934   0.8863527  )
        60           Si  tau(  60) = (   0.4959567   0.4977941   0.5051286  )
        61           Si  tau(  61) = (   0.6234407   0.8696912   0.8862489  )
        62           Si  tau(  62) = (   0.7494415   0.7442183   0.5119630  )
        63           Si  tau(  63) = (   0.6269645   0.6186760   0.6308351  )
        64           Si  tau(  64) = (   0.7460367   0.5007146   0.7611203  )

     number of k points=     1
                       cart. coord. in units 2pi/alat
        k(    1) = (   0.0000000   0.0000000   0.0000000), wk =   2.0000000

     Dense  grid:    99234 G-vectors     FFT dimensions: (  72,  75,  75)

     Estimated max dynamical RAM per process >     289.40 MB

     Initial potential from superposition of free atoms

     starting charge     253.0416, renormalised to     256.0000
     Starting wfcs are random

     total cpu time spent up to now is        2.9 secs

     Self-consistent Calculation

     iteration #  1     ecut=    30.00 Ry     beta= 0.50
     Davidson diagonalization with overlap
     ethr =  1.00E-02,  avg # of iterations = 15.0

     Threshold (ethr) on eigenvalues was too large:
     Diagonalizing with lowered threshold

     Davidson diagonalization with overlap
     ethr =  6.39E-04,  avg # of iterations =  5.0

     total cpu time spent up to now is        3.6 secs

     total energy              =    -503.70988179 Ry
     estimated scf accuracy    <       1.80044246 Ry

     iteration #  2     ecut=    30.00 Ry     beta= 0.50
     Davidson diagonalization with overlap
     ethr =  7.03E-04,  avg # of iterations =  1.0

     total cpu time spent up to now is        3.8 secs

     total energy              =    -503.71158585 Ry
     estimated scf accuracy    <       0.33575308 Ry

     iteration #  3     ecut=    30.00 Ry     beta= 0.50
     Davidson diagonalization with overlap
     ethr =  1.31E-04,  avg # of iterations =  5.0

     total cpu time spent up to now is        4.3 secs

     total energy              =    -503.74367179 Ry
     estimated scf accuracy    <       0.00540716 Ry

     iteration #  4     ecut=    30.00 Ry     beta= 0.50
     Davidson diagonalization with overlap
     ethr =  2.11E-06,  avg # of iterations = 14.0

     total cpu time spent up to now is        4.7 secs

     total energy              =    -503.75339412 Ry
     estimated scf accuracy    <       0.00315493 Ry

     iteration #  5     ecut=    30.00 Ry     beta= 0.50
     Davidson diagonalization with overlap
     ethr =  1.23E-06,  avg # of iterations =  3.0

     total cpu time spent up to now is        5.0 secs

     total energy              =    -503.75408774 Ry
     estimated scf accuracy    <       0.00075876 Ry

     iteration #  6     ecut=    30.00 Ry     beta= 0.50
     Davidson diagonalization with overlap
     ethr =  2.96E-07,  avg # of iterations =  7.0

     total cpu time spent up to now is        5.3 secs

     total energy              =    -503.75414829 Ry
     estimated scf accuracy    <       0.00013075 Ry

     iteration #  7     ecut=    30.00 Ry     beta= 0.50
     Davidson diagonalization with overlap
     ethr =  5.11E-08,  avg # of iterations =  7.0

     total cpu time spent up to now is        5.7 secs

     total energy              =    -503.75418237 Ry
     estimated scf accuracy    <       0.00002787 Ry

     iteration #  8     ecut=    30.00 Ry     beta= 0.50
     Davidson diagonalization with overlap
     ethr =  1.09E-08,  avg # of iterations =  5.0

     total cpu time spent up to now is        6.0 secs

     total energy              =    -503.75418778 Ry
     estimated scf accuracy    <       0.00000281 Ry

     iteration #  9     ecut=    30.00 Ry     beta= 0.50
     Davidson diagonalization with overlap
     ethr =  1.10E-09,  avg # of iterations =  9.0

     total cpu time spent up to now is        6.4 secs

     total energy              =    -503.75418859 Ry
     estimated scf accuracy    <       0.00000325 Ry

     iteration # 10     ecut=    30.00 Ry     beta= 0.50
     Davidson diagonalization with overlap
     ethr =  1.10E-09,  avg # of iterations =  3.0

     total cpu time spent up to now is        6.7 secs

     End of self-consistent calculation

          k = 0.0000 0.0000 0.0000 ( 12404 PWs)   bands (ev):

    -5.8766  -4.9323  -4.9161  -4.8034  -4.7961  -4.7597  -4.6523  -4.0789
    -4.0342  -3.9882  -3.9496  -3.9276  -3.9077  -3.8345  -3.8240  -3.7847
    -3.7327  -3.7162  -3.6783  -3.6573  -3.5999  -3.4869  -3.2502  -2.0008
    -1.9588  -1.9298  -1.8636  -1.8268  -1.8045  -1.7823  -1.7638  -1.7084
    -1.6738  -1.6662  -1.6308  -1.5737  -1.5665  -1.5290  -1.4851  -1.4502
    -1.3755  -1.0677  -0.9176  -0.8547  -0.7766   0.3363   0.3694   0.3859
     0.4181   0.4349   0.4861   0.5037   0.5435   0.5814   0.6025   0.6101
     0.6211   2.0078   2.0313   2.0534   2.0547   2.0964   2.1006   2.1095
     2.1267   2.1593   2.1613   2.1815   2.1904   2.1986   2.2109   2.2279
     2.2449   2.2588   2.2886   2.3043   2.3117   2.3309   2.3510   2.3608
     2.4414   2.4903   2.5072   2.5734   2.5862   2.6309   2.6585   3.0346
     3.0846   3.1135   3.1443   3.2426   3.2911   3.9185   3.9626   4.0039
     4.0072   4.0406   4.0505   4.0757   4.1185   4.1561   4.2009   4.2945
     4.3138   4.4474   4.4660   4.4946   4.5296   4.5534   4.5808   4.5872
     4.6030   4.6089   4.6330   4.6646   4.7030   4.7168   4.7328   4.7643
     4.7972   4.8354   4.8562   5.1825   5.3806   5.7892   5.9205   6.1914

     highest occupied level (ev):     6.1914

!    total energy              =    -503.75418865 Ry
     estimated scf accuracy    <       0.00000043 Ry

     The total energy is the sum of the following terms:
     one-electron contribution =     141.90830068 Ry
     hartree contribution      =      37.96711001 Ry
     xc contribution           =    -153.38800445 Ry
     ewald contribution        =    -530.24159489 Ry

     convergence has been achieved in  10 iterations

     Forces acting on atoms (cartesian axes, Ry/au):

     atom    1 type  1   force =    -0.02089105   -0.01239572    0.00743696
     atom    2 type  1   force =     0.00620474   -0.01792966    0.04885645
     atom    3 type  1   force =     0.00068136   -0.00211214   -0.00731952
     atom    4 type  1   force =    -0.02709366   -0.04212050   -0.02180324
     atom    5 type  1   force =     0.01145943   -0.00933878    0.00345495
     atom    6 type  1   force =     0.01781136    0.00797786   -0.04564427
     atom    7 type  1   force =     0.00416787   -0.01313558   -0.01505094
     atom    8 type  1   force =     0.01612897   -0.05706664   -0.00032702
     atom    9 type  1   force =    -0.01321582    0.00442779   -0.00561599
     atom   10 type  1   force =     0.01910175    0.00886634    0.00033267
     atom   11 type  1   force =    -0.00864044    0.01462221    0.03385775
     atom   12 type  1   force =    -0.00096726   -0.06126480   -0.01959903
     atom   13 type  1   force =    -0.01823139   -0.03672390    0.03269299
     atom   14 type  1   force =     0.00669780    0.02803797   -0.01755015
     atom   15 type  1   force =    -0.00854751   -0.01595502    0.03437985
     atom   16 type  1   force =    -0.01605504   -0.04275678    0.00590970
     atom   17 type  1   force =     0.00228148    0.04221735    0.03572390
     atom   18 type  1   force =    -0.00106638    0.01102198   -0.00393460
     atom   19 type  1   force =     0.01849141   -0.01337960   -0.04506227
     atom   20 type  1   force =    -0.00602193    0.01217910   -0.03286320
     atom   21 type  1   force =    -0.01330403    0.04327067    0.00320478
     atom   22 type  1   force =    -0.03215150    0.00459103   -0.03663537
     atom   23 type  1   force =    -0.01163055    0.03850646   -0.02793789
     atom   24 type  1   force =     0.02294177   -0.02567968    0.02532972
     atom   25 type  1   force =     0.00302250    0.05055286   -0.01683173
     atom   26 type  1   force =     0.00448234   -0.00248526    0.01290115
     atom   27 type  1   force =     0.00789382   -0.01024400    0.02040336
     atom   28 type  1   force =    -0.00556205   -0.00749669    0.00261047
     atom   29 type  1   force =     0.01748041    0.03316864    0.02582661
     atom   30 type  1   force =    -0.02611209    0.03311011    0.04049677
     atom   31 type  1   force =     0.01893165   -0.00474329   -0.00473273
     atom   32 type  1   force =     0.00094480    0.02862898   -0.01774788
     atom   33 type  1   force =    -0.03773895    0.00448910   -0.04391022
     atom   34 type  1   force =     0.01214128   -0.00009354    0.00757689
     atom   35 type  1   force =     0.00906641    0.00239788   -0.00606333
     atom   36 type  1   force =     0.00641590   -0.05209274   -0.05768887
     atom   37 type  1   force =     0.00243251   -0.00376515   -0.02051978
     atom   38 type  1   force =     0.01887256   -0.00058492   -0.02605471
     atom   39 type  1   force =     0.01134935    0.00582592    0.01890537
     atom   40 type  1   force =    -0.00870530   -0.05169092   -0.00234766
     atom   41 type  1   force =    -0.01330660    0.00288715   -0.00208283
     atom   42 type  1   force =     0.01343969   -0.03632099    0.00086485
     atom   43 type  1   force =     0.00895078   -0.00106875    0.05275440
     atom   44 type  1   force =     0.00198104   -0.07273358   -0.00043997
     atom   45 type  1   force =    -0.00744386    0.01336919    0.04268924
     atom   46 type  1   force =     0.01391867    0.00465864   -0.00813726
     atom   47 type  1   force =    -0.01991623    0.01210497    0.01839922
     atom   48 type  1   force =     0.00734194   -0.07438743   -0.01587307
     atom   49 type  1   force =     0.01355180    0.05587204   -0.01214432
     atom   50 type  1   force =    -0.03355150   -0.00829163   -0.02277638
     atom   51 type  1   force =     0.00729627    0.01257236    0.01520931
     atom   52 type  1   force =     0.00823324   -0.00168823   -0.03603904
     atom   53 type  1   force =     0.03035695    0.06475237    0.03761951
     atom   54 type  1   force =     0.01026685    0.01348189   -0.04167669
     atom   55 type  1   force =    -0.01450975    0.00850811   -0.00970842
     atom   56 type  1   force =    -0.00585078   -0.02221960    0.02196421
     atom   57 type  1   force =    -0.02875610    0.05462197   -0.00055636
     atom   58 type  1   force =     0.00394517   -0.00429780   -0.02030460
     atom   59 type  1   force =    -0.00686323    0.01321386    0.04467083
     atom   60 type  1   force =     0.01356178   -0.00328001    0.01115077
     atom   61 type  1   force =     0.01220246    0.05216645    0.04909894
     atom   62 type  1   force =     0.00840629    0.03473669   -0.02728711
     atom   63 type  1   force =    -0.03648529    0.01252072    0.01880543
     atom   64 type  1   force =     0.03016388   -0.02201531   -0.00086055

     Total force =     0.347805     Total SCF correction =     0.001217


     Computing stress (Cartesian axis) and pressure

          total   stress  (Ry/bohr**3)                   (kbar)     P=        3.46
   0.00011373   0.00003228   0.00005012           16.73        4.75        7.37
   0.00003228   0.00001132  -0.00001168            4.75        1.67       -1.72
   0.00005012  -0.00001168  -0.00005443            7.37       -1.72       -8.01

 
     init_run     :      0.99s CPU      2.80s WALL (       1 calls)
     electrons    :      1.82s CPU      3.80s WALL (       1 calls)
     forces       :      0.06s CPU      0.14s WALL (       1 calls)
     stress       :      0.24s CPU      0.53s WALL (       1 calls)

     Called by init_run:
     wfcinit      :      0.59s CPU      1.79s WALL (       1 calls)
                                        1.79s GPU  (       1 calls)
     potinit      :      0.24s CPU      0.56s WALL (       1 calls)
     hinit0       :      0.12s CPU      0.25s WALL (       1 calls)

     Called by electrons:
     c_bands      :      1.13s CPU      2.40s WALL (      11 calls)
     sum_band     :      0.27s CPU      0.53s WALL (      11 calls)
     v_of_rho     :      0.18s CPU      0.47s WALL (      11 calls)
     mix_rho      :      0.23s CPU      0.46s WALL (      11 calls)

     Called by c_bands:
     init_us_2    :      0.04s CPU      0.08s WALL (      23 calls)
     init_us_2:gp :      0.04s CPU      0.08s WALL (      23 calls)
     regterg      :      1.02s CPU      2.15s WALL (      11 calls)

     Called by *egterg:
     rdiaghg      :      0.35s CPU      0.79s WALL (      84 calls)
                                        0.78s GPU  (      84 calls)
     h_psi        :      1.05s CPU      2.57s WALL (      86 calls)
                                        2.57s GPU  (      86 calls)
     g_psi        :      0.00s CPU      0.00s WALL (      74 calls)
                                        0.00s GPU  (      74 calls)

     Called by h_psi:
     h_psi:calbec :      0.47s CPU      1.45s WALL (      86 calls)
                                        1.43s GPU  (      86 calls)
     vloc_psi     :      0.47s CPU      0.96s WALL (      86 calls)
                                        0.95s GPU  (      86 calls)
     add_vuspsi   :      0.04s CPU      0.15s WALL (      86 calls)
                                        0.11s GPU  (      86 calls)

     General routines
     calbec       :      0.47s CPU      1.40s WALL (      91 calls)
     fft          :      0.18s CPU      0.43s WALL (      95 calls)
                                        0.05s GPU  (      59 calls)
     ffts         :      0.05s CPU      0.12s WALL (      11 calls)
     fftw         :      0.03s CPU      1.08s WALL (    1088 calls)
                                        0.52s GPU  (    1088 calls)
 
     Parallel routines
 
     PWSCF        :      3.14s CPU      7.37s WALL

 
   This run was terminated on:  22:40:32   8Jul2023            

=------------------------------------------------------------------------------=
   JOB DONE.
=------------------------------------------------------------------------------=
