10.626546165376052 0.0 0.0 0.0 11.482950147389873 0.0 0.0 0.0 10.606908308062437
11.045587308886596 0.0 0.0 0.0 10.467118855932897 0.0 0.0 0.0 11.503990227792698
11.291372130141731 0.0 0.0 0.0 10.703193264510519 0.0 0.0 0.0 10.836149171342937
10.62236513625285 0.0 0.0 0.0 11.112746622767963 0.0 0.0 0.0 11.494854341449248
10.645147273426888 0.0 0.0 0.0 10.47650685032126 0.0 0.0 0.0 10.774049361760813
11.10265430821265 0.0 0.0 0.0 10.61391546556513 0.0 0.0 0.0 11.374658236109552
10.564214382004089 0.0 0.0 0.0 11.28196823554621 0.0 0.0 0.0 10.964164974292382
11.111238091709353 0.0 0.0 0.0 11.332651733162846 0.0 0.0 0.0 11.087526709621645
11.481764268758043 0.0 0.0 0.0 10.647568167575697 0.0 0.0 0.0 10.852092834495084
10.725951045610849 0.0 0.0 0.0 10.509222478783236 0.0 0.0 0.0 11.051515837698275
11.134015995465724 0.0 0.0 0.0 11.014436663674422 0.0 0.0 0.0 10.879804142257251
10.514761713529033 0.0 0.0 0.0 10.937486678698042 0.0 0.0 0.0 11.243287493612605
10.526229512811263 0.0 0.0 0.0 11.13530873111106 0.0 0.0 0.0 11.38335932958046
10.801469925014981 0.0 0.0 0.0 11.052409674312928 0.0 0.0 0.0 10.993617273511074
11.2222197817313 0.0 0.0 0.0 11.326418092404674 0.0 0.0 0.0 10.617667579869652
11.240743629909716 0.0 0.0 0.0 10.470415468952003 0.0 0.0 0.0 11.105967113787099
10.589078302315787 0.0 0.0 0.0 10.837032159842815 0.0 0.0 0.0 10.96101967768463
10.693535237358734 0.0 0.0 0.0 10.547515013692601 0.0 0.0 0.0 11.002653260465063
10.827159361771713 0.0 0.0 0.0 11.297501991606438 0.0 0.0 0.0 10.942728460799264
10.466525623455984 0.0 0.0 0.0 11.092915782442955 0.0 0.0 0.0 10.473548662149325
11.113584463451192 0.0 0.0 0.0 11.301770789170812 0.0 0.0 0.0 11.063962308821882
11.18799365824941 0.0 0.0 0.0 10.808776613203046 0.0 0.0 0.0 11.454234343334772
10.506712399012766 0.0 0.0 0.0 11.447609507769158 0.0 0.0 0.0 10.746654190069021
10.931338478780274 0.0 0.0 0.0 11.276528285263199 0.0 0.0 0.0 11.515334305670631
10.561236172675475 0.0 0.0 0.0 11.106449428853672 0.0 0.0 0.0 11.001692527256907
11.500864920093566 0.0 0.0 0.0 11.238346177427509 0.0 0.0 0.0 11.195493954735241
10.482255415974292 0.0 0.0 0.0 10.737477370842434 0.0 0.0 0.0 10.983810373117828
10.814784552754364 0.0 0.0 0.0 11.112623719337218 0.0 0.0 0.0 11.438581325757236
11.02736932513461 0.0 0.0 0.0 10.606443610624897 0.0 0.0 0.0 11.269398027082664
11.330733389253485 0.0 0.0 0.0 10.648271986485359 0.0 0.0 0.0 11.417821406083288
10.969522318603442 0.0 0.0 0.0 11.460112265258344 0.0 0.0 0.0 10.777731190384978
10.965110568217398 0.0 0.0 0.0 10.949825204085302 0.0 0.0 0.0 10.557756710608121
11.382888565731601 0.0 0.0 0.0 10.566883433120001 0.0 0.0 0.0 11.220363682790085
10.865401940265007 0.0 0.0 0.0 11.192298423039821 0.0 0.0 0.0 11.062359081236192
11.005585216175527 0.0 0.0 0.0 11.032075659790863 0.0 0.0 0.0 10.479265114382365
11.499933039029655 0.0 0.0 0.0 10.997270965893668 0.0 0.0 0.0 10.87803966014501
11.096629625695545 0.0 0.0 0.0 11.130696278646429 0.0 0.0 0.0 11.49276820670325
11.101009096271879 0.0 0.0 0.0 10.71075312149244 0.0 0.0 0.0 10.802780486900534
10.568873258146434 0.0 0.0 0.0 10.903166719301606 0.0 0.0 0.0 10.92007691651464
10.842669545748555 0.0 0.0 0.0 11.423186073227932 0.0 0.0 0.0 10.634999895938833
11.070103559772408 0.0 0.0 0.0 11.233520428521768 0.0 0.0 0.0 10.523417565576608
11.000764940984634 0.0 0.0 0.0 11.210395517700038 0.0 0.0 0.0 11.318005000352748
10.708957048741784 0.0 0.0 0.0 11.284970430479506 0.0 0.0 0.0 11.091459576608742
10.826774649941239 0.0 0.0 0.0 11.479412625839696 0.0 0.0 0.0 11.372195076481328
11.448993911776334 0.0 0.0 0.0 10.919374902411473 0.0 0.0 0.0 11.12387683166362
11.520590529712152 0.0 0.0 0.0 11.403529809339746 0.0 0.0 0.0 10.443530521089363
10.562618383543695 0.0 0.0 0.0 10.921081963626019 0.0 0.0 0.0 11.3678912838683
10.700572765052629 0.0 0.0 0.0 11.076708598316992 0.0 0.0 0.0 10.883456254180143
10.464851306768752 0.0 0.0 0.0 11.180280866355998 0.0 0.0 0.0 11.092428439635675
10.440796498408625 0.0 0.0 0.0 10.690895337731506 0.0 0.0 0.0 11.100341613213098
11.414146534251836 0.0 0.0 0.0 11.304525070936883 0.0 0.0 0.0 11.361230550919045
11.324699710723838 0.0 0.0 0.0 11.091886534070778 0.0 0.0 0.0 10.734071322010747
10.93151628232228 0.0 0.0 0.0 10.51219424924868 0.0 0.0 0.0 10.737186717371436
11.35605822291366 0.0 0.0 0.0 11.461658208328533 0.0 0.0 0.0 10.98146728637263
11.312978964736015 0.0 0.0 0.0 11.045890844357562 0.0 0.0 0.0 10.465964916667264
10.799549540925867 0.0 0.0 0.0 11.135588324441315 0.0 0.0 0.0 11.204759439250946
11.364407051729854 0.0 0.0 0.0 10.447640334866806 0.0 0.0 0.0 10.559306998557105
10.522493521720286 0.0 0.0 0.0 10.998920460903214 0.0 0.0 0.0 10.583566074120348
10.569620985541837 0.0 0.0 0.0 10.986973039776942 0.0 0.0 0.0 11.201642041993296
10.440157781518142 0.0 0.0 0.0 11.14330240810339 0.0 0.0 0.0 10.651351733280473
11.209796288410782 0.0 0.0 0.0 11.311726966061302 0.0 0.0 0.0 10.905517577958161
10.585650292360073 0.0 0.0 0.0 11.268424736217298 0.0 0.0 0.0 10.843305020476118
10.687299942312704 0.0 0.0 0.0 11.377998762984488 0.0 0.0 0.0 11.13327028160547
11.046078385335948 0.0 0.0 0.0 10.621986297887744 0.0 0.0 0.0 11.123577671287464
10.501355008955395 0.0 0.0 0.0 11.022988816315237 0.0 0.0 0.0 10.66415751565923
11.138270580220885 0.0 0.0 0.0 10.507343243204273 0.0 0.0 0.0 11.100912820694825
10.879911979318061 0.0 0.0 0.0 10.876201929333114 0.0 0.0 0.0 11.515462037589927
11.00639379894989 0.0 0.0 0.0 11.52417858882769 0.0 0.0 0.0 10.582482541783335
10.933028141606547 0.0 0.0 0.0 10.991476110051577 0.0 0.0 0.0 10.956096830985338
11.386988630741925 0.0 0.0 0.0 11.072719131522078 0.0 0.0 0.0 11.364932033764179
11.208448474061106 0.0 0.0 0.0 10.552933573504117 0.0 0.0 0.0 10.854396003662464
11.284356827890589 0.0 0.0 0.0 10.82867193046671 0.0 0.0 0.0 10.461219419080109
10.82777109062457 0.0 0.0 0.0 10.725112992914358 0.0 0.0 0.0 11.100122016867049
10.835019760024597 0.0 0.0 0.0 11.349043932459924 0.0 0.0 0.0 10.829493899946984
10.469912886766654 0.0 0.0 0.0 11.364535533202204 0.0 0.0 0.0 10.62780964301198
10.98107690294784 0.0 0.0 0.0 10.954711337303863 0.0 0.0 0.0 11.45226393177643
10.472638678566883 0.0 0.0 0.0 10.762730769963186 0.0 0.0 0.0 10.591607853955402
11.155911231638559 0.0 0.0 0.0 11.468778762129864 0.0 0.0 0.0 10.878486031130171
10.613046854790952 0.0 0.0 0.0 11.306853566829199 0.0 0.0 0.0 10.990192087822804
11.072843110180054 0.0 0.0 0.0 10.838785352517068 0.0 0.0 0.0 11.087259951909507
11.147887846805503 0.0 0.0 0.0 10.647737858558573 0.0 0.0 0.0 11.328015418634186
11.339000724779593 0.0 0.0 0.0 10.981300607915697 0.0 0.0 0.0 10.518975531364257
10.963558491465296 0.0 0.0 0.0 11.070222952028763 0.0 0.0 0.0 10.747104956168297
11.19254722812729 0.0 0.0 0.0 10.629215133588415 0.0 0.0 0.0 11.040004001955143
10.692998651669464 0.0 0.0 0.0 10.805938103428398 0.0 0.0 0.0 11.497657493206242
10.451921390859843 0.0 0.0 0.0 11.386354518966884 0.0 0.0 0.0 10.709874810786264
11.497096120015671 0.0 0.0 0.0 10.712154876613841 0.0 0.0 0.0 10.781183441718415
