0.13982353188926244 -3.4508847836765986 0.2727125414422206 2.8047516468471176 1.777607503877629 -1.9875069666483707 2.3782264583253943 -0.5755447850879573 0.2809133320854581 1.7578061528809856 -1.8841807583541939 1.830545746637557 0.35597488910698694 1.825259044317321 0.6053451562788413 0.697111684759877 0.06982781942641522 -2.356387250963116 -2.493299008522222 -5.831706513532995 -2.414708869522145 -1.241954669888603 -1.8035391361417261 2.400392710009789 0.5768719885398129 0.3508308830122022 1.0918264136392228 3.067485736920388 2.321004500588448 -2.0387565088519666 -5.069554660543334 -5.473677827220773 -4.925007497926157 0.8516614671157203 -1.3772723434877119 0.7542158859720365 4.020281803995605 6.578830011434624 4.654198344154236 -3.446647862777116 0.71272573714805 -1.023409101407089 0.0075384744688902425 3.075661330752645 -0.8821151556198872 4.630390957321993 -6.757520909813045 -4.241163219699147 -0.9426798045768217 0.3200529783993972 0.06796068431068941 -1.3280765984893514 -0.11603619966167758 -1.461815871857747 -0.9920619545543754 -2.1865352910325635 -1.8251166052021859 2.897255053494178 -2.75628429537435 1.8315505337529878 -2.8741161534838695 0.8980125435764341 -0.6028439871235425 -3.3452345552349354 3.7506707842968434 5.743321757039999 0.6211903508412141 -3.1672985327446677 0.3715812281856762 0.5148821771005777 2.1482978448179195 0.8162519772681749 2.0591774957104794 -0.6867995042005914 1.023845160503243 0.7320380643234167 0.016010002275011134 2.3328991951435047 2.4258132069654224 -3.395354354709462 -3.924599999620563 -2.0489815290140845 2.309385942512913 -2.799081335935218 0.6324247861044527 -0.7571906523296442 0.986726658384391 -1.1257762882221065 3.3021148412273256 -2.0023766846713515 -0.6322381240149434 -4.510483704740684 -1.6035265934673932 -4.183113366744267 1.870063345116205 1.9299829042899728 -0.8851117763543659 0.8529017672807245 -1.1827460207389309 -0.9730208787625243 1.252911426010423 -0.7497915316520958 -0.3446890317805225 -0.6087755221166289 0.45338987412305143 5.28948939606289 2.5428613928313815 3.334536966311773 1.0608675033638633 0.12037596468761204 -2.2640100854812752 0.09864911453348173 -1.524925141613406 -1.382787616878986 -0.6483507133060898 0.5885126581025348 2.1772019294467793 -2.2974079442154305 1.770359564065964 -4.588979998475374 2.6096995335018542 -0.592174166114522 0.652424112044515 0.6822692204304056 1.069334917404926 2.038067453204742 -0.3964098571935818 1.220344804928311 1.0360668993804156 -1.0820202261820784 1.5953152613011945 1.214381902476657 1.8943998649790406 -1.846763236937684 -0.9536028792472286 0.5827721560743317 -1.550276475894001 1.7987512278347793 -1.0970300693273494 1.9168607650857183 -0.05181544200939463 -3.074052077283996 3.1206309534848 -3.0336009112474853 -3.5231335538396804 3.058348036285178 1.08617024379471 -2.2410946143356827 -2.5585674907127287 -1.5435790092691675 1.417185634742882 0.9185877966246245 2.92240404195598 -0.3568858309570305 1.2378550458979325 -0.44828083503126015 3.4662252706884114 -2.67435043671302 4.0296717298509375 -3.241236774795031 0.652368061995599 -1.4036989131103568 -0.45505774874377763 3.0839315411812374 0.09337963860442627 -1.341744068674115 -1.7270025372365674 -1.3138846232596855 1.379347480849186 -0.5723604738227046 -0.8264888245048347 1.865477782628052 1.6720074119476107 2.413400692233682 3.520410755591879 -4.583680954859964 3.3795438700397664 -0.5969242792049978 0.6240393902542349 -0.09561161325873856 3.0060921643042553 -2.484751633172843 2.944397515507936 -1.2901595117286038 2.583149808037783 -2.2487991820687916 -2.0870603381636768 2.5970743885386756 1.6988361021046805 -2.388467419327112 1.6498108212459135 -2.090801036153031
1.6438152657841112 -1.6785236157995738 4.234794854278959 1.4578183206625794 4.477850492086694 -1.1341753109190789 -0.03586714621025435 -2.235013698248925 0.05575565760406526 -2.4224201221234734 -1.6046036285816558 0.7628285673417121 2.4240514870793093 -1.855462564483895 -2.3574763702622366 -0.5208335095880062 -2.9117383347120174 0.6469620604886793 0.036454900392924316 -1.5087909550557048 0.2941681402128353 2.329857580103704 1.3212325789843244 2.065846165979907 -1.4581998723717147 -0.17078784148126072 0.7599355620646332 -3.1511021254904636 2.4742093388806228 4.46502454396662 -0.5918283527393291 0.25693728088583495 1.2958421639356779 -1.5867437175820995 0.8854190231821396 0.9497351687617062 2.059462631051066 0.34627488821040364 0.16066669388685878 -1.8751613284644029 -1.3839340717786035 5.247524878705646 2.8380374054834414 4.873617573489955 -0.24737252001553522 -0.635602412501486 0.32767372816944856 -1.6823797563208704 -0.4820844138442664 -1.594178833703906 -1.4287681973741588 -1.530343741525816 -1.0669517618847302 1.6190712260702116 2.708711430691393 -2.882107399219462 2.52909750627807 1.7883395455831521 -1.4438443749809908 4.803577123832101 -2.3117660127093154 3.070320635266022 -2.362754330831724 2.5237030747353764 0.2886276700105803 1.3921811422787442 -1.2378439901543392 0.2645642013034734 2.722050313892144 -1.6459207421628879 2.896127110537322 -3.753973109197199 2.84626467848924 -3.9798838597945334 3.3771257475165775 0.9434125689777881 -0.5437453811891733 1.8339910248736802 0.3393421656463123 0.08216268684268431 -1.3556989881923103 -1.641756326372553 1.7079997708818198 -1.8799978306210976 1.4714217703786272 -2.6725300956748295 1.1770227451019082 0.3958670973162344 -1.6227774712772052 0.6538603302704095 -4.756132300086577 -1.9116751071197207 0.4620118114641075 -1.067714865303 1.3572568195977335 -0.10273768278055856 1.0659765424556544 -0.3094389503289768 -1.8691508606042646 8.253676692603243 -0.11530652058450465 1.7734096637461971 -0.8013964003125812 1.4686094977408126 -1.331732450074384 1.587690397766085 0.2017120418639429 -0.2955555074786652 -0.861945879760864 -1.2418299713852807 1.1667175065211586 1.2319443368404526 -1.278936389319275 -1.4522050882408601 -0.6168004493036344 0.8098846402892503 0.7615525288427658 -0.3851988189691108 -1.080364178635894 1.58403737439453 -5.404406908739093 6.147907979396786 -5.627327723470167 -3.857493950000686 -5.4862080984773005 5.134042041593442 0.6960230796813884 2.532878056366425 0.32396182653550015 0.3024848876086468 -0.23186388285697487 0.3954405513017771 0.23148515936131744 1.7518507066284992 0.4086917598847284 -0.8653451352503999 2.4799536975635674 -1.0236482140010887 -0.7296405106255176 -0.7901408820034198 -2.089806533450246 0.669427331470731 2.987646041783926 0.8080208476076343 -0.5390867993712394 -1.2191980929183777 -2.775602021866355 -0.7135073525090808 -1.9008127104839203 -0.5917712742491485 0.9708943193378248 -0.5090419162697168 -2.5593789308704307 -1.5541459861517364 -0.26910605503788493 -0.6173066995160916 -2.330596515152257 -1.4982707722506714 -2.7308568564401803 1.2202931257547693 -0.2812457757242124 -2.782601850222956 0.7366459954090734 -0.3405629254272909 0.8083054687275886 2.166369871828282 1.23077165668859 -0.19039558840985918 2.9753235156628306 -0.7549787322799901 -2.7535841228343676 -3.385050658790609 -3.7738163691753717 1.7866050793905488 -3.774057795762216 -1.3259973473628195 -2.6465349571626486 1.717111503375101 1.8277247322489942 0.7295440942569694 1.1872763045091166 0.5859922056735264 0.1852883490902809 -1.724625295253643 2.6843880234546798 -4.22556999324658 4.961028910326089 3.419419880299098 -4.473993323124133 -1.2855929754038442 0.7146563785118596 -1.032334686031493
-4.153101393763209 -3.999128566956758 -5.008625429158129 6.958566521737583 0.6531841301389912 -1.9997914404426786 0.8442836865944103 0.8361145205200569 0.917775070915342 -0.7627074683828154 -1.3802177992692812 -2.235964235087652 4.317076326087694 4.3456878191768 3.6028138405801435 -0.49636303525046765 0.24211564249197012 -2.1816046865001653 -1.189904229050267 -3.132611008664812 -1.3308665025296627 -2.200460642864404 2.3358451651457064 -0.8140745100008819 2.1967124886758813 -2.238317051590545 2.034982900742147 1.565635731958891 0.2978283626732419 -1.0308118216290634 1.8501573502208977 -1.2641054949540296 0.30256793424075634 -3.1027844122216823 -3.1962596958637084 -3.0889449352354283 -3.9235543319648687 -3.1312611795051364 2.079547060505767 0.5906618432350538 1.3113515724251867 0.46007911321776895 -0.9054957393273567 -0.0935642438114066 -2.105652242233251 1.8084062344260403 -0.5142095765135853 -0.7381562614060126 -4.765375673061715 4.197316397717526 -5.151704748980528 -0.4041357650829298 -1.6139202779968913 -0.888577109195147 3.8905436813668026 1.276413365787105 -0.45485411737340375 3.820832332913594 3.5387540339857573 -4.715836171570691 -1.3537220669715977 0.6571906801952231 -0.6929860926272775 -0.42202113000378283 0.45216500057701475 0.13557246992239233 -2.6033306538610326 -1.8399035337033733 -3.0536298048739026 0.5539457187609428 3.2890932321566777 0.9961052713858136 1.6930907149804713 0.8960225097295988 -0.7022091538874422 -2.532356893755632 0.16310692789723522 0.9507173301693175 0.004595332680166279 0.0034018265926973675 -1.8818107154601207 1.0474810547546283 -1.3273227510424623 -1.8398246008363217 -0.732856446459654 1.6812816381606852 -1.0372768605281169 1.7037600217688593 0.03995545734701506 0.49340883771815025 -4.870218832221051 -5.6417282151662125 3.9282728204864603 -1.216731633655756 -1.4543033655307858 -0.6879022503464669 1.9022371016352726 0.5660712983798831 0.9436624802050652 1.5001451064552487 2.0063423541873187 -0.4296143689700085 1.5195636201911764 -3.0978905744644902 -2.5343281585493904 2.2119812419094935 1.992642488102723 0.2797483652430795 1.553897617586356 4.224694275509846 1.843375551412374 2.1511731094831856 -0.2451382313683778 -2.179588170290769 1.4379082120022137 -1.2246228634783747 3.425538848712642 -3.315021264876349 2.162019822389702 -3.270802661377606 0.7660915543637 -3.874494855434057 0.027865101841384264 0.8266531179968408 -0.9161143953834674 2.292466541049755 -3.329817449348917 2.3552361680778082 -3.1449253072557903 2.76992811141003 -2.8779969765955147 1.251842104205644 1.0446225022599105 -0.6429601384181378 -1.1472334296546176 0.2687070198272533 -1.383868765758307 1.0565603913480772 -3.2585151022595045 2.1330337195699975 2.7357427237775727 -0.8762391564550844 0.07885496262569 0.23965381121503887 -1.10418930607995 0.828060796977645 -1.6295875522205034 0.713051753028901 1.193283944155777 2.4454086125988463 -2.2014237781086217 -2.436364243008391 2.933852650112554 1.6201642020240743 1.5916002743434525 0.2813941283766186 -2.565483501106272 -1.3286921205861633 -1.5634482373892686 0.7598239761874334 1.1620944059268503 4.078898842307866 0.0766471563410938 1.071228277772897 2.786828229599478 -1.1209019908489404 2.8052388708961815 2.436545762891578 -1.0406730306938594 0.21657070414333024 1.6741267722834587 -0.3049102092206878 -1.6326263390468267 1.640796276452129 2.1154450599539567 -2.0987511442380438 2.6988211681608743 -1.7990888136798564 -0.5847873867321476 1.9185394383397214 -0.8570579555409433 2.8130185148416005 2.4114556526921698 0.4476727691336161 -0.6510501145151238 1.1035179910445383 0.359586003497013 0.4964509669785837 -0.7843962662101588 0.5173931164478897 -0.09105921800136575 1.9165427196246672
-1.226868979200074 2.3499726056860237 1.2657677131478007 -3.6733255734474604 -2.8374465659769776 -3.0900301978798073 -5.2714358809952895 4.737291770341305 7.347518379991223 4.864568575913809 -6.3680059799670845 5.03375590567717 -1.734197255212794 1.8909970099450788 -1.4283313669470563 -5.887082419200139 5.225373796529904 7.063418679757984 2.681850344634491 -4.4871278036235624 2.593701872522017 -0.8135399776536505 1.3035408181315162 -1.0434027709201967 0.7145141965070404 3.2525064341715795 0.33488207299242967 1.0415104389934902 -1.4458467501230003 1.317512192709944 -0.33777739226235376 1.0907133830807023 1.5232148437905186 -1.0805348998858038 0.39893956559397104 0.04950813403245667 0.5623987346243023 -3.322536342306472 -0.6011897393495711 -2.8080215758476417 3.554595114783072 -3.9107651506200005 -0.8268469791752018 -0.8773568149992954 0.20149504075713043 -0.6752305684160694 0.0899004218065742 -0.35247330371163166 2.0045929755963794 -1.5274538215725306 -1.4506685969916757 -1.38863764790186 -1.349537853686921 0.7488854748980586 -2.3228310122742255 1.2414324788365458 1.8155657282889572 -0.4165053423918762 2.322268712012852 0.34274064980490004 7.08493521367352 -5.90844263004347 -6.714366228802442 0.04456904485962647 0.9325028640438199 1.2841498151994142 -0.7233032555535801 0.6060717500322207 1.472229096771271 2.5531136666870093 -1.954393986144486 -0.8503826004032967 -2.723144061176955 2.276135407989899 1.901912885526634 1.2837379244729763 -1.1664015179426364 -1.1362098248506045 2.8299024350811326 -4.868670771007641 -3.068205645805548 -0.5620349235269805 -0.02550457202900769 -0.6992986651088665 0.7600294073300201 3.559851992306637 -1.4825132523060982 0.17412847581871946 1.2397427498389488 -0.07848369532920031 2.61515824262358 -1.4085328441638902 -1.545641805335467 -2.0214203315663637 -0.571449789082977 -0.14573706916021997 1.3557005308542072 4.177970903311379 1.931766735663273 -0.7021911561653132 -0.9123366735085902 -1.2074836326949268 1.156931373668672 -0.06584852306369306 -1.6067535850451231 0.704655815655722 1.660195249804031 0.7993492879755653 -0.5672532345031263 0.40258384721477763 0.4532389503674839 -2.471722310792711 -0.7189418932610908 3.2990878814755438 2.558613770569632 2.834496482209718 -3.03579020558932 -4.375464793328916 -4.116159526431536 4.0258099329026855 2.073214176309204 0.6032160257509804 1.7197931639723218 0.16846973487104533 2.355641373936027 0.2348355638907891 -3.2903996096729267 2.039033416662437 -5.529081757912374 4.577360926179207 -5.529215712387077 4.344432092392827 -0.8973851944050804 -3.7167839017414117 0.533209514654856 -1.0276853601849398 -3.161324317439104 0.1377504514103176 3.4985388952194523 4.140712533180553 -4.489416342547423 1.6099597506872465 -1.2495594788190543 -0.8649628122103168 -3.375962066225779 2.5318390735789493 4.788851387586153 -0.6063142050603301 3.6723202721113983 0.9699358120792974 -1.7673038079587755 0.9755282185654103 -0.46954745771952033 -0.04727744492972503 -1.4403972969726548 -0.6986821145707903 2.331539852902133 2.844938503478649 -1.4034703420393184 0.21668100446894942 1.0451524066214515 -0.6309278898439521 -5.267177105718935 3.4351156937678002 -3.7912947284657927 2.128892186597798 1.1679230967934853 -1.1853592899920617 0.8315850080808195 2.161846530036632 0.35684495041676606 0.17809491666563523 -2.3804067538061653 -0.6724211239917323 0.6593326662388903 -0.395008605970681 1.2227084200644813 1.245315615941036 -1.654914461021066 -2.881983729157404 -2.072947552911378 1.166234653347469 1.7785719246734273 0.8916940575575739 -3.228939445484916 -0.46642408159919024 0.9075001713518951 0.14490377462564724 -0.711532231060581 4.652732044021355 -6.742944811771085 -3.649613317432185
0.08748461327622997 1.7776712672360289 -0.591751990975439 1.4971991364530473 -3.0079970946364516 3.681629465327466 1.223757687264602 0.9448855539788888 0.38112619156163396 -1.6313855246611904 -2.4161600001463746 -5.869266216954324 -0.07826566578112328 -2.524234007538182 -0.3689527894238936 0.03675803345563992 0.3626844399166786 -1.450271104442941 -3.135933645280141 0.6801146359812481 2.095738582663965 0.0668957333812848 -1.8869619206437565 -3.2500785414563764 1.1052383161697545 -2.115898859661924 0.8084106268468851 -0.27336328765234214 0.020574995937874242 -2.445197010808673 2.3379933218369606 1.751552715772106 -3.371607903022142 -1.0666527425870727 1.8174020101667474 -0.16712016282168637 0.2494872523656929 -0.6263343569359987 2.2096734197119234 3.795139813243496 2.3536392559043335 1.2562430614868172 0.5395133453856966 0.5317447571838714 -1.4705118569698479 -2.2179207473223803 0.11129328566005349 -1.27263615813286 -3.520278600889389 0.594451392184473 -0.9489180721770497 -0.01953267071628894 -0.04060260401271072 1.2273356344238477 2.631183414407243 0.06693378570807182 -0.16107344240697422 -0.7769051000394361 -0.62092629854655 -3.806587135848489 -1.1385245890267102 3.386893882646935 -1.70898398917196 1.0562760273384388 -3.8316361083973174 2.1974167138317577 -2.1078178824260023 -1.6037358812647218 -4.33561963630752 0.08394857509851349 3.180129623071065 1.7095285488215202 -0.12255523172711798 -0.03135048928682342 4.516382329613306 -0.23865365208529868 0.9175554987053681 -0.22234334496104935 1.307521142935503 -1.88406145916751 -0.3028528124710268 1.2782159662134824 -1.4865437136217303 -1.3215567950929628 -1.6892399737758135 -1.5075943636444424 -1.0519462896148335 -0.3639468515688699 0.7942844718581482 0.8577459827469035 -2.656368655423619 3.046571355365224 -1.800024181009932 -2.5031815577432566 -2.231702631597821 -3.162461773477657 0.2251203934855542 0.8693534850788447 0.7723961564254891 7.368314490800968 -4.966260591038672 5.477327765268535 -3.5964858414795873 -3.437845691104454 2.9512741880231106 2.889563084166559 -2.2990441942672732 -0.8550926042844563 -1.0423540179407083 1.9937202945479338 -2.8267944855797706 2.9163454944667255 -2.252506969937682 -2.7477397482384487 -0.2847884987701482 -0.0016215947638230138 3.9008836298402305 0.32199159018300677 -1.2044834124160224 0.4728361557731212 -4.656270396191917 3.6120739257258307 -6.210980482377239 1.4570948122329939 1.4510763739530559 -2.2336669544130436 1.1384909075752974 -2.697561841832477 -1.963579509298496 3.926418797996857 3.991015193821004 -1.8171240739150123 -0.6835681417474873 3.2373271553279794 0.056936822396360005 -0.36499817565151976 0.9237004352608416 -2.540474380656444 -0.29655746638061825 0.481161644919681 2.630727043596114 -2.8324252015029865 3.294254464642642 -2.4267722284445816 3.8924172442404315 0.8930114908174169 -0.30190356118388006 -0.5032854734019139 0.5455055584133895 0.5731588013542838 0.08688426068806972 0.3075111371786446 2.569062219596466 1.702051780828501 -0.08182741499045262 0.3735357808088857 2.745010008012111 1.201131208114338 -1.0926399106794538 -3.688859150306685 -4.346294599522863 4.349470169037367 0.6561684095782957 0.6839545785526285 1.9445281490939994 -4.141651757165371 1.0437095035273378 1.1910254871389034 -0.7538842136642306 0.4221008342017827 0.7304612067546 1.9925026200907492 2.1703782216567267 3.4262770124302477 -4.89753706042003 1.1575013872395292 1.2715041014109456 -3.7710665743443763 -3.728848803325746 6.666512599654273 5.922632034169974 3.2834437471803843 -2.1532400193145436 1.8811627974634764 -0.9098146784176847 0.6733456926885306 0.41876457073969814 -0.3034259113656774 1.9748347704973408 -1.783288099202174 -1.8550375611313343 3.3024411142184933
3.1964260462382437 5.640046456588416 -1.3858166335132973 3.618618154602252 -3.2118341532631973 3.519227019696423 -0.775850947743309 0.980226652482344 -1.6826633489995602 1.1920058487743017 0.7147286265106917 0.36800636635022427 -1.2707993620344373 -0.6913588414364997 1.3618881477221576 0.46385657798233015 2.174910048088809 0.06839057275925642 2.4995840701999854 2.658320894053983 -1.9853685801491292 -3.561335775941015 0.06045100619720557 0.8018442864832772 -0.022007614619342742 -0.982755332441469 1.9343427239205655 1.2279989790394592 2.8121158005216733 -1.219119160051326 9.590085722217689 -10.899857608860584 9.475670603099204 -0.5165711347672265 0.9476962839548065 0.6257612580413481 1.3549790793071503 0.42305291370240683 -0.44608999802752847 0.5445655630976235 -1.745353014719297 -0.9343450594588812 -2.530392313830094 0.7100538467428417 1.8699360755097216 -0.606204418955343 1.0354650041303586 1.3420083780790952 -3.112923557538213 2.561049119484002 -2.4482764210649446 1.1649850972110838 0.8318493174857996 -0.6558891877749801 3.386338781474413 3.147022298994135 -2.711352982079298 1.3155416992471343 -1.141015473769364 1.6830983796544499 -1.9278540308724283 -2.06909552615514 0.7906376191341803 1.4306258194081878 -0.7781950224954534 0.9177365043679228 0.506992747050172 -0.4840099130017535 3.1077654103760413 -4.684507022440107 -4.224594259596872 4.598793127911054 -0.846156221026775 4.027712806352354 0.7129172843335657 1.8160398397118982 1.214750084449353 -2.2057807695257363 0.4448895499615242 0.4873009250481995 3.21855167449269 -2.662088074405899 0.5748698705081197 1.6970802957558384 2.404411344250878 -0.19717455900490558 0.9332983633619217 -1.0827244513379546 0.39109641540046836 1.2157355882910739 -1.5617237984989942 2.9723443784298484 -1.3573725192399915 1.6846340995726856 -0.6008660374615652 -0.7210090602027648 -0.17249248287719327 -0.30747925549944466 -0.1829206201890527 0.7681152696619481 0.7367979476059052 -2.4679415035940395 -0.32244513278065756 -0.2145845269512369 1.4403726143823063 -1.238771901285247 -0.9772408303811427 -1.059065417158118 -1.2821052739655596 0.8313636360986327 -1.555163628782973 0.023536135448727208 0.7895983792363885 0.3319988379073637 0.7380302773511096 -1.2758441235471962 1.8909723273547305 -1.957807382701409 1.7726866695372439 -0.7973543690327235 -4.187704585659375 -3.7334526206463448 4.1765483119322395 -4.956347702800335 3.5295212025335796 -3.379200370657419 4.890778658650274 -5.29221630807575 -4.181720343051482 0.409398813254082 1.7795337743660646 -0.5170776420899998 -1.9402297788289617 0.6614198877852222 -2.1955889165943994 1.5529213697160158 -3.683755767641849 -1.2506748233704201 1.1892478264131905 -2.269961932189336 0.2965641512488376 -1.862303241554812 -4.748310232938996 3.114484988488062 4.45654427440975 -4.801756011462962 5.401154977460698 0.5081363737363119 4.0630734452398345 -1.4015792956641926 0.769432702921791 1.4026643011982554 -1.1197084847614716 -0.4993126047970949 -0.558198837610342 0.3650290288894552 -0.7117651730069936 2.289398700757709 1.4142360651962547 -1.7305586300189422 1.0945042175817021 -2.4204262316218963 -1.5225167892822296 -0.32530291394442684 -0.20406871502157756 1.7081614932706646 0.8351465001798327 -0.8315878362942967 2.2310752824264672 -2.9638602522182373 -2.9292316064007746 -2.1921690922795727 -0.7386128893274571 0.20897592251520786 1.2840927367092339 -1.6104734570988715 1.6598707765850766 -7.738970636069214 9.23676626845568 -11.345678412387123 -0.07677082640315167 0.4338536038623367 -0.3251417057762142 -0.07610002558837217 -4.13681165546425 -0.7408227524945822 0.6766202496747444 1.1273963403240324 -2.2596227550468573 -1.4191612704120138 -0.28481652379460626 -1.6252377598922398
1.0983863262449276 1.3184308478694713 -1.2069344450596762 1.6311299570069586 -1.4344377369551102 1.294568439429577 2.0189764980115616 2.4640835633005302 0.20034704319561622 -2.006043849110294 -2.580786192901613 -2.9018899811630283 -1.1082807025405041 2.815534853505551 -2.062239936685887 0.12429458301572786 1.3331900084565167 -1.0509808403777707 0.9839809773184539 -1.1579209912754511 2.0605923737801355 0.16147761982392833 -0.3997895722990921 -0.3001603532405282 -2.1694281990386313 0.2842436820102718 -0.19019581369422728 0.16264387221788762 -0.11670931446930222 -2.55876135189109 -0.26186042921906516 1.3158782566509466 -1.3077625695223476 0.33098402348960415 1.9858717450377927 -0.7403658674628216 -1.448863168351821 -4.229230215706988 1.5394755286237551 -1.1119645791499946 -0.6073801844309992 2.200906986373203 1.9564791508082886 1.5905592346734478 -4.252811088350722 2.150186834310516 -0.3907364609578884 0.5066826720089209 -0.5968492029926882 0.6763932212656029 -0.7069903773261694 0.8176043775310113 2.529159212753941 -1.7186947887018207 0.16496326437968364 -0.28769538800429806 1.4494303537092006 2.937356292390438 3.2479416976190323 -4.131874880284265 0.9413595431035015 -3.48858975442654 -0.5584896293778834 0.04728001603288632 2.2989974001897377 0.710230738640338 -1.626788135098495 -1.452827809426524 -1.754755796090436 -0.09499172028655253 0.34151680470012796 -1.1175382165830303 -0.3489874020455603 1.7706272159050538 1.2640319614036166 -2.7644856002382197 -2.4947979616652516 -2.9062045493779816 0.29871642170515006 -1.3843721877572868 0.37379751911070463 -0.5885936478521154 1.6502024002573774 -0.9394692680593241 3.2014484391534994 2.393174080774162 -1.7210000397962295 2.3994781686153193 -1.8303806818146025 -1.8044850449947634 0.9927985756100837 0.109798703392398 0.5952152669336911 -1.0632879398798978 -1.6097185812107182 1.5175316773628122 -0.9200720944796348 -0.24392544200719926 0.8071276463694035 -1.9727012690941057 -1.7502674213017793 -1.649365763288695 -0.07149029473050268 0.21125597679863614 3.271272659035489 -3.0272160907670638 0.33107169810740406 0.00563251569542901 -1.7005690256353876 0.6268650326284881 -1.661650751303635 0.5326996648979729 4.726917111975201 1.4400771946290747 2.616236049068791 -1.38453468147708 1.921702923669368 -3.8401204917192446 3.388405177085138 -6.004668736957756 -0.5696266198313092 -1.160754089848872 1.5376523593720874 1.661545078963706 2.3856726301907947 1.3655869367299835 -2.7912358717488703 -1.1821569810046804 -0.09678840717565912 2.7509873086414687 -0.7661458046404032 1.8092498133732584 -2.506533762044941 1.2180421249370637 -2.4580044469859863 -0.13619596243900417 -4.598449114308074 -1.114334622044068 2.7328499756108093 -2.483149835903362 2.0533259220257087 0.604406703624972 -1.7741871653421701 -2.518396574920798 -0.8442780301674557 -0.1691078826756765 0.733834236991891 -0.43488872999507033 5.503643777455244 -0.27328538322655516 -0.5883182827035416 0.9288968918601164 0.6541889172544217 1.1136098280629014 -0.17199497441548445 3.4774733327984046 -0.14838376275444765 4.8214547754434705 -0.0587569063242343 0.524745700158219 0.1616930782688441 0.34996339280558436 1.5134179123047549 0.1611423479716967 0.5242258230990068 -4.077186744712765 -3.883297284217035 -3.354159625638707 -0.8593544648846039 0.002468773255466716 1.370712173771691 2.873025748633168 3.118512107369584 3.9732385865638733 4.932666814243627 -5.192086495231684 4.438955871904025 0.795825848203339 0.7103222699128799 0.8385390708011494 0.23357855155523646 -2.5677967226204808 -0.48621411974192386 -3.0891714494239375 -2.908236749316662 4.861313559311621 -0.6476804267119426 0.684381381677402 2.8662316085294703 -1.8896916608700938 -3.404885434128349 1.5941160987867706
-1.4644335119862522 0.4271311975368386 1.9879414830826279 -4.344485314228267 3.4310430663603233 3.7396790611720303 -2.1744739889926548 -3.176544476822968 -1.543284875067516 0.6436481656240979 -0.6673249404157474 2.898059294563028 3.0734663799838553 -3.445340713929918 -4.3753449799216 -1.3733946056998605 -2.033301399274666 -2.3397164751756545 4.528276767058047 -4.930026291296987 3.796175453596862 1.2952477248847885 1.0952187271502236 2.6364073818103435 0.8182710645807327 0.43174092839470807 -0.617992926949839 -1.935187331309048 -2.383457881927663 -0.9150774694785209 -3.347419992922028 0.3748532140687286 1.4148911822817503 1.7605515768366067 -0.36814392036935306 -0.26131638379013705 1.5567674829349833 2.1957375263571217 0.9134576744869106 -4.577534989863226 3.986621949849315 -4.657515581452927 -4.579086907731378 4.284329213563661 5.021659636634268 1.4594573989278994 0.15476292680791412 0.22912154422514733 3.659027154546918 2.4819645573460094 2.9646102430103847 2.566122934462484 2.646330554461326 -2.847450471267225 -1.9384755151420163 0.9631339586661153 -0.18501864036866197 -2.956003218067664 -0.7694051921179652 1.0377846534024708 0.3424796828340295 3.1227143183763895 1.581603825252373 -0.5321754169633868 -1.3141101090069305 0.5983394143849695 1.090411278459251 -2.8012027531535955 2.694729000369372 1.7129254903182114 1.3375459714323674 1.4069495588371705 -0.47678691289075315 -0.1552439802093907 -0.6357206832469051 0.3613541511410293 -0.5434808146738769 0.9788338858998756 -0.46155338377045024 -1.4982401761230522 1.2902230179766876 2.020855460201829 2.088774492641306 1.5354121571876589 0.12275166400864021 -1.5146332727690948 -0.6397339181713563 1.430484408734317 -0.9285006848629622 -1.3417191289734507 2.6374180824630447 -2.377954435610931 -2.118455050424874 -2.0672494740853367 0.6783518876538704 0.19981019685553975 -2.037402308816917 0.3419490071415401 -0.3642733816703533 -2.413705882178927 -1.8920822725894577 -1.796414095061171 0.6686110062170226 -0.4931751244407894 1.1043376587323561 -2.4170642571281986 -2.7395759814807334 2.400351058138576 -0.8871861423848915 0.3682632195560367 0.17714977914354652 2.7217088713923254 -2.545820475459706 -2.7124431298196834 -0.15576051483449305 1.1242824772853994 1.5511213403927995 -2.3583214918713513 1.104849051151136 -1.9474617778010268 0.9710773818829082 -0.9310620178322353 0.2187440576455652 1.6400437145568205 1.9030583119849869 1.692192371535918 1.3609833765197012 0.8138091721546372 0.5431607123302968 -0.8796283846422915 -0.42965473528964065 -3.2145561801800513 0.1424475997756708 1.384446492638648 1.387581438723204 1.8084180615005825 3.16247951408947 2.112642814618471 0.5988189251245494 1.2032243431979408 -0.9132381022769369 0.231658194604072 0.4180030099833253 1.083916928984159 -1.062848024129002 -0.32860138219004054 -0.8300657432228157 -1.9509440799226725 -2.4093445198864374 -2.1382206630875755 1.2778238729813864 -0.03085760881080492 1.5713014148851003 -1.4159227088700583 2.3031142505715883 0.8400819898082371 -0.5666482539292758 -2.5655603770907947 -1.5997635268805352 2.6812214528012404 1.0267991009252444 0.013711436048821546 0.9630370280769349 -0.9245208742796078 -2.8488686917709907 -2.4223594440888667 2.054591933222326 1.6606521348357917 4.453212638933357 -4.1541295779174074 -4.928086651072113 1.5475997003927862 -0.9032907612562379 -2.9438786668899883 0.22861400846110955 -3.44260043218062 -0.4837193783445282 1.9052422070101833 0.5703334160903468 0.362919181635304 -0.893647581739519 2.1315684478783807 -0.2508309108777809 0.30221415044576344 0.1732069924457146 -1.75250479527273 -0.31579805977778513 -1.136385174086204 -0.0832345797506244 -2.5767516178209235 4.0493396405935105 -2.3596468955509944