An instance of this daemon is already running
An instance of this daemon is already running

     Program PWSCF v.7.1 starts on  8May2023 at 15:41:10 

     This program is part of the open-source Quantum ESPRESSO suite
     for quantum simulation of materials; please cite
         "P. Giannozzi et al., J. Phys.:Condens. Matter 21 395502 (2009);
         "P. Giannozzi et al., J. Phys.:Condens. Matter 29 465901 (2017);
         "P. Giannozzi et al., J. Chem. Phys. 152 154105 (2020);
          URL http://www.quantum-espresso.org", 
     in publications or presentations arising from this work. More details at
     http://www.quantum-espresso.org/quote

     Parallel version (MPI & OpenMP), running on       4 processor cores
     Number of MPI processes:                 4
     Threads/MPI process:                     1

     MPI processes distributed on     1 nodes
     613356 MiB available memory on the printing compute node when the environment starts
 
     Reading input from pw-si-58.in
Warning: card &CELL ignored
Warning: card / ignored

     Current dimensions of program PWSCF are:
     Max number of different atomic species (ntypx) = 10
     Max number of k-points (npk) =  40000
     Max angular momentum in pseudopotentials (lmaxx) =  4

     IMPORTANT: XC functional enforced from input :
     Exchange-correlation= PBE
                           (   1   4   3   4   0   0   0)
     Any further DFT definition will be discarded
     Please, verify this is what you really want


     gamma-point specific algorithms are used
 
     K-points division:     npool     =       2
     R & G space division:  proc/nbgrp/npool/nimage =       2
     Subspace diagonalization in iterative solution of the eigenvalue problem:
     a serial algorithm will be used

     Message from routine divide_et_impera:
     suboptimal parallelization: some nodes have no k-points
 
     Parallelization info
     --------------------
     sticks:   dense  smooth     PW     G-vecs:    dense   smooth      PW
     Min        2145    2145    565               101011   101011   13722
     Max        2146    2146    566               101014   101014   13725
     Sum        4291    4291   1131               202025   202025   27447
 
     Using Slab Decomposition
 


     bravais-lattice index     =            0
     lattice parameter (alat)  =      21.4006  a.u.
     unit-cell volume          =    9098.9874 (a.u.)^3
     number of atoms/cell      =           64
     number of atomic types    =            1
     number of electrons       =       256.00
     number of Kohn-Sham states=          128
     kinetic-energy cutoff     =      30.0000  Ry
     charge density cutoff     =     120.0000  Ry
     scf convergence threshold =      1.0E-06
     mixing beta               =       0.5000
     number of iterations used =            8  plain     mixing
     Exchange-correlation= PBE
                           (   1   4   3   4   0   0   0)

     GPU acceleration is ACTIVE.
     GPU-aware MPI enabled

     Message from routine print_cuda_info:
     High GPU oversubscription detected. Are you sure this is what you want?

     celldm(1)=  21.400581  celldm(2)=   0.000000  celldm(3)=   0.000000
     celldm(4)=   0.000000  celldm(5)=   0.000000  celldm(6)=   0.000000

     crystal axes: (cart. coord. in units of alat)
               a(1) = (   1.000000   0.000000   0.000000 )  
               a(2) = (   0.000000   0.979442   0.000000 )  
               a(3) = (   0.000000   0.000000   0.947846 )  

     reciprocal axes: (cart. coord. in units 2 pi/alat)
               b(1) = (  1.000000  0.000000  0.000000 )  
               b(2) = (  0.000000  1.020989  0.000000 )  
               b(3) = (  0.000000  0.000000  1.055024 )  


     PseudoPot. # 1 for Si read from file:
     /home/ppiaggi/pseudos/Si_ONCV_PBE_sr.upf
     MD5 check sum: 8553c464762ac42b85b1eed164b4d029
     Pseudo is Norm-conserving, Zval =  4.0
     Generated using ONCVPSP code by D. R. Hamann
     Using radial grid of 1510 points,  4 beta functions with: 
                l(1) =   0
                l(2) =   0
                l(3) =   1
                l(4) =   1

     atomic species   valence    mass     pseudopotential
        Si             4.00    28.08500     Si( 1.00)

     No symmetry found



   Cartesian axes

     site n.     atom                  positions (alat units)
         1           Si  tau(   1) = (  -0.0168033   0.0130550  -0.0037917  )
         2           Si  tau(   2) = (  -0.0111273   0.2287265   0.2347196  )
         3           Si  tau(   3) = (   0.2579319  -0.0108497   0.2127073  )
         4           Si  tau(   4) = (   0.2259698   0.2332786  -0.0005507  )
         5           Si  tau(   5) = (   0.1040333   0.1229828   0.1145045  )
         6           Si  tau(   6) = (   0.4745084  -0.0170519  -0.0082465  )
         7           Si  tau(   7) = (   0.4665503   0.2292525   0.2396678  )
         8           Si  tau(   8) = (   0.5882532   0.1112915   0.1165930  )
         9           Si  tau(   9) = (   0.7086377   0.0019951   0.2214909  )
        10           Si  tau(  10) = (   0.7167950   0.2254912  -0.0044269  )
        11           Si  tau(  11) = (   0.0073010   0.4884950   0.0090156  )
        12           Si  tau(  12) = (   0.2512047   0.4808486   0.2208932  )
        13           Si  tau(  13) = (   0.1301256   0.5912574   0.1293969  )
        14           Si  tau(  14) = (   0.3540507   0.3597253   0.1067038  )
        15           Si  tau(  15) = (   0.4815529   0.4586712  -0.0163408  )
        16           Si  tau(  16) = (   0.5936596   0.5800985   0.1026925  )
        17           Si  tau(  17) = (   0.8457965   0.3532906   0.1125462  )
        18           Si  tau(  18) = (   0.7344754   0.4834830   0.2384358  )
        19           Si  tau(  19) = (   0.0128162   0.7069003   0.2454944  )
        20           Si  tau(  20) = (   0.2512038   0.7187048   0.0125266  )
        21           Si  tau(  21) = (   0.3655570   0.8279564   0.1127225  )
        22           Si  tau(  22) = (   0.4651292   0.6983388   0.2312015  )
        23           Si  tau(  23) = (   0.7390254   0.7095688   0.0056036  )
        24           Si  tau(  24) = (   0.8385367   0.8320189   0.1246785  )
        25           Si  tau(  25) = (  -0.0103495  -0.0055454   0.4653380  )
        26           Si  tau(  26) = (   0.2542057   0.2243678   0.4414314  )
        27           Si  tau(  27) = (   0.1309822   0.1088851   0.5746389  )
        28           Si  tau(  28) = (   0.3692472   0.1259776   0.3295276  )
        29           Si  tau(  29) = (   0.4760476   0.0029452   0.4481572  )
        30           Si  tau(  30) = (   0.6179799   0.1170964   0.5789970  )
        31           Si  tau(  31) = (   0.8263967   0.1283762   0.3538442  )
        32           Si  tau(  32) = (   0.7111674   0.2388544   0.4627560  )
        33           Si  tau(  33) = (   0.1238374   0.3515038   0.3379561  )
        34           Si  tau(  34) = (  -0.0095414   0.4589015   0.4416623  )
        35           Si  tau(  35) = (   0.1202316   0.5910070   0.5563180  )
        36           Si  tau(  36) = (   0.6108775   0.3621812   0.3530681  )
        37           Si  tau(  37) = (   0.3478891   0.5909910   0.3425828  )
        38           Si  tau(  38) = (   0.3737453   0.3652964   0.5767446  )
        39           Si  tau(  39) = (   0.4739663   0.4859020   0.4453725  )
        40           Si  tau(  40) = (   0.5912601   0.5797072   0.5851743  )
        41           Si  tau(  41) = (   0.8553905   0.6049850   0.3595429  )
        42           Si  tau(  42) = (   0.8343259   0.3474820   0.5772511  )
        43           Si  tau(  43) = (   0.1209261   0.8354122   0.3533269  )
        44           Si  tau(  44) = (   0.2346206   0.7039123   0.4674997  )
        45           Si  tau(  45) = (   0.6157202   0.8451999   0.3576282  )
        46           Si  tau(  46) = (   0.3644181   0.8434862   0.5604969  )
        47           Si  tau(  47) = (   0.7348620   0.7132501   0.4715113  )
        48           Si  tau(  48) = (   0.8470123   0.8452167   0.5782972  )
        49           Si  tau(  49) = (   0.0086324   0.2317358   0.7022092  )
        50           Si  tau(  50) = (   0.2398682   0.0119187   0.6766661  )
        51           Si  tau(  51) = (   0.3603224   0.1259573   0.7987344  )
        52           Si  tau(  52) = (   0.4756271   0.2296263   0.6878025  )
        53           Si  tau(  53) = (   0.7282438   0.0038737   0.6913856  )
        54           Si  tau(  54) = (   0.8400949   0.1077932   0.8160333  )
        55           Si  tau(  55) = (   0.1220713   0.3396000   0.7984067  )
        56           Si  tau(  56) = (   0.2578786   0.4728458   0.6942193  )
        57           Si  tau(  57) = (   0.6001894   0.3577790   0.7864279  )
        58           Si  tau(  58) = (   0.3603902   0.5912120   0.7940735  )
        59           Si  tau(  59) = (   0.7292174   0.4698807   0.6801494  )
        60           Si  tau(  60) = (   0.8529209   0.5836308   0.8096824  )
        61           Si  tau(  61) = (   0.0064918   0.7271684   0.6742152  )
        62           Si  tau(  62) = (   0.1085328   0.8399055   0.8018564  )
        63           Si  tau(  63) = (   0.4645626   0.6996055   0.6969139  )
        64           Si  tau(  64) = (   0.5891194   0.8294365   0.8028164  )

     number of k points=     1
                       cart. coord. in units 2pi/alat
        k(    1) = (   0.0000000   0.0000000   0.0000000), wk =   2.0000000

     Dense  grid:   101013 G-vectors     FFT dimensions: (  75,  75,  72)

     Estimated max dynamical RAM per process >     148.11 MB

     Estimated total dynamical RAM >     567.78 MB

     Initial potential from superposition of free atoms

     starting charge     255.9608, renormalised to     256.0000
     Starting wfcs are  256 randomized atomic wfcs

     total cpu time spent up to now is        5.0 secs

     Self-consistent Calculation

     iteration #  1     ecut=    30.00 Ry     beta= 0.50
     Davidson diagonalization with overlap
     ethr =  1.00E-02,  avg # of iterations =  2.0

     Threshold (ethr) on eigenvalues was too large:
     Diagonalizing with lowered threshold

     Davidson diagonalization with overlap
     ethr =  6.83E-04,  avg # of iterations =  2.0

     total cpu time spent up to now is        5.3 secs

     total energy              =    -502.25506848 Ry
     estimated scf accuracy    <       1.99723120 Ry

     iteration #  2     ecut=    30.00 Ry     beta= 0.50
     Davidson diagonalization with overlap
     ethr =  7.80E-04,  avg # of iterations =  1.0

     total cpu time spent up to now is        5.4 secs

     total energy              =    -502.28790889 Ry
     estimated scf accuracy    <       0.36239667 Ry

     iteration #  3     ecut=    30.00 Ry     beta= 0.50
     Davidson diagonalization with overlap
     ethr =  1.42E-04,  avg # of iterations = 18.0

     total cpu time spent up to now is        5.6 secs

     total energy              =    -502.33805834 Ry
     estimated scf accuracy    <       0.30264903 Ry

     iteration #  4     ecut=    30.00 Ry     beta= 0.50
     Davidson diagonalization with overlap
     ethr =  1.18E-04,  avg # of iterations =  9.0

     total cpu time spent up to now is        5.7 secs

     total energy              =    -502.39001694 Ry
     estimated scf accuracy    <       0.15740944 Ry

     iteration #  5     ecut=    30.00 Ry     beta= 0.50
     Davidson diagonalization with overlap
     ethr =  6.15E-05,  avg # of iterations =  7.0

     total cpu time spent up to now is        5.9 secs

     total energy              =    -502.39815259 Ry
     estimated scf accuracy    <       0.02363842 Ry

     iteration #  6     ecut=    30.00 Ry     beta= 0.50
     Davidson diagonalization with overlap
     ethr =  9.23E-06,  avg # of iterations = 11.0

     total cpu time spent up to now is        6.1 secs

     total energy              =    -502.40380091 Ry
     estimated scf accuracy    <       0.01428976 Ry

     iteration #  7     ecut=    30.00 Ry     beta= 0.50
     Davidson diagonalization with overlap
     ethr =  5.58E-06,  avg # of iterations = 12.0

     total cpu time spent up to now is        6.3 secs

     total energy              =    -502.40465321 Ry
     estimated scf accuracy    <       0.00924294 Ry

     iteration #  8     ecut=    30.00 Ry     beta= 0.50
     Davidson diagonalization with overlap
     ethr =  3.61E-06,  avg # of iterations =  9.0

     total cpu time spent up to now is        6.4 secs

     total energy              =    -502.40531837 Ry
     estimated scf accuracy    <       0.00108927 Ry

     iteration #  9     ecut=    30.00 Ry     beta= 0.50
     Davidson diagonalization with overlap
     ethr =  4.25E-07,  avg # of iterations = 12.0

     total cpu time spent up to now is        6.6 secs

     total energy              =    -502.40564793 Ry
     estimated scf accuracy    <       0.00057450 Ry

     iteration # 10     ecut=    30.00 Ry     beta= 0.50
     Davidson diagonalization with overlap
     ethr =  2.24E-07,  avg # of iterations =  9.0

     total cpu time spent up to now is        6.7 secs

     total energy              =    -502.40565681 Ry
     estimated scf accuracy    <       0.00034323 Ry

     iteration # 11     ecut=    30.00 Ry     beta= 0.50
     Davidson diagonalization with overlap
     ethr =  1.34E-07,  avg # of iterations =  3.0

     total cpu time spent up to now is        6.8 secs

     total energy              =    -502.40564832 Ry
     estimated scf accuracy    <       0.00012855 Ry

     iteration # 12     ecut=    30.00 Ry     beta= 0.50
     Davidson diagonalization with overlap
     ethr =  5.02E-08,  avg # of iterations = 10.0

     total cpu time spent up to now is        7.0 secs

     total energy              =    -502.40567769 Ry
     estimated scf accuracy    <       0.00001653 Ry

     iteration # 13     ecut=    30.00 Ry     beta= 0.50
     Davidson diagonalization with overlap
     ethr =  6.46E-09,  avg # of iterations =  8.0

     total cpu time spent up to now is        7.1 secs

     total energy              =    -502.40567734 Ry
     estimated scf accuracy    <       0.00001800 Ry

     iteration # 14     ecut=    30.00 Ry     beta= 0.50
     Davidson diagonalization with overlap
     ethr =  6.46E-09,  avg # of iterations =  3.0

     total cpu time spent up to now is        7.2 secs

     total energy              =    -502.40567689 Ry
     estimated scf accuracy    <       0.00000568 Ry

     iteration # 15     ecut=    30.00 Ry     beta= 0.50
     Davidson diagonalization with overlap
     ethr =  2.22E-09,  avg # of iterations = 11.0

     total cpu time spent up to now is        7.4 secs

     total energy              =    -502.40567881 Ry
     estimated scf accuracy    <       0.00000374 Ry

     iteration # 16     ecut=    30.00 Ry     beta= 0.50
     Davidson diagonalization with overlap
     ethr =  1.46E-09,  avg # of iterations =  2.0

     total cpu time spent up to now is        7.5 secs

     total energy              =    -502.40567829 Ry
     estimated scf accuracy    <       0.00000357 Ry

     iteration # 17     ecut=    30.00 Ry     beta= 0.50
     Davidson diagonalization with overlap
     ethr =  1.39E-09,  avg # of iterations =  8.0

     total cpu time spent up to now is        7.6 secs

     End of self-consistent calculation

          k = 0.0000 0.0000 0.0000 ( 12656 PWs)   bands (ev):

    -6.3710  -5.6723  -5.5629  -5.2640  -5.1230  -5.0232  -4.9534  -4.7613
    -4.5052  -4.4762  -4.4074  -4.3126  -4.2849  -4.2006  -4.0824  -4.0474
    -3.9765  -3.8839  -3.7588  -3.6861  -3.5357  -3.4126  -3.0944  -2.6792
    -2.5410  -2.3583  -2.2758  -2.1718  -2.1414  -2.0957  -2.0270  -1.9979
    -1.9240  -1.8435  -1.8019  -1.7117  -1.6512  -1.6207  -1.5890  -1.4315
    -1.2812  -1.2427  -1.1016  -0.9306  -0.8834  -0.0782  -0.0434   0.0305
     0.0883   0.1593   0.2448   0.2674   0.3007   0.3723   0.4114   0.5520
     0.6331   1.3677   1.4615   1.4846   1.5675   1.6060   1.6313   1.7109
     1.7227   1.7737   1.7992   1.8937   1.9022   1.9380   1.9810   2.0182
     2.0707   2.1466   2.1560   2.2067   2.2423   2.2911   2.3510   2.4456
     2.4651   2.5579   2.5951   2.6311   2.6513   2.6875   2.7238   2.7791
     2.9043   2.9502   3.0181   3.1042   3.1833   3.4717   3.5219   3.5670
     3.6451   3.7059   3.7379   3.7803   3.8517   3.9473   3.9723   4.0227
     4.0700   4.0975   4.2229   4.2408   4.3332   4.3759   4.4172   4.4449
     4.4806   4.5239   4.5790   4.5967   4.6513   4.7517   4.7839   4.8283
     4.9351   5.0722   5.3198   5.3400   5.5993   5.6806   5.8555   5.8615

     highest occupied level (ev):     5.8615

!    total energy              =    -502.40567809 Ry
     estimated scf accuracy    <       0.00000050 Ry

     The total energy is the sum of the following terms:
     one-electron contribution =     120.00150394 Ry
     hartree contribution      =      46.43590893 Ry
     xc contribution           =    -152.63598631 Ry
     ewald contribution        =    -516.20710465 Ry

     convergence has been achieved in  17 iterations

     Forces acting on atoms (cartesian axes, Ry/au):

     atom    1 type  1   force =    -0.04040987   -0.10109594   -0.05614388
     atom    2 type  1   force =    -0.07539529    0.03865355    0.01972568
     atom    3 type  1   force =    -0.07053220    0.00842762    0.04239912
     atom    4 type  1   force =     0.04140611    0.01856744   -0.06919953
     atom    5 type  1   force =     0.04296084   -0.06951772    0.00992570
     atom    6 type  1   force =     0.00987391    0.00251181   -0.05262404
     atom    7 type  1   force =     0.24267751    0.25599836   -0.20746912
     atom    8 type  1   force =    -0.03559741    0.02378827   -0.05276660
     atom    9 type  1   force =     0.08284309   -0.06958747    0.06900648
     atom   10 type  1   force =     0.00608069    0.03970895   -0.04069706
     atom   11 type  1   force =    -0.08096095   -0.06861804   -0.09006580
     atom   12 type  1   force =    -0.02786429   -0.09668279    0.04527543
     atom   13 type  1   force =    -0.04267898    0.08048589   -0.06915043
     atom   14 type  1   force =     0.02146347   -0.07641919   -0.00655590
     atom   15 type  1   force =     0.00800210    0.03302829   -0.07083257
     atom   16 type  1   force =     0.03789581    0.03737164    0.04093810
     atom   17 type  1   force =     0.04969947    0.00301990    0.00862996
     atom   18 type  1   force =    -0.01047018   -0.00848462   -0.03491930
     atom   19 type  1   force =    -0.09551996    0.02345779    0.00016606
     atom   20 type  1   force =    -0.09631092   -0.06613521   -0.14601205
     atom   21 type  1   force =     0.05114824    0.08129803    0.02163508
     atom   22 type  1   force =     0.11886745    0.05502978   -0.01312708
     atom   23 type  1   force =    -0.06254144   -0.03485247   -0.08966239
     atom   24 type  1   force =     0.07123144    0.06298054    0.02092297
     atom   25 type  1   force =    -0.03018492   -0.00865540   -0.02145658
     atom   26 type  1   force =    -0.07881279    0.08692317    0.11393309
     atom   27 type  1   force =    -0.15344990    0.12063678   -0.12591845
     atom   28 type  1   force =    -0.17578746   -0.27546090    0.11209371
     atom   29 type  1   force =     0.07567417   -0.03748376    0.05245959
     atom   30 type  1   force =    -0.12629297   -0.02886369   -0.01484880
     atom   31 type  1   force =     0.09487014   -0.08089408   -0.06553316
     atom   32 type  1   force =     0.03767457    0.02311288    0.01991959
     atom   33 type  1   force =     0.01170629   -0.02086441   -0.03292925
     atom   34 type  1   force =    -0.04413327    0.03774310    0.06911801
     atom   35 type  1   force =    -0.09365231   -0.09952272    0.10878921
     atom   36 type  1   force =    -0.06266153    0.00903222   -0.07046167
     atom   37 type  1   force =    -0.01818893    0.05141985    0.03593270
     atom   38 type  1   force =    -0.02396142   -0.06332386   -0.06734241
     atom   39 type  1   force =     0.06365524   -0.04124586    0.05554931
     atom   40 type  1   force =     0.01818451    0.06584103   -0.04301415
     atom   41 type  1   force =     0.05378922   -0.03406392   -0.05223926
     atom   42 type  1   force =     0.13786452   -0.03274513   -0.03462559
     atom   43 type  1   force =     0.01232088    0.06487370   -0.01052110
     atom   44 type  1   force =     0.08641795    0.11912141   -0.06804142
     atom   45 type  1   force =    -0.04910504   -0.01632742   -0.04856028
     atom   46 type  1   force =    -0.02752178    0.00108990    0.04080301
     atom   47 type  1   force =    -0.05882673    0.01876343    0.02917097
     atom   48 type  1   force =     0.06145020    0.02420580    0.02178004
     atom   49 type  1   force =    -0.13920472   -0.08926244   -0.08267571
     atom   50 type  1   force =     0.11532259   -0.18445769    0.13493788
     atom   51 type  1   force =    -0.06403987   -0.07608321    0.11760625
     atom   52 type  1   force =     0.08161434    0.03705835   -0.04414938
     atom   53 type  1   force =     0.00130744   -0.11876152    0.01730527
     atom   54 type  1   force =     0.06921657    0.05151798    0.04947146
     atom   55 type  1   force =     0.07502809    0.12551102    0.12057994
     atom   56 type  1   force =    -0.14662053   -0.04433731   -0.05813305
     atom   57 type  1   force =     0.00768245   -0.04579013    0.09934323
     atom   58 type  1   force =    -0.05772753   -0.03024624    0.25121062
     atom   59 type  1   force =    -0.00013204    0.05270590    0.06701529
     atom   60 type  1   force =     0.04892739    0.04834049    0.03540782
     atom   61 type  1   force =    -0.07957235   -0.04571995   -0.00148078
     atom   62 type  1   force =     0.05755508    0.07147191    0.07454167
     atom   63 type  1   force =     0.12210753    0.15301932   -0.11770810
     atom   64 type  1   force =     0.05163824    0.03878699    0.05327165

     Total force =     1.093957     Total SCF correction =     0.001375


     Computing stress (Cartesian axis) and pressure

          total   stress  (Ry/bohr**3)                   (kbar)     P=       19.86
   0.00007264   0.00007518   0.00000555           10.69       11.06        0.82
   0.00007518   0.00016059   0.00002963           11.06       23.62        4.36
   0.00000555   0.00002963   0.00017170            0.82        4.36       25.26

 
     init_run     :      1.05s CPU      4.97s WALL (       1 calls)
     electrons    :      2.28s CPU      2.56s WALL (       1 calls)
     forces       :      0.04s CPU      0.05s WALL (       1 calls)
     stress       :      0.14s CPU      0.15s WALL (       1 calls)

     Called by init_run:
     wfcinit      :      0.55s CPU      4.28s WALL (       1 calls)
                                        4.28s GPU  (       1 calls)
     potinit      :      0.20s CPU      0.30s WALL (       1 calls)
     hinit0       :      0.28s CPU      0.31s WALL (       1 calls)

     Called by electrons:
     c_bands      :      1.49s CPU      1.66s WALL (      18 calls)
     sum_band     :      0.40s CPU      0.47s WALL (      18 calls)
     v_of_rho     :      0.18s CPU      0.29s WALL (      18 calls)
     mix_rho      :      0.18s CPU      0.20s WALL (      18 calls)

     Called by c_bands:
     init_us_2    :      0.06s CPU      0.07s WALL (      37 calls)
     init_us_2:gp :      0.06s CPU      0.07s WALL (      37 calls)
     regterg      :      1.33s CPU      1.49s WALL (      18 calls)

     Called by *egterg:
     rdiaghg      :      0.59s CPU      1.50s WALL (     154 calls)
                                        1.47s GPU  (     154 calls)
     h_psi        :      1.09s CPU      4.04s WALL (     156 calls)
                                        4.04s GPU  (     156 calls)
     g_psi        :      0.00s CPU      0.00s WALL (     137 calls)
                                        0.00s GPU  (     137 calls)

     Called by h_psi:
     h_psi:calbec :      0.51s CPU      3.38s WALL (     156 calls)
                                        3.38s GPU  (     156 calls)
     vloc_psi     :      0.49s CPU      0.57s WALL (     156 calls)
                                        0.57s GPU  (     156 calls)
     add_vuspsi   :      0.06s CPU      0.08s WALL (     156 calls)
                                        0.08s GPU  (     156 calls)

     General routines
     calbec       :      0.52s CPU      3.38s WALL (     161 calls)
     fft          :      0.41s CPU      0.54s WALL (     151 calls)
                                        0.14s GPU  (      96 calls)
     ffts         :      0.06s CPU      0.07s WALL (      18 calls)
     fftw         :      0.53s CPU      0.72s WALL (    1726 calls)
                                        0.65s GPU  (    1726 calls)
 
     Parallel routines
 
     PWSCF        :      3.56s CPU      7.82s WALL

 
   This run was terminated on:  15:41:18   8May2023            

=------------------------------------------------------------------------------=
   JOB DONE.
=------------------------------------------------------------------------------=
