An instance of this daemon is already running
An instance of this daemon is already running

     Program PWSCF v.7.1 starts on  8May2023 at 15:34:34 

     This program is part of the open-source Quantum ESPRESSO suite
     for quantum simulation of materials; please cite
         "P. Giannozzi et al., J. Phys.:Condens. Matter 21 395502 (2009);
         "P. Giannozzi et al., J. Phys.:Condens. Matter 29 465901 (2017);
         "P. Giannozzi et al., J. Chem. Phys. 152 154105 (2020);
          URL http://www.quantum-espresso.org", 
     in publications or presentations arising from this work. More details at
     http://www.quantum-espresso.org/quote

     Parallel version (MPI & OpenMP), running on       4 processor cores
     Number of MPI processes:                 4
     Threads/MPI process:                     1

     MPI processes distributed on     1 nodes
     612766 MiB available memory on the printing compute node when the environment starts
 
     Reading input from pw-si-31.in
Warning: card &CELL ignored
Warning: card / ignored

     Current dimensions of program PWSCF are:
     Max number of different atomic species (ntypx) = 10
     Max number of k-points (npk) =  40000
     Max angular momentum in pseudopotentials (lmaxx) =  4

     IMPORTANT: XC functional enforced from input :
     Exchange-correlation= PBE
                           (   1   4   3   4   0   0   0)
     Any further DFT definition will be discarded
     Please, verify this is what you really want


     gamma-point specific algorithms are used
 
     K-points division:     npool     =       2
     R & G space division:  proc/nbgrp/npool/nimage =       2
     Subspace diagonalization in iterative solution of the eigenvalue problem:
     a serial algorithm will be used

     Message from routine divide_et_impera:
     suboptimal parallelization: some nodes have no k-points
 
     Parallelization info
     --------------------
     sticks:   dense  smooth     PW     G-vecs:    dense   smooth      PW
     Min        1924    1924    509                92631    92631   12621
     Max        1927    1927    510                92632    92632   12622
     Sum        3851    3851   1019               185263   185263   25243
 
     Using Slab Decomposition
 


     bravais-lattice index     =            0
     lattice parameter (alat)  =      19.8086  a.u.
     unit-cell volume          =    8342.7049 (a.u.)^3
     number of atoms/cell      =           64
     number of atomic types    =            1
     number of electrons       =       256.00
     number of Kohn-Sham states=          128
     kinetic-energy cutoff     =      30.0000  Ry
     charge density cutoff     =     120.0000  Ry
     scf convergence threshold =      1.0E-06
     mixing beta               =       0.5000
     number of iterations used =            8  plain     mixing
     Exchange-correlation= PBE
                           (   1   4   3   4   0   0   0)

     GPU acceleration is ACTIVE.
     GPU-aware MPI enabled

     Message from routine print_cuda_info:
     High GPU oversubscription detected. Are you sure this is what you want?

     celldm(1)=  19.808592  celldm(2)=   0.000000  celldm(3)=   0.000000
     celldm(4)=   0.000000  celldm(5)=   0.000000  celldm(6)=   0.000000

     crystal axes: (cart. coord. in units of alat)
               a(1) = (   1.000000   0.000000   0.000000 )  
               a(2) = (   0.000000   1.024348   0.000000 )  
               a(3) = (   0.000000   0.000000   1.047848 )  

     reciprocal axes: (cart. coord. in units 2 pi/alat)
               b(1) = (  1.000000  0.000000  0.000000 )  
               b(2) = (  0.000000  0.976230  0.000000 )  
               b(3) = (  0.000000  0.000000  0.954337 )  


     PseudoPot. # 1 for Si read from file:
     /home/ppiaggi/pseudos/Si_ONCV_PBE_sr.upf
     MD5 check sum: 8553c464762ac42b85b1eed164b4d029
     Pseudo is Norm-conserving, Zval =  4.0
     Generated using ONCVPSP code by D. R. Hamann
     Using radial grid of 1510 points,  4 beta functions with: 
                l(1) =   0
                l(2) =   0
                l(3) =   1
                l(4) =   1

     atomic species   valence    mass     pseudopotential
        Si             4.00    28.08500     Si( 1.00)

     No symmetry found



   Cartesian axes

     site n.     atom                  positions (alat units)
         1           Si  tau(   1) = (  -0.0018967  -0.0006682  -0.0024318  )
         2           Si  tau(   2) = (  -0.0043738   0.2826405   0.2519907  )
         3           Si  tau(   3) = (   0.2610853   0.0013483   0.2507480  )
         4           Si  tau(   4) = (   0.2525831   0.2848490   0.0094178  )
         5           Si  tau(   5) = (   0.1322059   0.1284488   0.1531152  )
         6           Si  tau(   6) = (   0.4981456   0.0157128   0.0174711  )
         7           Si  tau(   7) = (   0.5184680   0.2520353   0.2648101  )
         8           Si  tau(   8) = (   0.6504208   0.1404583   0.1492339  )
         9           Si  tau(   9) = (   0.7519102   0.0095949   0.2605151  )
        10           Si  tau(  10) = (   0.7759548   0.2572532   0.0061893  )
        11           Si  tau(  11) = (   0.0004680   0.5450827   0.0101311  )
        12           Si  tau(  12) = (   0.2409242   0.5385552   0.2822142  )
        13           Si  tau(  13) = (   0.1463268   0.6475720   0.1246909  )
        14           Si  tau(  14) = (   0.3695436   0.3812304   0.1327526  )
        15           Si  tau(  15) = (   0.5025474   0.5344638   0.0014301  )
        16           Si  tau(  16) = (   0.6224047   0.6719463   0.1226798  )
        17           Si  tau(  17) = (   0.8982134   0.3948842   0.1431514  )
        18           Si  tau(  18) = (   0.7585160   0.5212342   0.2496348  )
        19           Si  tau(  19) = (   0.0159604   0.7962962   0.2532208  )
        20           Si  tau(  20) = (   0.2471938   0.8164426  -0.0007160  )
        21           Si  tau(  21) = (   0.4019321   0.9209030   0.1420555  )
        22           Si  tau(  22) = (   0.5017583   0.7934461   0.2850446  )
        23           Si  tau(  23) = (   0.7804119   0.7816273   0.0166538  )
        24           Si  tau(  24) = (   0.8836751   0.9167819   0.1313038  )
        25           Si  tau(  25) = (   0.0144977  -0.0149359   0.5233731  )
        26           Si  tau(  26) = (   0.2402975   0.2658955   0.5346638  )
        27           Si  tau(  27) = (   0.1463798   0.1472598   0.6859572  )
        28           Si  tau(  28) = (   0.3872646   0.1483325   0.3940746  )
        29           Si  tau(  29) = (   0.4964506   0.0187772   0.5545953  )
        30           Si  tau(  30) = (   0.6312984   0.1372977   0.6535236  )
        31           Si  tau(  31) = (   0.9009195   0.1234784   0.4179232  )
        32           Si  tau(  32) = (   0.7598631   0.2593525   0.5536321  )
        33           Si  tau(  33) = (   0.1389385   0.4161394   0.4149471  )
        34           Si  tau(  34) = (  -0.0160372   0.5348962   0.5199531  )
        35           Si  tau(  35) = (   0.1326826   0.6765823   0.6827503  )
        36           Si  tau(  36) = (   0.6377800   0.4027758   0.3994848  )
        37           Si  tau(  37) = (   0.3902686   0.6652055   0.3902171  )
        38           Si  tau(  38) = (   0.3682607   0.4097791   0.6886804  )
        39           Si  tau(  39) = (   0.5181146   0.5224352   0.5530014  )
        40           Si  tau(  40) = (   0.6407383   0.6579791   0.6516717  )
        41           Si  tau(  41) = (   0.9092684   0.6654450   0.4040236  )
        42           Si  tau(  42) = (   0.9022077   0.3970691   0.6613901  )
        43           Si  tau(  43) = (   0.1222111   0.9321895   0.4067014  )
        44           Si  tau(  44) = (   0.2457040   0.8038421   0.5177095  )
        45           Si  tau(  45) = (   0.6235440   0.9393472   0.4124556  )
        46           Si  tau(  46) = (   0.4015085   0.9237353   0.6548178  )
        47           Si  tau(  47) = (   0.7796633   0.8057161   0.5290400  )
        48           Si  tau(  48) = (   0.8785182   0.9353731   0.6862887  )
        49           Si  tau(  49) = (  -0.0110843   0.2606145   0.7917251  )
        50           Si  tau(  50) = (   0.2574486   0.0045818   0.8186463  )
        51           Si  tau(  51) = (   0.3931865   0.1322963   0.9539915  )
        52           Si  tau(  52) = (   0.5225959   0.2558910   0.7851836  )
        53           Si  tau(  53) = (   0.7666834  -0.0132310   0.8074260  )
        54           Si  tau(  54) = (   0.8838757   0.1241471   0.9426552  )
        55           Si  tau(  55) = (   0.1243013   0.4020731   0.9254815  )
        56           Si  tau(  56) = (   0.2401926   0.5492160   0.7998269  )
        57           Si  tau(  57) = (   0.6244698   0.4063879   0.9259855  )
        58           Si  tau(  58) = (   0.3928125   0.6795060   0.9381652  )
        59           Si  tau(  59) = (   0.7530815   0.5156314   0.8228663  )
        60           Si  tau(  60) = (   0.8825029   0.6624135   0.9277990  )
        61           Si  tau(  61) = (   0.0169917   0.8110094   0.8120169  )
        62           Si  tau(  62) = (   0.1223527   0.9305047   0.9298322  )
        63           Si  tau(  63) = (   0.5146076   0.8058864   0.8067076  )
        64           Si  tau(  64) = (   0.6453368   0.9204215   0.9380423  )

     number of k points=     1
                       cart. coord. in units 2pi/alat
        k(    1) = (   0.0000000   0.0000000   0.0000000), wk =   2.0000000

     Dense  grid:    92632 G-vectors     FFT dimensions: (  72,  72,  75)

     Estimated max dynamical RAM per process >     136.76 MB

     Estimated total dynamical RAM >     524.43 MB

     Initial potential from superposition of free atoms

     starting charge     255.9608, renormalised to     256.0000
     Starting wfcs are  256 randomized atomic wfcs

     total cpu time spent up to now is        5.3 secs

     Self-consistent Calculation

     iteration #  1     ecut=    30.00 Ry     beta= 0.50
     Davidson diagonalization with overlap
     ethr =  1.00E-02,  avg # of iterations =  2.0

     Threshold (ethr) on eigenvalues was too large:
     Diagonalizing with lowered threshold

     Davidson diagonalization with overlap
     ethr =  7.80E-04,  avg # of iterations =  2.0

     total cpu time spent up to now is        5.5 secs

     total energy              =    -501.74339328 Ry
     estimated scf accuracy    <       2.29472426 Ry

     iteration #  2     ecut=    30.00 Ry     beta= 0.50
     Davidson diagonalization with overlap
     ethr =  8.96E-04,  avg # of iterations =  2.0

     total cpu time spent up to now is        5.6 secs

     total energy              =    -501.77124782 Ry
     estimated scf accuracy    <       0.38995834 Ry

     iteration #  3     ecut=    30.00 Ry     beta= 0.50
     Davidson diagonalization with overlap
     ethr =  1.52E-04,  avg # of iterations = 17.0

     total cpu time spent up to now is        5.8 secs

     total energy              =    -501.89034183 Ry
     estimated scf accuracy    <       0.22520469 Ry

     iteration #  4     ecut=    30.00 Ry     beta= 0.50
     Davidson diagonalization with overlap
     ethr =  8.80E-05,  avg # of iterations = 13.0

     total cpu time spent up to now is        6.0 secs

     total energy              =    -501.92236222 Ry
     estimated scf accuracy    <       0.07695869 Ry

     iteration #  5     ecut=    30.00 Ry     beta= 0.50
     Davidson diagonalization with overlap
     ethr =  3.01E-05,  avg # of iterations = 11.0

     total cpu time spent up to now is        6.1 secs

     total energy              =    -501.92955060 Ry
     estimated scf accuracy    <       0.00962996 Ry

     iteration #  6     ecut=    30.00 Ry     beta= 0.50
     Davidson diagonalization with overlap
     ethr =  3.76E-06,  avg # of iterations =  9.0

     total cpu time spent up to now is        6.2 secs

     total energy              =    -501.93098581 Ry
     estimated scf accuracy    <       0.01545192 Ry

     iteration #  7     ecut=    30.00 Ry     beta= 0.50
     Davidson diagonalization with overlap
     ethr =  3.76E-06,  avg # of iterations =  8.0

     total cpu time spent up to now is        6.4 secs

     total energy              =    -501.93273666 Ry
     estimated scf accuracy    <       0.00173037 Ry

     iteration #  8     ecut=    30.00 Ry     beta= 0.50
     Davidson diagonalization with overlap
     ethr =  6.76E-07,  avg # of iterations =  8.0

     total cpu time spent up to now is        6.5 secs

     total energy              =    -501.93301024 Ry
     estimated scf accuracy    <       0.00085445 Ry

     iteration #  9     ecut=    30.00 Ry     beta= 0.50
     Davidson diagonalization with overlap
     ethr =  3.34E-07,  avg # of iterations =  8.0

     total cpu time spent up to now is        6.6 secs

     total energy              =    -501.93309400 Ry
     estimated scf accuracy    <       0.00033840 Ry

     iteration # 10     ecut=    30.00 Ry     beta= 0.50
     Davidson diagonalization with overlap
     ethr =  1.32E-07,  avg # of iterations =  9.0

     total cpu time spent up to now is        6.7 secs

     total energy              =    -501.93312404 Ry
     estimated scf accuracy    <       0.00006162 Ry

     iteration # 11     ecut=    30.00 Ry     beta= 0.50
     Davidson diagonalization with overlap
     ethr =  2.41E-08,  avg # of iterations =  7.0

     total cpu time spent up to now is        6.9 secs

     total energy              =    -501.93313525 Ry
     estimated scf accuracy    <       0.00003152 Ry

     iteration # 12     ecut=    30.00 Ry     beta= 0.50
     Davidson diagonalization with overlap
     ethr =  1.23E-08,  avg # of iterations =  8.0

     total cpu time spent up to now is        7.0 secs

     total energy              =    -501.93313538 Ry
     estimated scf accuracy    <       0.00001401 Ry

     iteration # 13     ecut=    30.00 Ry     beta= 0.50
     Davidson diagonalization with overlap
     ethr =  5.47E-09,  avg # of iterations = 10.0

     total cpu time spent up to now is        7.1 secs

     total energy              =    -501.93313704 Ry
     estimated scf accuracy    <       0.00000223 Ry

     iteration # 14     ecut=    30.00 Ry     beta= 0.50
     Davidson diagonalization with overlap
     ethr =  8.71E-10,  avg # of iterations =  8.0

     total cpu time spent up to now is        7.2 secs

     End of self-consistent calculation

          k = 0.0000 0.0000 0.0000 ( 11577 PWs)   bands (ev):

    -5.9934  -5.1094  -4.8971  -4.8575  -4.7719  -4.6795  -4.4970  -4.2693
    -4.0489  -3.9812  -3.8033  -3.7804  -3.7499  -3.6487  -3.6240  -3.4576
    -3.3891  -3.3626  -3.3169  -3.2681  -3.0948  -3.0261  -2.9034  -2.1767
    -1.9537  -1.7888  -1.6882  -1.5970  -1.5079  -1.4573  -1.3554  -1.3308
    -1.2622  -1.1701  -1.1315  -1.0685  -1.0555  -0.9607  -0.8991  -0.8247
    -0.7182  -0.6073  -0.4686  -0.4162  -0.1680   0.5980   0.6577   0.7493
     0.7739   0.8393   0.9249   0.9901   1.0855   1.2129   1.2381   1.3089
     1.3878   2.0513   2.0970   2.1432   2.2058   2.2564   2.3128   2.3453
     2.3832   2.4700   2.5139   2.5433   2.5504   2.6121   2.6384   2.6666
     2.7266   2.7328   2.7937   2.8698   2.8949   2.9256   2.9907   3.0059
     3.0286   3.0775   3.1295   3.1746   3.2796   3.3188   3.3741   3.4919
     3.5792   3.6532   3.7165   3.7448   3.9087   4.1840   4.2131   4.3830
     4.4504   4.5011   4.5342   4.6322   4.6674   4.7128   4.7700   4.8320
     4.8677   4.9159   4.9960   5.0105   5.1298   5.1523   5.1780   5.2841
     5.3152   5.3588   5.4874   5.5512   5.5925   5.6261   5.6595   5.7080
     5.7480   5.7860   5.9218   6.0135   6.2006   6.5765   6.6460   6.6648

     highest occupied level (ev):     6.6648

!    total energy              =    -501.93313716 Ry
     estimated scf accuracy    <       0.00000042 Ry

     The total energy is the sum of the following terms:
     one-electron contribution =     148.71303397 Ry
     hartree contribution      =      40.12230089 Ry
     xc contribution           =    -155.39545366 Ry
     ewald contribution        =    -535.37301836 Ry

     convergence has been achieved in  14 iterations

     Forces acting on atoms (cartesian axes, Ry/au):

     atom    1 type  1   force =     0.02275032    0.08731319    0.17546831
     atom    2 type  1   force =     0.20294121   -0.21243117    0.25237025
     atom    3 type  1   force =    -0.00124004    0.03572119    0.13022057
     atom    4 type  1   force =    -0.08780260   -0.13869508   -0.07418656
     atom    5 type  1   force =    -0.05976799    0.09032887   -0.10384175
     atom    6 type  1   force =     0.21279446   -0.02519517    0.03775937
     atom    7 type  1   force =    -0.03410118    0.11383073    0.01174813
     atom    8 type  1   force =    -0.03572352    0.03800578   -0.12959737
     atom    9 type  1   force =     0.07942433   -0.04168634    0.11781715
     atom   10 type  1   force =    -0.09631364    0.09710229    0.05053974
     atom   11 type  1   force =     0.01876616   -0.08403799   -0.00719434
     atom   12 type  1   force =     0.09556021   -0.01310033   -0.04892315
     atom   13 type  1   force =    -0.00275113    0.09340516    0.01031142
     atom   14 type  1   force =     0.12984125    0.13355865    0.13217651
     atom   15 type  1   force =    -0.04296086   -0.04322967    0.06435364
     atom   16 type  1   force =     0.03867719   -0.01843272    0.06939758
     atom   17 type  1   force =    -0.15277189    0.16908390   -0.20069793
     atom   18 type  1   force =    -0.02948840    0.05625339    0.05280417
     atom   19 type  1   force =     0.02929115   -0.04322714    0.03113874
     atom   20 type  1   force =     0.08956981   -0.09654113    0.08476106
     atom   21 type  1   force =    -0.07254049   -0.12079209    0.02323527
     atom   22 type  1   force =     0.10301574    0.05044191   -0.07144489
     atom   23 type  1   force =    -0.11824616    0.00009344   -0.02645438
     atom   24 type  1   force =    -0.00221197    0.00106726    0.08395162
     atom   25 type  1   force =    -0.21077517    0.19947426    0.33939029
     atom   26 type  1   force =     0.06524234    0.02594951   -0.00463862
     atom   27 type  1   force =    -0.03049406   -0.05084632   -0.02740466
     atom   28 type  1   force =    -0.06049603   -0.04597276    0.04983320
     atom   29 type  1   force =     0.09362886    0.19728631   -0.23831953
     atom   30 type  1   force =     0.06221308   -0.05441158    0.08691949
     atom   31 type  1   force =    -0.07922650    0.09365877   -0.08063062
     atom   32 type  1   force =     0.06595472    0.06589423   -0.11383033
     atom   33 type  1   force =    -0.08731688   -0.05398454   -0.00601732
     atom   34 type  1   force =     0.14441736   -0.10449682    0.15168205
     atom   35 type  1   force =    -0.05238387    0.05057657   -0.13026766
     atom   36 type  1   force =     0.01270264   -0.03821407    0.02124268
     atom   37 type  1   force =    -0.07863394   -0.08742345    0.11963655
     atom   38 type  1   force =     0.04400874   -0.04604544   -0.04877305
     atom   39 type  1   force =    -0.08521502   -0.02151341   -0.08194678
     atom   40 type  1   force =     0.07108693    0.05955900    0.08572002
     atom   41 type  1   force =    -0.12759195    0.14582607   -0.17250401
     atom   42 type  1   force =    -0.09828204    0.02086445    0.02083979
     atom   43 type  1   force =     0.24565656   -0.18210980   -0.31255089
     atom   44 type  1   force =     0.08239415   -0.06667754    0.06971387
     atom   45 type  1   force =     0.04273863   -0.07735350   -0.01046950
     atom   46 type  1   force =    -0.22850889   -0.22757417    0.19441554
     atom   47 type  1   force =    -0.05911889   -0.01673322    0.00870829
     atom   48 type  1   force =     0.22329800   -0.17258371   -0.23624861
     atom   49 type  1   force =     0.06640898   -0.01628804    0.06373158
     atom   50 type  1   force =     0.10936390    0.07423804   -0.08522181
     atom   51 type  1   force =    -0.11518255    0.15140133   -0.16581799
     atom   52 type  1   force =    -0.09706445    0.06982240    0.09254248
     atom   53 type  1   force =    -0.17819510    0.24924962    0.11507463
     atom   54 type  1   force =    -0.02698515    0.05524771   -0.14718127
     atom   55 type  1   force =    -0.03305376    0.01484184   -0.01411004
     atom   56 type  1   force =     0.07092774   -0.05643336    0.07734928
     atom   57 type  1   force =    -0.02730078   -0.14506308    0.05844958
     atom   58 type  1   force =    -0.07328335    0.01026738   -0.05431922
     atom   59 type  1   force =     0.09932406    0.09952001   -0.16364685
     atom   60 type  1   force =     0.02853196    0.00557740   -0.06591351
     atom   61 type  1   force =    -0.10752708   -0.11474907   -0.09064672
     atom   62 type  1   force =     0.08279927   -0.03621972   -0.00476162
     atom   63 type  1   force =     0.01782371   -0.04605356   -0.05972884
     atom   64 type  1   force =    -0.05859811   -0.05734465    0.09398696

     Total force =     1.480840     Total SCF correction =     0.001261


     Computing stress (Cartesian axis) and pressure

          total   stress  (Ry/bohr**3)                   (kbar)     P=      110.10
   0.00079645  -0.00012892  -0.00020281          117.16      -18.97      -29.83
  -0.00012892   0.00071090  -0.00029266          -18.97      104.58      -43.05
  -0.00020281  -0.00029266   0.00073788          -29.83      -43.05      108.55

 
     init_run     :      1.16s CPU      5.24s WALL (       1 calls)
     electrons    :      1.82s CPU      1.93s WALL (       1 calls)
     forces       :      0.04s CPU      0.04s WALL (       1 calls)
     stress       :      0.13s CPU      0.14s WALL (       1 calls)

     Called by init_run:
     wfcinit      :      0.52s CPU      4.42s WALL (       1 calls)
                                        4.42s GPU  (       1 calls)
     potinit      :      0.20s CPU      0.29s WALL (       1 calls)
     hinit0       :      0.42s CPU      0.45s WALL (       1 calls)

     Called by electrons:
     c_bands      :      1.24s CPU      1.28s WALL (      15 calls)
     sum_band     :      0.30s CPU      0.33s WALL (      15 calls)
     v_of_rho     :      0.15s CPU      0.26s WALL (      15 calls)
     mix_rho      :      0.13s CPU      0.14s WALL (      15 calls)

     Called by c_bands:
     init_us_2    :      0.05s CPU      0.06s WALL (      31 calls)
     init_us_2:gp :      0.05s CPU      0.06s WALL (      31 calls)
     regterg      :      1.11s CPU      1.14s WALL (      15 calls)

     Called by *egterg:
     rdiaghg      :      0.55s CPU      1.30s WALL (     136 calls)
                                        1.27s GPU  (     136 calls)
     h_psi        :      0.89s CPU      4.07s WALL (     138 calls)
                                        4.07s GPU  (     138 calls)
     g_psi        :      0.00s CPU      0.00s WALL (     122 calls)
                                        0.00s GPU  (     122 calls)

     Called by h_psi:
     h_psi:calbec :      0.48s CPU      3.58s WALL (     138 calls)
                                        3.58s GPU  (     138 calls)
     vloc_psi     :      0.34s CPU      0.40s WALL (     138 calls)
                                        0.40s GPU  (     138 calls)
     add_vuspsi   :      0.06s CPU      0.08s WALL (     138 calls)
                                        0.07s GPU  (     138 calls)

     General routines
     calbec       :      0.48s CPU      3.58s WALL (     143 calls)
     fft          :      0.52s CPU      0.65s WALL (     127 calls)
                                        0.14s GPU  (      81 calls)
     ffts         :      0.04s CPU      0.05s WALL (      15 calls)
     fftw         :      0.38s CPU      0.51s WALL (    1478 calls)
                                        0.45s GPU  (    1478 calls)
 
     Parallel routines
 
     PWSCF        :      3.21s CPU      7.44s WALL

 
   This run was terminated on:  15:34:41   8May2023            

=------------------------------------------------------------------------------=
   JOB DONE.
=------------------------------------------------------------------------------=
