An instance of this daemon is already running

     Program PWSCF v.7.1 starts on  8May2023 at 15:36:15 

     This program is part of the open-source Quantum ESPRESSO suite
     for quantum simulation of materials; please cite
         "P. Giannozzi et al., J. Phys.:Condens. Matter 21 395502 (2009);
         "P. Giannozzi et al., J. Phys.:Condens. Matter 29 465901 (2017);
         "P. Giannozzi et al., J. Chem. Phys. 152 154105 (2020);
          URL http://www.quantum-espresso.org", 
     in publications or presentations arising from this work. More details at
     http://www.quantum-espresso.org/quote

     Parallel version (MPI & OpenMP), running on       4 processor cores
     Number of MPI processes:                 4
     Threads/MPI process:                     1

     MPI processes distributed on     1 nodes
     613683 MiB available memory on the printing compute node when the environment starts
 
     Reading input from pw-si-35.in
Warning: card &CELL ignored
Warning: card / ignored

     Current dimensions of program PWSCF are:
     Max number of different atomic species (ntypx) = 10
     Max number of k-points (npk) =  40000
     Max angular momentum in pseudopotentials (lmaxx) =  4

     IMPORTANT: XC functional enforced from input :
     Exchange-correlation= PBE
                           (   1   4   3   4   0   0   0)
     Any further DFT definition will be discarded
     Please, verify this is what you really want


     gamma-point specific algorithms are used
 
     K-points division:     npool     =       2
     R & G space division:  proc/nbgrp/npool/nimage =       2
     Subspace diagonalization in iterative solution of the eigenvalue problem:
     a serial algorithm will be used

     Message from routine divide_et_impera:
     suboptimal parallelization: some nodes have no k-points
 
     Parallelization info
     --------------------
     sticks:   dense  smooth     PW     G-vecs:    dense   smooth      PW
     Min        2063    2063    545               103177   103177   14027
     Max        2066    2066    546               103178   103178   14030
     Sum        4129    4129   1091               206355   206355   28057
 
     Using Slab Decomposition
 


     bravais-lattice index     =            0
     lattice parameter (alat)  =      21.4120  a.u.
     unit-cell volume          =    9296.4467 (a.u.)^3
     number of atoms/cell      =           64
     number of atomic types    =            1
     number of electrons       =       256.00
     number of Kohn-Sham states=          128
     kinetic-energy cutoff     =      30.0000  Ry
     charge density cutoff     =     120.0000  Ry
     scf convergence threshold =      1.0E-06
     mixing beta               =       0.5000
     number of iterations used =            8  plain     mixing
     Exchange-correlation= PBE
                           (   1   4   3   4   0   0   0)

     GPU acceleration is ACTIVE.
     GPU-aware MPI enabled

     Message from routine print_cuda_info:
     High GPU oversubscription detected. Are you sure this is what you want?

     celldm(1)=  21.411983  celldm(2)=   0.000000  celldm(3)=   0.000000
     celldm(4)=   0.000000  celldm(5)=   0.000000  celldm(6)=   0.000000

     crystal axes: (cart. coord. in units of alat)
               a(1) = (   1.000000   0.000000   0.000000 )  
               a(2) = (   0.000000   0.939769   0.000000 )  
               a(3) = (   0.000000   0.000000   1.007686 )  

     reciprocal axes: (cart. coord. in units 2 pi/alat)
               b(1) = (  1.000000  0.000000  0.000000 )  
               b(2) = (  0.000000  1.064092  0.000000 )  
               b(3) = (  0.000000  0.000000  0.992372 )  


     PseudoPot. # 1 for Si read from file:
     /home/ppiaggi/pseudos/Si_ONCV_PBE_sr.upf
     MD5 check sum: 8553c464762ac42b85b1eed164b4d029
     Pseudo is Norm-conserving, Zval =  4.0
     Generated using ONCVPSP code by D. R. Hamann
     Using radial grid of 1510 points,  4 beta functions with: 
                l(1) =   0
                l(2) =   0
                l(3) =   1
                l(4) =   1

     atomic species   valence    mass     pseudopotential
        Si             4.00    28.08500     Si( 1.00)

     No symmetry found



   Cartesian axes

     site n.     atom                  positions (alat units)
         1           Si  tau(   1) = (  -0.0148100   0.0065049  -0.0114588  )
         2           Si  tau(   2) = (  -0.0046115   0.2336006   0.2530760  )
         3           Si  tau(   3) = (   0.2512410  -0.0019269   0.2631280  )
         4           Si  tau(   4) = (   0.2664656   0.2280987  -0.0069296  )
         5           Si  tau(   5) = (   0.1421219   0.1334838   0.1151056  )
         6           Si  tau(   6) = (   0.4938568  -0.0152858  -0.0014988  )
         7           Si  tau(   7) = (   0.4875847   0.2329090   0.2577450  )
         8           Si  tau(   8) = (   0.6292132   0.1099457   0.1229651  )
         9           Si  tau(   9) = (   0.7525894   0.0019908   0.2358757  )
        10           Si  tau(  10) = (   0.7560612   0.2416216  -0.0120452  )
        11           Si  tau(  11) = (  -0.0063653   0.4738928  -0.0051225  )
        12           Si  tau(  12) = (   0.2442807   0.4874495   0.2487585  )
        13           Si  tau(  13) = (   0.1189215   0.6109803   0.1332787  )
        14           Si  tau(  14) = (   0.3749722   0.3727062   0.1085092  )
        15           Si  tau(  15) = (   0.4853882   0.4957283  -0.0015601  )
        16           Si  tau(  16) = (   0.6117548   0.6140793   0.1198287  )
        17           Si  tau(  17) = (   0.8866435   0.3643485   0.1116291  )
        18           Si  tau(  18) = (   0.7476480   0.4711509   0.2587682  )
        19           Si  tau(  19) = (  -0.0024877   0.7202916   0.2279439  )
        20           Si  tau(  20) = (   0.2653595   0.7193767  -0.0073894  )
        21           Si  tau(  21) = (   0.3893052   0.8346093   0.1288906  )
        22           Si  tau(  22) = (   0.5032512   0.7314257   0.2474721  )
        23           Si  tau(  23) = (   0.7357670   0.7157000  -0.0121095  )
        24           Si  tau(  24) = (   0.8826779   0.8442140   0.1113578  )
        25           Si  tau(  25) = (  -0.0006900  -0.0156905   0.5065633  )
        26           Si  tau(  26) = (   0.2629705   0.2412177   0.4757651  )
        27           Si  tau(  27) = (   0.1149877   0.1130076   0.6206196  )
        28           Si  tau(  28) = (   0.3914806   0.1198023   0.3530283  )
        29           Si  tau(  29) = (   0.5115098  -0.0034834   0.4759099  )
        30           Si  tau(  30) = (   0.6154500   0.1186882   0.6301243  )
        31           Si  tau(  31) = (   0.8742587   0.1053381   0.3656058  )
        32           Si  tau(  32) = (   0.7399884   0.2301511   0.5059220  )
        33           Si  tau(  33) = (   0.1102550   0.3576644   0.3616519  )
        34           Si  tau(  34) = (   0.0033001   0.4874731   0.4967980  )
        35           Si  tau(  35) = (   0.1222289   0.5984867   0.6258825  )
        36           Si  tau(  36) = (   0.6320407   0.3503415   0.3561575  )
        37           Si  tau(  37) = (   0.3613093   0.5915929   0.3505434  )
        38           Si  tau(  38) = (   0.3903709   0.3698982   0.6002465  )
        39           Si  tau(  39) = (   0.4939367   0.5021345   0.4894078  )
        40           Si  tau(  40) = (   0.6372206   0.6170880   0.6007893  )
        41           Si  tau(  41) = (   0.8661430   0.6162367   0.3828126  )
        42           Si  tau(  42) = (   0.8772716   0.3651669   0.6041003  )
        43           Si  tau(  43) = (   0.1165203   0.8687913   0.3830738  )
        44           Si  tau(  44) = (   0.2573368   0.7473253   0.4768838  )
        45           Si  tau(  45) = (   0.6155515   0.8664124   0.3520086  )
        46           Si  tau(  46) = (   0.3912386   0.8618573   0.5986888  )
        47           Si  tau(  47) = (   0.7522623   0.7312860   0.4781799  )
        48           Si  tau(  48) = (   0.8586198   0.8413996   0.6110525  )
        49           Si  tau(  49) = (  -0.0084625   0.2590607   0.7329793  )
        50           Si  tau(  50) = (   0.2447796   0.0141809   0.7194476  )
        51           Si  tau(  51) = (   0.3903496   0.1363261   0.8418555  )
        52           Si  tau(  52) = (   0.5160019   0.2518024   0.7425126  )
        53           Si  tau(  53) = (   0.7395097  -0.0043392   0.7342451  )
        54           Si  tau(  54) = (   0.8725447   0.1110775   0.8657580  )
        55           Si  tau(  55) = (   0.1392178   0.3596956   0.8503083  )
        56           Si  tau(  56) = (   0.2474383   0.4720409   0.7220052  )
        57           Si  tau(  57) = (   0.6104480   0.3802060   0.8634660  )
        58           Si  tau(  58) = (   0.3724727   0.6091554   0.8617410  )
        59           Si  tau(  59) = (   0.7520304   0.4764208   0.7290536  )
        60           Si  tau(  60) = (   0.8738937   0.6016973   0.8461269  )
        61           Si  tau(  61) = (   0.0136618   0.7288535   0.7194694  )
        62           Si  tau(  62) = (   0.1256150   0.8465213   0.8536431  )
        63           Si  tau(  63) = (   0.4879904   0.7223473   0.7322136  )
        64           Si  tau(  64) = (   0.6402200   0.8522469   0.8486816  )

     number of k points=     1
                       cart. coord. in units 2pi/alat
        k(    1) = (   0.0000000   0.0000000   0.0000000), wk =   2.0000000

     Dense  grid:   103178 G-vectors     FFT dimensions: (  75,  72,  75)

     Estimated max dynamical RAM per process >     151.15 MB

     Estimated total dynamical RAM >     579.42 MB

     Initial potential from superposition of free atoms

     starting charge     255.9608, renormalised to     256.0000
     Starting wfcs are  256 randomized atomic wfcs

     total cpu time spent up to now is        5.2 secs

     Self-consistent Calculation

     iteration #  1     ecut=    30.00 Ry     beta= 0.50
     Davidson diagonalization with overlap
     ethr =  1.00E-02,  avg # of iterations =  3.0

     Threshold (ethr) on eigenvalues was too large:
     Diagonalizing with lowered threshold

     Davidson diagonalization with overlap
     ethr =  6.39E-04,  avg # of iterations =  4.0

     total cpu time spent up to now is        5.5 secs

     total energy              =    -502.32477664 Ry
     estimated scf accuracy    <       1.86995586 Ry

     iteration #  2     ecut=    30.00 Ry     beta= 0.50
     Davidson diagonalization with overlap
     ethr =  7.30E-04,  avg # of iterations =  9.0

     total cpu time spent up to now is        5.6 secs

     total energy              =    -502.26296989 Ry
     estimated scf accuracy    <       0.72507948 Ry

     iteration #  3     ecut=    30.00 Ry     beta= 0.50
     Davidson diagonalization with overlap
     ethr =  2.83E-04,  avg # of iterations =  8.0

     total cpu time spent up to now is        5.8 secs

     total energy              =    -502.31079369 Ry
     estimated scf accuracy    <       0.96881426 Ry

     iteration #  4     ecut=    30.00 Ry     beta= 0.50
     Davidson diagonalization with overlap
     ethr =  2.83E-04,  avg # of iterations =  6.0

     total cpu time spent up to now is        5.9 secs

     total energy              =    -502.43159130 Ry
     estimated scf accuracy    <       0.03879977 Ry

     iteration #  5     ecut=    30.00 Ry     beta= 0.50
     Davidson diagonalization with overlap
     ethr =  1.52E-05,  avg # of iterations = 10.0

     total cpu time spent up to now is        6.0 secs

     total energy              =    -502.44517569 Ry
     estimated scf accuracy    <       0.04675585 Ry

     iteration #  6     ecut=    30.00 Ry     beta= 0.50
     Davidson diagonalization with overlap
     ethr =  1.52E-05,  avg # of iterations =  3.0

     total cpu time spent up to now is        6.2 secs

     total energy              =    -502.44632951 Ry
     estimated scf accuracy    <       0.01347066 Ry

     iteration #  7     ecut=    30.00 Ry     beta= 0.50
     Davidson diagonalization with overlap
     ethr =  5.26E-06,  avg # of iterations =  8.0

     total cpu time spent up to now is        6.4 secs

     total energy              =    -502.44950157 Ry
     estimated scf accuracy    <       0.00233355 Ry

     iteration #  8     ecut=    30.00 Ry     beta= 0.50
     Davidson diagonalization with overlap
     ethr =  9.12E-07,  avg # of iterations =  5.0

     total cpu time spent up to now is        6.5 secs

     total energy              =    -502.44940779 Ry
     estimated scf accuracy    <       0.00278077 Ry

     iteration #  9     ecut=    30.00 Ry     beta= 0.50
     Davidson diagonalization with overlap
     ethr =  9.12E-07,  avg # of iterations =  3.0

     total cpu time spent up to now is        6.6 secs

     total energy              =    -502.44932631 Ry
     estimated scf accuracy    <       0.00087791 Ry

     iteration # 10     ecut=    30.00 Ry     beta= 0.50
     Davidson diagonalization with overlap
     ethr =  3.43E-07,  avg # of iterations =  8.0

     total cpu time spent up to now is        6.7 secs

     total energy              =    -502.44954946 Ry
     estimated scf accuracy    <       0.00014212 Ry

     iteration # 11     ecut=    30.00 Ry     beta= 0.50
     Davidson diagonalization with overlap
     ethr =  5.55E-08,  avg # of iterations =  6.0

     total cpu time spent up to now is        6.9 secs

     total energy              =    -502.44954493 Ry
     estimated scf accuracy    <       0.00008531 Ry

     iteration # 12     ecut=    30.00 Ry     beta= 0.50
     Davidson diagonalization with overlap
     ethr =  3.33E-08,  avg # of iterations =  3.0

     total cpu time spent up to now is        7.0 secs

     total energy              =    -502.44954926 Ry
     estimated scf accuracy    <       0.00001607 Ry

     iteration # 13     ecut=    30.00 Ry     beta= 0.50
     Davidson diagonalization with overlap
     ethr =  6.28E-09,  avg # of iterations = 11.0

     total cpu time spent up to now is        7.1 secs

     total energy              =    -502.44955398 Ry
     estimated scf accuracy    <       0.00000233 Ry

     iteration # 14     ecut=    30.00 Ry     beta= 0.50
     Davidson diagonalization with overlap
     ethr =  9.11E-10,  avg # of iterations =  7.0

     total cpu time spent up to now is        7.3 secs

     total energy              =    -502.44955405 Ry
     estimated scf accuracy    <       0.00000248 Ry

     iteration # 15     ecut=    30.00 Ry     beta= 0.50
     Davidson diagonalization with overlap
     ethr =  9.11E-10,  avg # of iterations =  3.0

     total cpu time spent up to now is        7.4 secs

     End of self-consistent calculation

          k = 0.0000 0.0000 0.0000 ( 12912 PWs)   bands (ev):

    -6.4214  -5.6722  -5.4348  -5.3493  -5.2558  -5.0761  -4.9736  -4.7815
    -4.6042  -4.5625  -4.4277  -4.3393  -4.3114  -4.2150  -4.1498  -4.1028
    -4.0312  -3.9748  -3.8649  -3.8037  -3.7308  -3.6500  -3.4405  -2.8910
    -2.7490  -2.5937  -2.5004  -2.4458  -2.3736  -2.2135  -2.1883  -2.1081
    -2.0216  -1.9323  -1.8991  -1.8317  -1.7430  -1.6898  -1.6486  -1.5639
    -1.4120  -1.2495  -1.1957  -0.9902  -0.8286  -0.3736  -0.2309  -0.1638
    -0.1218  -0.0611   0.0061   0.0838   0.2037   0.2766   0.3158   0.4344
     0.5200   1.1981   1.2733   1.3622   1.3920   1.4612   1.5924   1.6055
     1.6649   1.7326   1.7630   1.8283   1.8430   1.8726   1.9116   1.9729
     2.0219   2.0328   2.0769   2.0876   2.1020   2.1829   2.2011   2.2496
     2.2812   2.3058   2.3375   2.3698   2.4223   2.4448   2.5095   2.6134
     2.6888   2.8526   2.9025   2.9413   3.0742   3.1359   3.3087   3.3853
     3.5090   3.5787   3.5948   3.6921   3.7230   3.7943   3.8352   3.8597
     3.9783   4.0320   4.0698   4.0957   4.1575   4.1861   4.2680   4.3273
     4.3400   4.3837   4.4431   4.4795   4.5464   4.5756   4.6268   4.6894
     4.8169   4.8554   4.9568   5.0571   5.2985   5.4332   5.5219   5.7349

     highest occupied level (ev):     5.7349

!    total energy              =    -502.44955344 Ry
     estimated scf accuracy    <       0.00000085 Ry

     The total energy is the sum of the following terms:
     one-electron contribution =     122.42914024 Ry
     hartree contribution      =      43.40610723 Ry
     xc contribution           =    -151.82172631 Ry
     ewald contribution        =    -516.46307462 Ry

     convergence has been achieved in  15 iterations

     Forces acting on atoms (cartesian axes, Ry/au):

     atom    1 type  1   force =     0.12913396    0.06063225   -0.05100881
     atom    2 type  1   force =     0.00552076   -0.00713157   -0.06312156
     atom    3 type  1   force =     0.03858640    0.05934194   -0.10218342
     atom    4 type  1   force =     0.02901641    0.06352500   -0.06811568
     atom    5 type  1   force =    -0.07068767   -0.06838516    0.05039678
     atom    6 type  1   force =     0.08918056    0.10698870   -0.09143926
     atom    7 type  1   force =     0.15805758    0.15815624   -0.19658226
     atom    8 type  1   force =    -0.04326354    0.06739696   -0.04769010
     atom    9 type  1   force =     0.05340274    0.02625495   -0.01167286
     atom   10 type  1   force =    -0.03474849   -0.00382637   -0.00491776
     atom   11 type  1   force =     0.07652320    0.07715025   -0.07088910
     atom   12 type  1   force =    -0.08123228   -0.09696201   -0.09115434
     atom   13 type  1   force =     0.07537126   -0.07289032   -0.11162010
     atom   14 type  1   force =    -0.04473474   -0.06149067    0.06367707
     atom   15 type  1   force =     0.04748972    0.02168753   -0.06005647
     atom   16 type  1   force =     0.03375780   -0.04413072    0.01228881
     atom   17 type  1   force =    -0.07849210   -0.06061596    0.06484464
     atom   18 type  1   force =     0.05711042    0.08052318   -0.08252070
     atom   19 type  1   force =    -0.06255893    0.06950497    0.11401519
     atom   20 type  1   force =    -0.06126248    0.02045058    0.00063720
     atom   21 type  1   force =    -0.12235582   -0.01029780   -0.00777910
     atom   22 type  1   force =    -0.01068982   -0.07907411    0.03227870
     atom   23 type  1   force =     0.06048830    0.02453887   -0.03902754
     atom   24 type  1   force =    -0.07986256   -0.10091770    0.02072341
     atom   25 type  1   force =    -0.09832354    0.13135716    0.06528337
     atom   26 type  1   force =    -0.03820523   -0.00668094    0.02781880
     atom   27 type  1   force =    -0.02802359    0.11172696   -0.05594162
     atom   28 type  1   force =    -0.14370703   -0.11711893    0.14618558
     atom   29 type  1   force =    -0.05981931    0.18804015    0.12184950
     atom   30 type  1   force =     0.01954136   -0.01302547   -0.05595583
     atom   31 type  1   force =     0.00382048    0.02940823    0.04585782
     atom   32 type  1   force =     0.04001633    0.01274094   -0.05252405
     atom   33 type  1   force =     0.06245624    0.03344456    0.03387324
     atom   34 type  1   force =    -0.01436524    0.00838888   -0.02928143
     atom   35 type  1   force =     0.04858166    0.01285321   -0.08894996
     atom   36 type  1   force =    -0.07254541   -0.03041965    0.08779731
     atom   37 type  1   force =     0.09688668    0.13720784    0.09321084
     atom   38 type  1   force =    -0.03447333   -0.04035953    0.02651841
     atom   39 type  1   force =     0.05307460   -0.01788922   -0.03457785
     atom   40 type  1   force =    -0.05676139   -0.03271957    0.04520312
     atom   41 type  1   force =     0.09714344   -0.09739563   -0.10781670
     atom   42 type  1   force =    -0.03909091   -0.01482784   -0.00063050
     atom   43 type  1   force =     0.06098220   -0.13883585   -0.13537360
     atom   44 type  1   force =    -0.00551797   -0.07779621    0.02098842
     atom   45 type  1   force =     0.13264164   -0.16676471   -0.08616053
     atom   46 type  1   force =    -0.09859138   -0.10595650    0.07955314
     atom   47 type  1   force =    -0.09282791    0.07683072    0.02969924
     atom   48 type  1   force =     0.03990148   -0.07289594    0.00514273
     atom   49 type  1   force =     0.03051958   -0.07980439    0.03879057
     atom   50 type  1   force =     0.08857130   -0.00981826    0.08083726
     atom   51 type  1   force =    -0.07185034   -0.07386924    0.07560577
     atom   52 type  1   force =    -0.04149808    0.03967087   -0.03176984
     atom   53 type  1   force =     0.14900894    0.17337954   -0.09045168
     atom   54 type  1   force =    -0.01903457    0.07125177   -0.03194631
     atom   55 type  1   force =    -0.04595389   -0.02494774    0.06111213
     atom   56 type  1   force =     0.06228879    0.02493698    0.04214128
     atom   57 type  1   force =     0.06624348    0.00222142    0.04591051
     atom   58 type  1   force =    -0.01881335   -0.03950410   -0.00267484
     atom   59 type  1   force =    -0.02554495    0.03250052    0.01008475
     atom   60 type  1   force =     0.01256047    0.00841454    0.04819316
     atom   61 type  1   force =    -0.08543901    0.01617890    0.07884629
     atom   62 type  1   force =     0.01127090   -0.02421446    0.04373700
     atom   63 type  1   force =     0.06915482    0.03688870   -0.01637673
     atom   64 type  1   force =    -0.21802863   -0.19302673    0.20710845

     Total force =     1.050137     Total SCF correction =     0.001686


     Computing stress (Cartesian axis) and pressure

          total   stress  (Ry/bohr**3)                   (kbar)     P=       -2.75
  -0.00002250   0.00010383  -0.00028348           -3.31       15.27      -41.70
   0.00010383   0.00003216  -0.00007501           15.27        4.73      -11.03
  -0.00028348  -0.00007501  -0.00006568          -41.70      -11.03       -9.66

 
     init_run     :      1.33s CPU      5.16s WALL (       1 calls)
     electrons    :      1.92s CPU      2.12s WALL (       1 calls)
     forces       :      0.04s CPU      0.05s WALL (       1 calls)
     stress       :      0.15s CPU      0.15s WALL (       1 calls)

     Called by init_run:
     wfcinit      :      0.67s CPU      4.32s WALL (       1 calls)
                                        4.32s GPU  (       1 calls)
     potinit      :      0.21s CPU      0.31s WALL (       1 calls)
     hinit0       :      0.42s CPU      0.45s WALL (       1 calls)

     Called by electrons:
     c_bands      :      1.24s CPU      1.35s WALL (      16 calls)
     sum_band     :      0.34s CPU      0.39s WALL (      16 calls)
     v_of_rho     :      0.17s CPU      0.28s WALL (      16 calls)
     mix_rho      :      0.15s CPU      0.17s WALL (      16 calls)

     Called by c_bands:
     init_us_2    :      0.06s CPU      0.06s WALL (      33 calls)
     init_us_2:gp :      0.06s CPU      0.06s WALL (      33 calls)
     regterg      :      1.10s CPU      1.20s WALL (      16 calls)

     Called by *egterg:
     rdiaghg      :      0.48s CPU      1.35s WALL (     112 calls)
                                        1.33s GPU  (     112 calls)
     h_psi        :      1.11s CPU      3.97s WALL (     114 calls)
                                        3.96s GPU  (     114 calls)
     g_psi        :      0.00s CPU      0.00s WALL (      97 calls)
                                        0.00s GPU  (      97 calls)

     Called by h_psi:
     h_psi:calbec :      0.61s CPU      3.40s WALL (     114 calls)
                                        3.40s GPU  (     114 calls)
     vloc_psi     :      0.43s CPU      0.50s WALL (     114 calls)
                                        0.50s GPU  (     114 calls)
     add_vuspsi   :      0.05s CPU      0.06s WALL (     114 calls)
                                        0.06s GPU  (     114 calls)

     General routines
     calbec       :      0.62s CPU      3.40s WALL (     119 calls)
     fft          :      0.53s CPU      0.67s WALL (     135 calls)
                                        0.14s GPU  (      86 calls)
     ffts         :      0.05s CPU      0.05s WALL (      16 calls)
     fftw         :      0.47s CPU      0.62s WALL (    1504 calls)
                                        0.56s GPU  (    1504 calls)
 
     Parallel routines
 
     PWSCF        :      3.48s CPU      7.57s WALL

 
   This run was terminated on:  15:36:23   8May2023            

=------------------------------------------------------------------------------=
   JOB DONE.
=------------------------------------------------------------------------------=
