An instance of this daemon is already running
An instance of this daemon is already running

     Program PWSCF v.7.1 starts on  8May2023 at 15:36:25 

     This program is part of the open-source Quantum ESPRESSO suite
     for quantum simulation of materials; please cite
         "P. Giannozzi et al., J. Phys.:Condens. Matter 21 395502 (2009);
         "P. Giannozzi et al., J. Phys.:Condens. Matter 29 465901 (2017);
         "P. Giannozzi et al., J. Chem. Phys. 152 154105 (2020);
          URL http://www.quantum-espresso.org", 
     in publications or presentations arising from this work. More details at
     http://www.quantum-espresso.org/quote

     Parallel version (MPI & OpenMP), running on       4 processor cores
     Number of MPI processes:                 4
     Threads/MPI process:                     1

     MPI processes distributed on     1 nodes
     613979 MiB available memory on the printing compute node when the environment starts
 
     Reading input from pw-si-36.in
Warning: card &CELL ignored
Warning: card / ignored

     Current dimensions of program PWSCF are:
     Max number of different atomic species (ntypx) = 10
     Max number of k-points (npk) =  40000
     Max angular momentum in pseudopotentials (lmaxx) =  4

     IMPORTANT: XC functional enforced from input :
     Exchange-correlation= PBE
                           (   1   4   3   4   0   0   0)
     Any further DFT definition will be discarded
     Please, verify this is what you really want


     gamma-point specific algorithms are used
 
     K-points division:     npool     =       2
     R & G space division:  proc/nbgrp/npool/nimage =       2
     Subspace diagonalization in iterative solution of the eigenvalue problem:
     a serial algorithm will be used

     Message from routine divide_et_impera:
     suboptimal parallelization: some nodes have no k-points
 
     Parallelization info
     --------------------
     sticks:   dense  smooth     PW     G-vecs:    dense   smooth      PW
     Min        2144    2144    561               101488   101488   13802
     Max        2147    2147    562               101489   101489   13805
     Sum        4291    4291   1123               202977   202977   27607
 
     Using Slab Decomposition
 


     bravais-lattice index     =            0
     lattice parameter (alat)  =      20.7294  a.u.
     unit-cell volume          =    9143.2487 (a.u.)^3
     number of atoms/cell      =           64
     number of atomic types    =            1
     number of electrons       =       256.00
     number of Kohn-Sham states=          128
     kinetic-energy cutoff     =      30.0000  Ry
     charge density cutoff     =     120.0000  Ry
     scf convergence threshold =      1.0E-06
     mixing beta               =       0.5000
     number of iterations used =            8  plain     mixing
     Exchange-correlation= PBE
                           (   1   4   3   4   0   0   0)

     GPU acceleration is ACTIVE.
     GPU-aware MPI enabled

     Message from routine print_cuda_info:
     High GPU oversubscription detected. Are you sure this is what you want?

     celldm(1)=  20.729393  celldm(2)=   0.000000  celldm(3)=   0.000000
     celldm(4)=   0.000000  celldm(5)=   0.000000  celldm(6)=   0.000000

     crystal axes: (cart. coord. in units of alat)
               a(1) = (   1.000000   0.000000   0.000000 )  
               a(2) = (   0.000000   1.044723   0.000000 )  
               a(3) = (   0.000000   0.000000   0.982516 )  

     reciprocal axes: (cart. coord. in units 2 pi/alat)
               b(1) = (  1.000000  0.000000  0.000000 )  
               b(2) = (  0.000000  0.957192  0.000000 )  
               b(3) = (  0.000000  0.000000  1.017795 )  


     PseudoPot. # 1 for Si read from file:
     /home/ppiaggi/pseudos/Si_ONCV_PBE_sr.upf
     MD5 check sum: 8553c464762ac42b85b1eed164b4d029
     Pseudo is Norm-conserving, Zval =  4.0
     Generated using ONCVPSP code by D. R. Hamann
     Using radial grid of 1510 points,  4 beta functions with: 
                l(1) =   0
                l(2) =   0
                l(3) =   1
                l(4) =   1

     atomic species   valence    mass     pseudopotential
        Si             4.00    28.08500     Si( 1.00)

     No symmetry found



   Cartesian axes

     site n.     atom                  positions (alat units)
         1           Si  tau(   1) = (   0.0075504  -0.0129427   0.0109629  )
         2           Si  tau(   2) = (   0.0001391   0.2567591   0.2281437  )
         3           Si  tau(   3) = (   0.2292249   0.0124861   0.2405988  )
         4           Si  tau(   4) = (   0.2598325   0.2699138   0.0111237  )
         5           Si  tau(   5) = (   0.1272073   0.1497362   0.1232063  )
         6           Si  tau(   6) = (   0.4862981   0.0110196   0.0119088  )
         7           Si  tau(   7) = (   0.4701165   0.2849460   0.2360251  )
         8           Si  tau(   8) = (   0.5924595   0.1499988   0.1199244  )
         9           Si  tau(   9) = (   0.7237526   0.0118836   0.2363784  )
        10           Si  tau(  10) = (   0.7166331   0.2715905   0.0036297  )
        11           Si  tau(  11) = (  -0.0101099   0.5225511   0.0011282  )
        12           Si  tau(  12) = (   0.2448577   0.5324058   0.2327480  )
        13           Si  tau(  13) = (   0.1260935   0.6537945   0.1127363  )
        14           Si  tau(  14) = (   0.3657761   0.4203000   0.1305407  )
        15           Si  tau(  15) = (   0.4692522   0.5302737   0.0090058  )
        16           Si  tau(  16) = (   0.5955964   0.6567019   0.1261396  )
        17           Si  tau(  17) = (   0.8463415   0.4206494   0.1186575  )
        18           Si  tau(  18) = (   0.7103693   0.5199795   0.2236027  )
        19           Si  tau(  19) = (   0.0051384   0.8015808   0.2514232  )
        20           Si  tau(  20) = (   0.2563927   0.8152161   0.0010018  )
        21           Si  tau(  21) = (   0.3797239   0.9425323   0.1270633  )
        22           Si  tau(  22) = (   0.4893214   0.8016603   0.2387772  )
        23           Si  tau(  23) = (   0.7152552   0.8019593   0.0160726  )
        24           Si  tau(  24) = (   0.8521031   0.9387578   0.1035446  )
        25           Si  tau(  25) = (   0.0125291  -0.0099110   0.4893251  )
        26           Si  tau(  26) = (   0.2287662   0.2585147   0.4763945  )
        27           Si  tau(  27) = (   0.1276777   0.1523102   0.5870005  )
        28           Si  tau(  28) = (   0.3547785   0.1218813   0.3624542  )
        29           Si  tau(  29) = (   0.4973744   0.0067344   0.4588027  )
        30           Si  tau(  30) = (   0.6098644   0.1296195   0.5797443  )
        31           Si  tau(  31) = (   0.8490787   0.1465909   0.3602316  )
        32           Si  tau(  32) = (   0.7156773   0.2561487   0.4609276  )
        33           Si  tau(  33) = (   0.1052459   0.3854211   0.3641622  )
        34           Si  tau(  34) = (  -0.0016091   0.5381316   0.4850047  )
        35           Si  tau(  35) = (   0.1309497   0.6900368   0.5772551  )
        36           Si  tau(  36) = (   0.6187327   0.4068380   0.3671714  )
        37           Si  tau(  37) = (   0.3649422   0.6668817   0.3530665  )
        38           Si  tau(  38) = (   0.3781243   0.4181989   0.5797578  )
        39           Si  tau(  39) = (   0.4828189   0.5226744   0.4671140  )
        40           Si  tau(  40) = (   0.6199863   0.6928722   0.5971066  )
        41           Si  tau(  41) = (   0.8541753   0.6572356   0.3715461  )
        42           Si  tau(  42) = (   0.8507720   0.3997936   0.6000072  )
        43           Si  tau(  43) = (   0.1315416   0.9421060   0.3529788  )
        44           Si  tau(  44) = (   0.2550263   0.7960962   0.4577619  )
        45           Si  tau(  45) = (   0.5897449   0.9460367   0.3460472  )
        46           Si  tau(  46) = (   0.3678485   0.9497834   0.5984757  )
        47           Si  tau(  47) = (   0.7171278   0.8049516   0.4774271  )
        48           Si  tau(  48) = (   0.8477774   0.9440425   0.5991040  )
        49           Si  tau(  49) = (  -0.0152657   0.2755790   0.7157794  )
        50           Si  tau(  50) = (   0.2576573  -0.0091310   0.7081506  )
        51           Si  tau(  51) = (   0.3740608   0.1208021   0.8220833  )
        52           Si  tau(  52) = (   0.4822243   0.2521520   0.7100571  )
        53           Si  tau(  53) = (   0.7155041  -0.0165133   0.7190155  )
        54           Si  tau(  54) = (   0.8575141   0.1459069   0.8216200  )
        55           Si  tau(  55) = (   0.1117351   0.4038363   0.8111798  )
        56           Si  tau(  56) = (   0.2474888   0.5352538   0.7132833  )
        57           Si  tau(  57) = (   0.6109720   0.3989631   0.8347755  )
        58           Si  tau(  58) = (   0.3478870   0.6676853   0.8123696  )
        59           Si  tau(  59) = (   0.7211744   0.5503896   0.7134644  )
        60           Si  tau(  60) = (   0.8355399   0.6661308   0.8261537  )
        61           Si  tau(  61) = (   0.0062167   0.8188018   0.7092118  )
        62           Si  tau(  62) = (   0.1363996   0.9296997   0.8381063  )
        63           Si  tau(  63) = (   0.4766367   0.7941478   0.7172333  )
        64           Si  tau(  64) = (   0.6078146   0.9456255   0.8140857  )

     number of k points=     1
                       cart. coord. in units 2pi/alat
        k(    1) = (   0.0000000   0.0000000   0.0000000), wk =   2.0000000

     Dense  grid:   101489 G-vectors     FFT dimensions: (  75,  75,  72)

     Estimated max dynamical RAM per process >     148.74 MB

     Estimated total dynamical RAM >     570.17 MB

     Initial potential from superposition of free atoms

     starting charge     255.9608, renormalised to     256.0000
     Starting wfcs are  256 randomized atomic wfcs

     total cpu time spent up to now is        5.0 secs

     Self-consistent Calculation

     iteration #  1     ecut=    30.00 Ry     beta= 0.50
     Davidson diagonalization with overlap
     ethr =  1.00E-02,  avg # of iterations =  2.0

     Threshold (ethr) on eigenvalues was too large:
     Diagonalizing with lowered threshold

     Davidson diagonalization with overlap
     ethr =  6.76E-04,  avg # of iterations =  8.0

     total cpu time spent up to now is        5.3 secs

     total energy              =    -501.75913666 Ry
     estimated scf accuracy    <       2.09662286 Ry

     iteration #  2     ecut=    30.00 Ry     beta= 0.50
     Davidson diagonalization with overlap
     ethr =  8.19E-04,  avg # of iterations =  8.0

     total cpu time spent up to now is        5.6 secs

     total energy              =    -501.63011524 Ry
     estimated scf accuracy    <       1.41169875 Ry

     iteration #  3     ecut=    30.00 Ry     beta= 0.50
     Davidson diagonalization with overlap
     ethr =  5.51E-04,  avg # of iterations = 11.0

     total cpu time spent up to now is        5.7 secs

     total energy              =    -501.73393653 Ry
     estimated scf accuracy    <       1.67273156 Ry

     iteration #  4     ecut=    30.00 Ry     beta= 0.50
     Davidson diagonalization with overlap
     ethr =  5.51E-04,  avg # of iterations = 12.0

     total cpu time spent up to now is        5.9 secs

     total energy              =    -501.93716925 Ry
     estimated scf accuracy    <       0.24200323 Ry

     iteration #  5     ecut=    30.00 Ry     beta= 0.50
     Davidson diagonalization with overlap
     ethr =  9.45E-05,  avg # of iterations = 14.0

     total cpu time spent up to now is        6.1 secs

     total energy              =    -501.96900285 Ry
     estimated scf accuracy    <       0.10268759 Ry

     iteration #  6     ecut=    30.00 Ry     beta= 0.50
     Davidson diagonalization with overlap
     ethr =  4.01E-05,  avg # of iterations = 11.0

     total cpu time spent up to now is        6.2 secs

     total energy              =    -501.97751700 Ry
     estimated scf accuracy    <       0.03097476 Ry

     iteration #  7     ecut=    30.00 Ry     beta= 0.50
     Davidson diagonalization with overlap
     ethr =  1.21E-05,  avg # of iterations = 11.0

     total cpu time spent up to now is        6.4 secs

     total energy              =    -501.97976510 Ry
     estimated scf accuracy    <       0.01003298 Ry

     iteration #  8     ecut=    30.00 Ry     beta= 0.50
     Davidson diagonalization with overlap
     ethr =  3.92E-06,  avg # of iterations = 10.0

     total cpu time spent up to now is        6.5 secs

     total energy              =    -501.98143939 Ry
     estimated scf accuracy    <       0.00248774 Ry

     iteration #  9     ecut=    30.00 Ry     beta= 0.50
     Davidson diagonalization with overlap
     ethr =  9.72E-07,  avg # of iterations = 12.0

     total cpu time spent up to now is        6.7 secs

     total energy              =    -501.98172696 Ry
     estimated scf accuracy    <       0.00119360 Ry

     iteration # 10     ecut=    30.00 Ry     beta= 0.50
     Davidson diagonalization with overlap
     ethr =  4.66E-07,  avg # of iterations =  8.0

     total cpu time spent up to now is        6.8 secs

     total energy              =    -501.98183280 Ry
     estimated scf accuracy    <       0.00037129 Ry

     iteration # 11     ecut=    30.00 Ry     beta= 0.50
     Davidson diagonalization with overlap
     ethr =  1.45E-07,  avg # of iterations =  8.0

     total cpu time spent up to now is        7.0 secs

     total energy              =    -501.98187085 Ry
     estimated scf accuracy    <       0.00005835 Ry

     iteration # 12     ecut=    30.00 Ry     beta= 0.50
     Davidson diagonalization with overlap
     ethr =  2.28E-08,  avg # of iterations =  9.0

     total cpu time spent up to now is        7.2 secs

     total energy              =    -501.98188640 Ry
     estimated scf accuracy    <       0.00003109 Ry

     iteration # 13     ecut=    30.00 Ry     beta= 0.50
     Davidson diagonalization with overlap
     ethr =  1.21E-08,  avg # of iterations = 17.0

     total cpu time spent up to now is        7.4 secs

     total energy              =    -501.98188887 Ry
     estimated scf accuracy    <       0.00002303 Ry

     iteration # 14     ecut=    30.00 Ry     beta= 0.50
     Davidson diagonalization with overlap
     ethr =  9.00E-09,  avg # of iterations = 16.0

     total cpu time spent up to now is        7.5 secs

     total energy              =    -501.98188918 Ry
     estimated scf accuracy    <       0.00000478 Ry

     iteration # 15     ecut=    30.00 Ry     beta= 0.50
     Davidson diagonalization with overlap
     ethr =  1.87E-09,  avg # of iterations = 10.0

     total cpu time spent up to now is        7.7 secs

     total energy              =    -501.98189028 Ry
     estimated scf accuracy    <       0.00000225 Ry

     iteration # 16     ecut=    30.00 Ry     beta= 0.50
     Davidson diagonalization with overlap
     ethr =  8.80E-10,  avg # of iterations = 15.0

     total cpu time spent up to now is        7.9 secs

     total energy              =    -501.98189047 Ry
     estimated scf accuracy    <       0.00000196 Ry

     iteration # 17     ecut=    30.00 Ry     beta= 0.50
     Davidson diagonalization with overlap
     ethr =  7.64E-10,  avg # of iterations =  3.0

     total cpu time spent up to now is        8.0 secs

     End of self-consistent calculation

          k = 0.0000 0.0000 0.0000 ( 12680 PWs)   bands (ev):

    -6.4299  -5.6461  -5.5342  -5.4442  -5.2240  -5.1099  -5.0441  -4.7965
    -4.6974  -4.6323  -4.5170  -4.4732  -4.2935  -4.2462  -4.1779  -4.1018
    -3.9910  -3.8611  -3.8381  -3.7716  -3.6971  -3.5412  -3.1466  -2.9299
    -2.6056  -2.5526  -2.4203  -2.3464  -2.3218  -2.2583  -2.1574  -2.0218
    -1.9962  -1.8543  -1.7583  -1.7172  -1.6708  -1.6246  -1.5247  -1.4557
    -1.3487  -1.2263  -1.1501  -0.9768  -0.8360  -0.3321  -0.1793  -0.1594
     0.0105   0.1022   0.1391   0.2515   0.2799   0.3695   0.5063   0.5732
     0.6172   1.2650   1.2815   1.3274   1.4658   1.4822   1.5262   1.5608
     1.6739   1.6957   1.7226   1.8021   1.8683   1.8857   1.9752   2.0010
     2.0585   2.0859   2.1269   2.1953   2.2108   2.2709   2.3313   2.3452
     2.4297   2.5079   2.5584   2.5758   2.6492   2.6647   2.7409   2.7644
     2.8255   2.8745   2.9052   3.0215   3.2688   3.3584   3.4539   3.4894
     3.5609   3.6523   3.6714   3.7237   3.7889   3.8429   3.9084   3.9716
     4.0042   4.0476   4.0931   4.1329   4.2089   4.2214   4.3511   4.3566
     4.4642   4.5082   4.5169   4.6850   4.7647   4.8267   4.9184   4.9660
     5.0358   5.0970   5.3127   5.4649   5.5367   5.6160   5.6765   5.8298

     highest occupied level (ev):     5.8298

!    total energy              =    -501.98188982 Ry
     estimated scf accuracy    <       0.00000082 Ry

     The total energy is the sum of the following terms:
     one-electron contribution =     117.29599306 Ry
     hartree contribution      =      47.14392862 Ry
     xc contribution           =    -152.46705181 Ry
     ewald contribution        =    -513.95475970 Ry

     convergence has been achieved in  17 iterations

     Forces acting on atoms (cartesian axes, Ry/au):

     atom    1 type  1   force =     0.02473628    0.08002129   -0.07128524
     atom    2 type  1   force =    -0.12913705    0.08154630    0.06727699
     atom    3 type  1   force =     0.09112416    0.06245921   -0.09285477
     atom    4 type  1   force =    -0.01288515    0.00622385   -0.09176260
     atom    5 type  1   force =     0.00459421   -0.06956199   -0.08145934
     atom    6 type  1   force =     0.05465855    0.05236145   -0.14635067
     atom    7 type  1   force =     0.04832884   -0.05781222    0.07885514
     atom    8 type  1   force =     0.02607984   -0.00168429    0.02757209
     atom    9 type  1   force =     0.03678946    0.04932076   -0.02564464
     atom   10 type  1   force =     0.05631761    0.04089280   -0.06852431
     atom   11 type  1   force =    -0.00190368    0.02978680   -0.07756684
     atom   12 type  1   force =    -0.08858648    0.02435812    0.10028600
     atom   13 type  1   force =    -0.02430032    0.06633075   -0.01087372
     atom   14 type  1   force =    -0.02153518   -0.09323725   -0.04730319
     atom   15 type  1   force =     0.06835466    0.06683069   -0.14405663
     atom   16 type  1   force =    -0.00792282    0.03507695   -0.04494522
     atom   17 type  1   force =     0.06783966   -0.10569207   -0.04712819
     atom   18 type  1   force =     0.04322700    0.06028069    0.08410741
     atom   19 type  1   force =    -0.06391201   -0.03678773   -0.03906625
     atom   20 type  1   force =    -0.03722085   -0.06233522   -0.04658723
     atom   21 type  1   force =    -0.08191511   -0.06834721    0.03635230
     atom   22 type  1   force =    -0.02334771   -0.03008920   -0.00366458
     atom   23 type  1   force =     0.01274655   -0.01585940   -0.09880498
     atom   24 type  1   force =     0.00822395   -0.04674046    0.06798245
     atom   25 type  1   force =    -0.06895916    0.08675723    0.02938739
     atom   26 type  1   force =     0.14699428    0.13513405   -0.08573669
     atom   27 type  1   force =    -0.12747362   -0.14468901    0.15051985
     atom   28 type  1   force =     0.01275914    0.08264634   -0.02700964
     atom   29 type  1   force =    -0.14795247    0.12261498    0.17754735
     atom   30 type  1   force =    -0.00503412   -0.00693242    0.06814580
     atom   31 type  1   force =     0.09822532   -0.07047706   -0.06344363
     atom   32 type  1   force =     0.06147165    0.06578569    0.07485727
     atom   33 type  1   force =     0.01349306    0.05841699   -0.03980287
     atom   34 type  1   force =    -0.03658358   -0.02770008    0.01053701
     atom   35 type  1   force =    -0.05006119   -0.06095205    0.06340761
     atom   36 type  1   force =    -0.06039045   -0.01973981   -0.05950389
     atom   37 type  1   force =     0.04026825   -0.05544301   -0.04003168
     atom   38 type  1   force =    -0.12737258   -0.15531661    0.12752157
     atom   39 type  1   force =     0.09681295    0.15473556   -0.05981755
     atom   40 type  1   force =    -0.10210634   -0.09892700    0.04719367
     atom   41 type  1   force =     0.01160538    0.02401636   -0.04609853
     atom   42 type  1   force =     0.00192723    0.02409305   -0.03483128
     atom   43 type  1   force =    -0.07258625   -0.13751466    0.05251142
     atom   44 type  1   force =    -0.00438242    0.09788906    0.05050675
     atom   45 type  1   force =     0.16440431   -0.18532966   -0.10333979
     atom   46 type  1   force =     0.16984231   -0.20472469   -0.19391348
     atom   47 type  1   force =     0.09904921    0.08573659   -0.07602851
     atom   48 type  1   force =     0.09018305   -0.09033123   -0.05921547
     atom   49 type  1   force =    -0.00713650   -0.02506232   -0.04263256
     atom   50 type  1   force =    -0.19892097    0.18557893    0.13320641
     atom   51 type  1   force =    -0.01153424    0.01107378    0.11310302
     atom   52 type  1   force =     0.04969227    0.08078376   -0.03225693
     atom   53 type  1   force =     0.28563347    0.34575936   -0.23955931
     atom   54 type  1   force =    -0.02605127   -0.05035578    0.09022622
     atom   55 type  1   force =     0.02037929    0.02191061    0.11745095
     atom   56 type  1   force =    -0.06730925   -0.04388999   -0.09375572
     atom   57 type  1   force =    -0.03709380   -0.00570881    0.03611415
     atom   58 type  1   force =     0.05773203    0.04318270    0.17328303
     atom   59 type  1   force =    -0.02030280   -0.09571879   -0.02507157
     atom   60 type  1   force =     0.10441381    0.07747063    0.10449722
     atom   61 type  1   force =    -0.05972832   -0.04213388   -0.00787667
     atom   62 type  1   force =    -0.03893709   -0.01964369    0.06186288
     atom   63 type  1   force =     0.03135151    0.05737463   -0.02764948
     atom   64 type  1   force =    -0.33667653   -0.28771236    0.35114171

     Total force =     1.327844     Total SCF correction =     0.001700


     Computing stress (Cartesian axis) and pressure

          total   stress  (Ry/bohr**3)                   (kbar)     P=       26.35
   0.00025942   0.00015164  -0.00033392           38.16       22.31      -49.12
   0.00015164   0.00001526  -0.00009572           22.31        2.24      -14.08
  -0.00033392  -0.00009572   0.00026271          -49.12      -14.08       38.65

 
     init_run     :      1.20s CPU      4.93s WALL (       1 calls)
     electrons    :      2.71s CPU      2.97s WALL (       1 calls)
     forces       :      0.04s CPU      0.05s WALL (       1 calls)
     stress       :      0.15s CPU      0.15s WALL (       1 calls)

     Called by init_run:
     wfcinit      :      0.68s CPU      4.24s WALL (       1 calls)
                                        4.24s GPU  (       1 calls)
     potinit      :      0.21s CPU      0.31s WALL (       1 calls)
     hinit0       :      0.28s CPU      0.31s WALL (       1 calls)

     Called by electrons:
     c_bands      :      1.90s CPU      2.04s WALL (      18 calls)
     sum_band     :      0.41s CPU      0.49s WALL (      18 calls)
     v_of_rho     :      0.18s CPU      0.29s WALL (      18 calls)
     mix_rho      :      0.18s CPU      0.20s WALL (      18 calls)

     Called by c_bands:
     init_us_2    :      0.07s CPU      0.07s WALL (      37 calls)
     init_us_2:gp :      0.06s CPU      0.07s WALL (      37 calls)
     regterg      :      1.75s CPU      1.87s WALL (      18 calls)

     Called by *egterg:
     rdiaghg      :      0.88s CPU      1.63s WALL (     202 calls)
                                        1.59s GPU  (     202 calls)
     h_psi        :      1.30s CPU      4.16s WALL (     204 calls)
                                        4.16s GPU  (     204 calls)
     g_psi        :      0.00s CPU      0.01s WALL (     185 calls)
                                        0.00s GPU  (     185 calls)

     Called by h_psi:
     h_psi:calbec :      0.65s CPU      3.42s WALL (     204 calls)
                                        3.42s GPU  (     204 calls)
     vloc_psi     :      0.53s CPU      0.61s WALL (     204 calls)
                                        0.60s GPU  (     204 calls)
     add_vuspsi   :      0.09s CPU      0.12s WALL (     204 calls)
                                        0.12s GPU  (     204 calls)

     General routines
     calbec       :      0.65s CPU      3.42s WALL (     209 calls)
     fft          :      0.42s CPU      0.55s WALL (     151 calls)
                                        0.14s GPU  (      96 calls)
     ffts         :      0.06s CPU      0.07s WALL (      18 calls)
     fftw         :      0.55s CPU      0.75s WALL (    1840 calls)
                                        0.68s GPU  (    1840 calls)
 
     Parallel routines
 
     PWSCF        :      4.14s CPU      8.18s WALL

 
   This run was terminated on:  15:36:33   8May2023            

=------------------------------------------------------------------------------=
   JOB DONE.
=------------------------------------------------------------------------------=
