An instance of this daemon is already running

     Program PWSCF v.7.1 starts on  8May2023 at 15:39: 3 

     This program is part of the open-source Quantum ESPRESSO suite
     for quantum simulation of materials; please cite
         "P. Giannozzi et al., J. Phys.:Condens. Matter 21 395502 (2009);
         "P. Giannozzi et al., J. Phys.:Condens. Matter 29 465901 (2017);
         "P. Giannozzi et al., J. Chem. Phys. 152 154105 (2020);
          URL http://www.quantum-espresso.org", 
     in publications or presentations arising from this work. More details at
     http://www.quantum-espresso.org/quote

     Parallel version (MPI & OpenMP), running on       4 processor cores
     Number of MPI processes:                 4
     Threads/MPI process:                     1

     MPI processes distributed on     1 nodes
     612947 MiB available memory on the printing compute node when the environment starts
 
     Reading input from pw-si-51.in
Warning: card &CELL ignored
Warning: card / ignored

     Current dimensions of program PWSCF are:
     Max number of different atomic species (ntypx) = 10
     Max number of k-points (npk) =  40000
     Max angular momentum in pseudopotentials (lmaxx) =  4

     IMPORTANT: XC functional enforced from input :
     Exchange-correlation= PBE
                           (   1   4   3   4   0   0   0)
     Any further DFT definition will be discarded
     Please, verify this is what you really want


     gamma-point specific algorithms are used
 
     K-points division:     npool     =       2
     R & G space division:  proc/nbgrp/npool/nimage =       2
     Subspace diagonalization in iterative solution of the eigenvalue problem:
     a serial algorithm will be used

     Message from routine divide_et_impera:
     suboptimal parallelization: some nodes have no k-points
 
     Parallelization info
     --------------------
     sticks:   dense  smooth     PW     G-vecs:    dense   smooth      PW
     Min        2238    2238    596               102791   102791   14028
     Max        2239    2239    597               102794   102794   14031
     Sum        4477    4477   1193               205585   205585   28059
 
     Using Slab Decomposition
 


     bravais-lattice index     =            0
     lattice parameter (alat)  =      21.7708  a.u.
     unit-cell volume          =    9258.8692 (a.u.)^3
     number of atoms/cell      =           64
     number of atomic types    =            1
     number of electrons       =       256.00
     number of Kohn-Sham states=          128
     kinetic-energy cutoff     =      30.0000  Ry
     charge density cutoff     =     120.0000  Ry
     scf convergence threshold =      1.0E-06
     mixing beta               =       0.5000
     number of iterations used =            8  plain     mixing
     Exchange-correlation= PBE
                           (   1   4   3   4   0   0   0)

     GPU acceleration is ACTIVE.
     GPU-aware MPI enabled

     Message from routine print_cuda_info:
     High GPU oversubscription detected. Are you sure this is what you want?

     celldm(1)=  21.770761  celldm(2)=   0.000000  celldm(3)=   0.000000
     celldm(4)=   0.000000  celldm(5)=   0.000000  celldm(6)=   0.000000

     crystal axes: (cart. coord. in units of alat)
               a(1) = (   1.000000   0.000000   0.000000 )  
               a(2) = (   0.000000   0.989839   0.000000 )  
               a(3) = (   0.000000   0.000000   0.906510 )  

     reciprocal axes: (cart. coord. in units 2 pi/alat)
               b(1) = (  1.000000  0.000000  0.000000 )  
               b(2) = (  0.000000  1.010266  0.000000 )  
               b(3) = (  0.000000  0.000000  1.103132 )  


     PseudoPot. # 1 for Si read from file:
     /home/ppiaggi/pseudos/Si_ONCV_PBE_sr.upf
     MD5 check sum: 8553c464762ac42b85b1eed164b4d029
     Pseudo is Norm-conserving, Zval =  4.0
     Generated using ONCVPSP code by D. R. Hamann
     Using radial grid of 1510 points,  4 beta functions with: 
                l(1) =   0
                l(2) =   0
                l(3) =   1
                l(4) =   1

     atomic species   valence    mass     pseudopotential
        Si             4.00    28.08500     Si( 1.00)

     No symmetry found



   Cartesian axes

     site n.     atom                  positions (alat units)
         1           Si  tau(   1) = (   0.0165904  -0.0120707   0.0009021  )
         2           Si  tau(   2) = (   0.0003284   0.2561105   0.2172330  )
         3           Si  tau(   3) = (   0.2370009   0.0037301   0.2124395  )
         4           Si  tau(   4) = (   0.2458643   0.2446695   0.0007998  )
         5           Si  tau(   5) = (   0.1175347   0.1398083   0.0991775  )
         6           Si  tau(   6) = (   0.4728498   0.0113284   0.0045731  )
         7           Si  tau(   7) = (   0.4880987   0.2646660   0.2315962  )
         8           Si  tau(   8) = (   0.5820567   0.1184103   0.1269341  )
         9           Si  tau(   9) = (   0.7359571  -0.0017514   0.2233852  )
        10           Si  tau(  10) = (   0.7249660   0.2631349   0.0127911  )
        11           Si  tau(  11) = (   0.0038118   0.4994487   0.0036589  )
        12           Si  tau(  12) = (   0.2291332   0.4910714   0.2100612  )
        13           Si  tau(  13) = (   0.1365368   0.6113338   0.1123567  )
        14           Si  tau(  14) = (   0.3695359   0.3754406   0.1196290  )
        15           Si  tau(  15) = (   0.4758503   0.4846897  -0.0076731  )
        16           Si  tau(  16) = (   0.6137209   0.6250159   0.1077777  )
        17           Si  tau(  17) = (   0.8369702   0.3637281   0.1011445  )
        18           Si  tau(  18) = (   0.7060207   0.4847806   0.2248357  )
        19           Si  tau(  19) = (  -0.0020619   0.7492657   0.2360313  )
        20           Si  tau(  20) = (   0.2267907   0.7287722   0.0012696  )
        21           Si  tau(  21) = (   0.3538775   0.8550934   0.0977918  )
        22           Si  tau(  22) = (   0.4891838   0.7399600   0.2280045  )
        23           Si  tau(  23) = (   0.7292480   0.7499355   0.0006668  )
        24           Si  tau(  24) = (   0.8485533   0.8877658   0.0988764  )
        25           Si  tau(  25) = (  -0.0159846  -0.0031226   0.4483615  )
        26           Si  tau(  26) = (   0.2560495   0.2478602   0.4314415  )
        27           Si  tau(  27) = (   0.1167149   0.1151987   0.5638317  )
        28           Si  tau(  28) = (   0.3684090   0.1193767   0.3465984  )
        29           Si  tau(  29) = (   0.4958503   0.0075155   0.4476183  )
        30           Si  tau(  30) = (   0.6065412   0.1198410   0.5730201  )
        31           Si  tau(  31) = (   0.8376414   0.1381138   0.3198038  )
        32           Si  tau(  32) = (   0.7048437   0.2481597   0.4399953  )
        33           Si  tau(  33) = (   0.1270711   0.3656422   0.3221198  )
        34           Si  tau(  34) = (   0.0076920   0.5043166   0.4312564  )
        35           Si  tau(  35) = (   0.1175092   0.6375668   0.5464090  )
        36           Si  tau(  36) = (   0.5873528   0.3822600   0.3197066  )
        37           Si  tau(  37) = (   0.3516224   0.6139278   0.3256854  )
        38           Si  tau(  38) = (   0.3711299   0.3639162   0.5755426  )
        39           Si  tau(  39) = (   0.4797198   0.4914404   0.4402400  )
        40           Si  tau(  40) = (   0.5853025   0.6112117   0.5498933  )
        41           Si  tau(  41) = (   0.8288369   0.6401477   0.3264016  )
        42           Si  tau(  42) = (   0.8354988   0.3713276   0.5659049  )
        43           Si  tau(  43) = (   0.1221531   0.8719188   0.3343421  )
        44           Si  tau(  44) = (   0.2352064   0.7468466   0.4431955  )
        45           Si  tau(  45) = (   0.5998794   0.8586458   0.3247502  )
        46           Si  tau(  46) = (   0.3731312   0.8745872   0.5704928  )
        47           Si  tau(  47) = (   0.7034331   0.7504578   0.4484680  )
        48           Si  tau(  48) = (   0.8361945   0.8811487   0.5493375  )
        49           Si  tau(  49) = (  -0.0000020   0.2501192   0.6835900  )
        50           Si  tau(  50) = (   0.2371501  -0.0074006   0.6724689  )
        51           Si  tau(  51) = (   0.3453669   0.1385621   0.7856465  )
        52           Si  tau(  52) = (   0.4798442   0.2613505   0.6837867  )
        53           Si  tau(  53) = (   0.7223380  -0.0124383   0.6741787  )
        54           Si  tau(  54) = (   0.8455564   0.1345345   0.7850021  )
        55           Si  tau(  55) = (   0.1041021   0.3736269   0.7803961  )
        56           Si  tau(  56) = (   0.2541003   0.5152890   0.6766507  )
        57           Si  tau(  57) = (   0.5950796   0.3580457   0.7734248  )
        58           Si  tau(  58) = (   0.3435162   0.6189003   0.7867927  )
        59           Si  tau(  59) = (   0.7252514   0.5121528   0.6868895  )
        60           Si  tau(  60) = (   0.8342088   0.6108457   0.7875325  )
        61           Si  tau(  61) = (  -0.0023604   0.7455055   0.6857668  )
        62           Si  tau(  62) = (   0.1045391   0.8575691   0.7878886  )
        63           Si  tau(  63) = (   0.4788604   0.7332010   0.6835604  )
        64           Si  tau(  64) = (   0.5858592   0.8827580   0.7920654  )

     number of k points=     1
                       cart. coord. in units 2pi/alat
        k(    1) = (   0.0000000   0.0000000   0.0000000), wk =   2.0000000

     Dense  grid:   102793 G-vectors     FFT dimensions: (  75,  75,  72)

     Estimated max dynamical RAM per process >     150.43 MB

     Estimated total dynamical RAM >     576.63 MB

     Initial potential from superposition of free atoms

     starting charge     255.9608, renormalised to     256.0000
     Starting wfcs are  256 randomized atomic wfcs

     total cpu time spent up to now is        5.2 secs

     Self-consistent Calculation

     iteration #  1     ecut=    30.00 Ry     beta= 0.50
     Davidson diagonalization with overlap
     ethr =  1.00E-02,  avg # of iterations =  3.0

     Threshold (ethr) on eigenvalues was too large:
     Diagonalizing with lowered threshold

     Davidson diagonalization with overlap
     ethr =  6.29E-04,  avg # of iterations = 17.0

     total cpu time spent up to now is        5.6 secs

     total energy              =    -502.32046206 Ry
     estimated scf accuracy    <       1.97566502 Ry

     iteration #  2     ecut=    30.00 Ry     beta= 0.50
     Davidson diagonalization with overlap
     ethr =  7.72E-04,  avg # of iterations =  8.0

     total cpu time spent up to now is        5.7 secs

     total energy              =    -502.11633177 Ry
     estimated scf accuracy    <       1.84469284 Ry

     iteration #  3     ecut=    30.00 Ry     beta= 0.50
     Davidson diagonalization with overlap
     ethr =  7.21E-04,  avg # of iterations = 11.0

     total cpu time spent up to now is        5.9 secs

     total energy              =    -502.41703875 Ry
     estimated scf accuracy    <       1.02202133 Ry

     iteration #  4     ecut=    30.00 Ry     beta= 0.50
     Davidson diagonalization with overlap
     ethr =  3.99E-04,  avg # of iterations =  5.0

     total cpu time spent up to now is        6.0 secs

     total energy              =    -502.47351408 Ry
     estimated scf accuracy    <       0.15328810 Ry

     iteration #  5     ecut=    30.00 Ry     beta= 0.50
     Davidson diagonalization with overlap
     ethr =  5.99E-05,  avg # of iterations = 13.0

     total cpu time spent up to now is        6.1 secs

     total energy              =    -502.51234546 Ry
     estimated scf accuracy    <       0.05309546 Ry

     iteration #  6     ecut=    30.00 Ry     beta= 0.50
     Davidson diagonalization with overlap
     ethr =  2.07E-05,  avg # of iterations =  9.0

     total cpu time spent up to now is        6.3 secs

     total energy              =    -502.51211659 Ry
     estimated scf accuracy    <       0.02226648 Ry

     iteration #  7     ecut=    30.00 Ry     beta= 0.50
     Davidson diagonalization with overlap
     ethr =  8.70E-06,  avg # of iterations = 19.0

     total cpu time spent up to now is        6.5 secs

     total energy              =    -502.51586755 Ry
     estimated scf accuracy    <       0.00620616 Ry

     iteration #  8     ecut=    30.00 Ry     beta= 0.50
     Davidson diagonalization with overlap
     ethr =  2.42E-06,  avg # of iterations = 17.0

     total cpu time spent up to now is        6.6 secs

     total energy              =    -502.51631776 Ry
     estimated scf accuracy    <       0.00200331 Ry

     iteration #  9     ecut=    30.00 Ry     beta= 0.50
     Davidson diagonalization with overlap
     ethr =  7.83E-07,  avg # of iterations = 10.0

     total cpu time spent up to now is        6.8 secs

     total energy              =    -502.51624285 Ry
     estimated scf accuracy    <       0.00200372 Ry

     iteration # 10     ecut=    30.00 Ry     beta= 0.50
     Davidson diagonalization with overlap
     ethr =  7.83E-07,  avg # of iterations = 16.0

     total cpu time spent up to now is        7.0 secs

     total energy              =    -502.51635556 Ry
     estimated scf accuracy    <       0.00014125 Ry

     iteration # 11     ecut=    30.00 Ry     beta= 0.50
     Davidson diagonalization with overlap
     c_bands:  1 eigenvalues not converged
     ethr =  5.52E-08,  avg # of iterations = 20.0

     total cpu time spent up to now is        7.2 secs

     total energy              =    -502.51640201 Ry
     estimated scf accuracy    <       0.00078021 Ry

     iteration # 12     ecut=    30.00 Ry     beta= 0.50
     Davidson diagonalization with overlap
     ethr =  5.52E-08,  avg # of iterations = 20.0

     total cpu time spent up to now is        7.4 secs

     total energy              =    -502.51642174 Ry
     estimated scf accuracy    <       0.00011261 Ry

     iteration # 13     ecut=    30.00 Ry     beta= 0.50
     Davidson diagonalization with overlap
     ethr =  4.40E-08,  avg # of iterations = 10.0

     total cpu time spent up to now is        7.5 secs

     total energy              =    -502.51642821 Ry
     estimated scf accuracy    <       0.00001229 Ry

     iteration # 14     ecut=    30.00 Ry     beta= 0.50
     Davidson diagonalization with overlap
     ethr =  4.80E-09,  avg # of iterations = 18.0

     total cpu time spent up to now is        7.7 secs

     total energy              =    -502.51643282 Ry
     estimated scf accuracy    <       0.00002182 Ry

     iteration # 15     ecut=    30.00 Ry     beta= 0.50
     Davidson diagonalization with overlap
     ethr =  4.80E-09,  avg # of iterations = 14.0

     total cpu time spent up to now is        7.9 secs

     total energy              =    -502.51643279 Ry
     estimated scf accuracy    <       0.00000681 Ry

     iteration # 16     ecut=    30.00 Ry     beta= 0.50
     Davidson diagonalization with overlap
     ethr =  2.66E-09,  avg # of iterations =  6.0

     total cpu time spent up to now is        8.0 secs

     total energy              =    -502.51643282 Ry
     estimated scf accuracy    <       0.00000251 Ry

     iteration # 17     ecut=    30.00 Ry     beta= 0.50
     Davidson diagonalization with overlap
     c_bands:  1 eigenvalues not converged
     ethr =  9.82E-10,  avg # of iterations = 20.0

     total cpu time spent up to now is        8.2 secs

     End of self-consistent calculation

          k = 0.0000 0.0000 0.0000 ( 12854 PWs)   bands (ev):

    -6.2765  -5.5969  -5.4121  -5.3377  -5.1790  -4.9704  -4.8559  -4.8115
    -4.5852  -4.4785  -4.4003  -4.3593  -4.2848  -4.2119  -4.1407  -4.0983
    -4.0183  -3.9802  -3.8666  -3.8440  -3.7585  -3.6723  -3.2990  -2.8527
    -2.6266  -2.5219  -2.4331  -2.3275  -2.2925  -2.1948  -2.1030  -2.0862
    -1.9973  -1.9955  -1.9338  -1.8413  -1.8074  -1.6907  -1.5855  -1.5130
    -1.3655  -1.3457  -1.1254  -1.0521  -0.8353  -0.4479  -0.1960  -0.1214
    -0.0278   0.0388   0.0691   0.1235   0.2698   0.3157   0.3662   0.5041
     0.6234   1.2667   1.4122   1.5141   1.5198   1.5625   1.5886   1.6493
     1.6757   1.7027   1.7575   1.7754   1.8070   1.8261   1.8790   1.9099
     1.9544   2.0196   2.0433   2.0533   2.1335   2.1427   2.1776   2.2075
     2.2822   2.3016   2.3678   2.4008   2.4461   2.5202   2.6147   2.7048
     2.7576   2.9220   3.0169   3.0819   3.1813   3.3229   3.4261   3.4595
     3.5014   3.5703   3.6122   3.6404   3.7262   3.7660   3.8161   3.8986
     3.9208   3.9809   4.0254   4.0429   4.1510   4.2076   4.2619   4.3044
     4.3474   4.4255   4.4723   4.5463   4.5557   4.6090   4.6878   4.7602
     4.7766   4.8914   4.9374   4.9998   5.3483   5.5094   5.5517   5.7818

     highest occupied level (ev):     5.7818

!    total energy              =    -502.51643307 Ry
     estimated scf accuracy    <       0.00000033 Ry

     The total energy is the sum of the following terms:
     one-electron contribution =     123.22602841 Ry
     hartree contribution      =      43.29085548 Ry
     xc contribution           =    -151.86461988 Ry
     ewald contribution        =    -517.16869708 Ry

     convergence has been achieved in  17 iterations

     Forces acting on atoms (cartesian axes, Ry/au):

     atom    1 type  1   force =    -0.08951109    0.06588981    0.03001732
     atom    2 type  1   force =    -0.07457400   -0.03208454   -0.02797142
     atom    3 type  1   force =     0.01693271    0.00467193    0.01211910
     atom    4 type  1   force =    -0.02511273    0.10707965    0.00215290
     atom    5 type  1   force =    -0.01947592   -0.06409938    0.03965825
     atom    6 type  1   force =    -0.04711077   -0.01376719   -0.03989741
     atom    7 type  1   force =    -0.10841449   -0.16521911   -0.06175722
     atom    8 type  1   force =     0.09117358    0.04001763   -0.00223159
     atom    9 type  1   force =    -0.06552466    0.00611601   -0.01332214
     atom   10 type  1   force =    -0.14918564   -0.17226165   -0.14382841
     atom   11 type  1   force =    -0.07051455   -0.02692907   -0.02214629
     atom   12 type  1   force =     0.11260957   -0.06623279    0.07464618
     atom   13 type  1   force =    -0.18023804    0.05901635    0.00501380
     atom   14 type  1   force =    -0.05689145   -0.02075900   -0.04672296
     atom   15 type  1   force =     0.03988491    0.04598927   -0.02161339
     atom   16 type  1   force =    -0.04805704   -0.03261848   -0.00472945
     atom   17 type  1   force =     0.17076069    0.15469307    0.13100811
     atom   18 type  1   force =     0.13872599    0.09361653   -0.07864986
     atom   19 type  1   force =    -0.03934854   -0.03285868   -0.04625587
     atom   20 type  1   force =     0.03916002    0.08796399   -0.07777293
     atom   21 type  1   force =     0.01619454    0.02653138    0.04313194
     atom   22 type  1   force =    -0.07116726   -0.04632109   -0.08013823
     atom   23 type  1   force =    -0.00271451    0.01777674   -0.03574323
     atom   24 type  1   force =     0.05664019   -0.04080800   -0.00690397
     atom   25 type  1   force =    -0.00392108    0.02962982   -0.00801032
     atom   26 type  1   force =    -0.06442438    0.01830317    0.10133142
     atom   27 type  1   force =    -0.01574633    0.03974153   -0.03217070
     atom   28 type  1   force =     0.00429023   -0.01007677   -0.09452651
     atom   29 type  1   force =    -0.00169234   -0.05224337    0.02106408
     atom   30 type  1   force =    -0.01564329    0.04032234   -0.01895130
     atom   31 type  1   force =     0.05487593    0.01511440    0.04140217
     atom   32 type  1   force =     0.03902218    0.01839387    0.01952068
     atom   33 type  1   force =    -0.02278039    0.02629142    0.05160866
     atom   34 type  1   force =    -0.04633772   -0.00649857    0.01126588
     atom   35 type  1   force =    -0.03053992   -0.06087612    0.07587290
     atom   36 type  1   force =     0.06879669    0.00859477    0.15932958
     atom   37 type  1   force =    -0.00375166    0.01692519    0.02136200
     atom   38 type  1   force =    -0.08935970    0.09953053   -0.11621665
     atom   39 type  1   force =    -0.07007569   -0.01220257    0.01801978
     atom   40 type  1   force =     0.06970885    0.04812480    0.06658746
     atom   41 type  1   force =     0.04259801   -0.04410291   -0.01289050
     atom   42 type  1   force =     0.03656954    0.00854195   -0.01245051
     atom   43 type  1   force =    -0.03070445    0.03314483    0.00012121
     atom   44 type  1   force =     0.08628655    0.04211318   -0.00688048
     atom   45 type  1   force =     0.02698599    0.10404531    0.02878123
     atom   46 type  1   force =    -0.01824009   -0.04195563   -0.04620975
     atom   47 type  1   force =     0.04860600   -0.02017940    0.03200887
     atom   48 type  1   force =     0.04841264   -0.06619330   -0.00611447
     atom   49 type  1   force =    -0.08393055   -0.06564862   -0.06268902
     atom   50 type  1   force =    -0.00487212    0.01461556    0.03703098
     atom   51 type  1   force =     0.04651330   -0.07474397   -0.02452915
     atom   52 type  1   force =    -0.04350512   -0.21984491   -0.05848313
     atom   53 type  1   force =     0.00606274    0.06790047    0.04553623
     atom   54 type  1   force =     0.02052868   -0.01161106    0.01974422
     atom   55 type  1   force =     0.10027917    0.06980949    0.06224324
     atom   56 type  1   force =    -0.15781864   -0.15819007   -0.14306722
     atom   57 type  1   force =     0.15699273    0.16531248    0.16319349
     atom   58 type  1   force =     0.12840006    0.08042222    0.13421338
     atom   59 type  1   force =    -0.12143991   -0.13849574   -0.13964989
     atom   60 type  1   force =     0.14494839    0.13105261    0.11816874
     atom   61 type  1   force =    -0.10349797   -0.08121200   -0.09802415
     atom   62 type  1   force =     0.11509490    0.02390662    0.02734091
     atom   63 type  1   force =     0.00322170    0.03505708   -0.01385235
     atom   64 type  1   force =     0.04584558   -0.06822200    0.01090577

     Total force =     1.014759     Total SCF correction =     0.000913


     Computing stress (Cartesian axis) and pressure

          total   stress  (Ry/bohr**3)                   (kbar)     P=       -2.62
  -0.00008280   0.00016977   0.00010241          -12.18       24.97       15.07
   0.00016977  -0.00010680   0.00019762           24.97      -15.71       29.07
   0.00010241   0.00019762   0.00013617           15.07       29.07       20.03

 
     init_run     :      1.07s CPU      5.14s WALL (       1 calls)
     electrons    :      2.78s CPU      2.94s WALL (       1 calls)
     forces       :      0.04s CPU      0.05s WALL (       1 calls)
     stress       :      0.15s CPU      0.15s WALL (       1 calls)

     Called by init_run:
     wfcinit      :      0.56s CPU      4.45s WALL (       1 calls)
                                        4.45s GPU  (       1 calls)
     potinit      :      0.21s CPU      0.31s WALL (       1 calls)
     hinit0       :      0.28s CPU      0.31s WALL (       1 calls)

     Called by electrons:
     c_bands      :      1.99s CPU      2.08s WALL (      18 calls)
     sum_band     :      0.40s CPU      0.43s WALL (      18 calls)
     v_of_rho     :      0.19s CPU      0.29s WALL (      18 calls)
     mix_rho      :      0.18s CPU      0.20s WALL (      18 calls)

     Called by c_bands:
     init_us_2    :      0.07s CPU      0.07s WALL (      37 calls)
     init_us_2:gp :      0.07s CPU      0.07s WALL (      37 calls)
     regterg      :      1.83s CPU      1.91s WALL (      18 calls)

     Called by *egterg:
     rdiaghg      :      0.88s CPU      1.68s WALL (     253 calls)
                                        1.64s GPU  (     253 calls)
     h_psi        :      1.24s CPU      4.38s WALL (     255 calls)
                                        4.37s GPU  (     255 calls)
     g_psi        :      0.00s CPU      0.01s WALL (     236 calls)
                                        0.00s GPU  (     236 calls)

     Called by h_psi:
     h_psi:calbec :      0.54s CPU      3.60s WALL (     255 calls)
                                        3.60s GPU  (     255 calls)
     vloc_psi     :      0.54s CPU      0.61s WALL (     255 calls)
                                        0.60s GPU  (     255 calls)
     add_vuspsi   :      0.12s CPU      0.15s WALL (     255 calls)
                                        0.15s GPU  (     255 calls)

     General routines
     calbec       :      0.55s CPU      3.60s WALL (     260 calls)
     fft          :      0.42s CPU      0.55s WALL (     151 calls)
                                        0.14s GPU  (      96 calls)
     ffts         :      0.06s CPU      0.07s WALL (      18 calls)
     fftw         :      0.56s CPU      0.74s WALL (    1932 calls)
                                        0.67s GPU  (    1932 calls)
 
     Parallel routines
 
     PWSCF        :      4.09s CPU      8.37s WALL

 
   This run was terminated on:  15:39:12   8May2023            

=------------------------------------------------------------------------------=
   JOB DONE.
=------------------------------------------------------------------------------=
