An instance of this daemon is already running
An instance of this daemon is already running

     Program PWSCF v.7.1 starts on  8May2023 at 15:51:17 

     This program is part of the open-source Quantum ESPRESSO suite
     for quantum simulation of materials; please cite
         "P. Giannozzi et al., J. Phys.:Condens. Matter 21 395502 (2009);
         "P. Giannozzi et al., J. Phys.:Condens. Matter 29 465901 (2017);
         "P. Giannozzi et al., J. Chem. Phys. 152 154105 (2020);
          URL http://www.quantum-espresso.org", 
     in publications or presentations arising from this work. More details at
     http://www.quantum-espresso.org/quote

     Parallel version (MPI & OpenMP), running on       4 processor cores
     Number of MPI processes:                 4
     Threads/MPI process:                     1

     MPI processes distributed on     1 nodes
     614882 MiB available memory on the printing compute node when the environment starts
 
     Reading input from pw-si-92.in
Warning: card &CELL ignored
Warning: card / ignored

     Current dimensions of program PWSCF are:
     Max number of different atomic species (ntypx) = 10
     Max number of k-points (npk) =  40000
     Max angular momentum in pseudopotentials (lmaxx) =  4

     IMPORTANT: XC functional enforced from input :
     Exchange-correlation= PBE
                           (   1   4   3   4   0   0   0)
     Any further DFT definition will be discarded
     Please, verify this is what you really want


     gamma-point specific algorithms are used
 
     K-points division:     npool     =       2
     R & G space division:  proc/nbgrp/npool/nimage =       2
     Subspace diagonalization in iterative solution of the eigenvalue problem:
     a serial algorithm will be used

     Message from routine divide_et_impera:
     suboptimal parallelization: some nodes have no k-points
 
     Parallelization info
     --------------------
     sticks:   dense  smooth     PW     G-vecs:    dense   smooth      PW
     Min        2024    2024    532               100733   100733   13663
     Max        2027    2027    533               100736   100736   13664
     Sum        4051    4051   1065               201469   201469   27327
 
     Using Slab Decomposition
 


     bravais-lattice index     =            0
     lattice parameter (alat)  =      21.0665  a.u.
     unit-cell volume          =    9074.0323 (a.u.)^3
     number of atoms/cell      =           64
     number of atomic types    =            1
     number of electrons       =       256.00
     number of Kohn-Sham states=          128
     kinetic-energy cutoff     =      30.0000  Ry
     charge density cutoff     =     120.0000  Ry
     scf convergence threshold =      1.0E-06
     mixing beta               =       0.5000
     number of iterations used =            8  plain     mixing
     Exchange-correlation= PBE
                           (   1   4   3   4   0   0   0)

     GPU acceleration is ACTIVE.
     GPU-aware MPI enabled

     Message from routine print_cuda_info:
     High GPU oversubscription detected. Are you sure this is what you want?

     celldm(1)=  21.066455  celldm(2)=   0.000000  celldm(3)=   0.000000
     celldm(4)=   0.000000  celldm(5)=   0.000000  celldm(6)=   0.000000

     crystal axes: (cart. coord. in units of alat)
               a(1) = (   1.000000   0.000000   0.000000 )  
               a(2) = (   0.000000   0.955135   0.000000 )  
               a(3) = (   0.000000   0.000000   1.016158 )  

     reciprocal axes: (cart. coord. in units 2 pi/alat)
               b(1) = (  1.000000  0.000000  0.000000 )  
               b(2) = (  0.000000  1.046972  0.000000 )  
               b(3) = (  0.000000  0.000000  0.984099 )  


     PseudoPot. # 1 for Si read from file:
     /home/ppiaggi/pseudos/Si_ONCV_PBE_sr.upf
     MD5 check sum: 8553c464762ac42b85b1eed164b4d029
     Pseudo is Norm-conserving, Zval =  4.0
     Generated using ONCVPSP code by D. R. Hamann
     Using radial grid of 1510 points,  4 beta functions with: 
                l(1) =   0
                l(2) =   0
                l(3) =   1
                l(4) =   1

     atomic species   valence    mass     pseudopotential
        Si             4.00    28.08500     Si( 1.00)

     No symmetry found



   Cartesian axes

     site n.     atom                  positions (alat units)
         1           Si  tau(   1) = (   0.0174164  -0.0148463   0.0156388  )
         2           Si  tau(   2) = (  -0.0064688   0.2336866   0.2467780  )
         3           Si  tau(   3) = (   0.2572353  -0.0088213   0.2415327  )
         4           Si  tau(   4) = (   0.2560377   0.2266896   0.0136816  )
         5           Si  tau(   5) = (   0.1298262   0.1286077   0.1105306  )
         6           Si  tau(   6) = (   0.4992704   0.0068163   0.0041384  )
         7           Si  tau(   7) = (   0.5088504   0.2384183   0.2688820  )
         8           Si  tau(   8) = (   0.6340413   0.1157761   0.1162632  )
         9           Si  tau(   9) = (   0.7280383   0.0112934   0.2647597  )
        10           Si  tau(  10) = (   0.7498239   0.2327379   0.0157875  )
        11           Si  tau(  11) = (   0.0042427   0.4666591  -0.0094802  )
        12           Si  tau(  12) = (   0.2647532   0.4988668   0.2360853  )
        13           Si  tau(  13) = (   0.1061366   0.6065556   0.1155371  )
        14           Si  tau(  14) = (   0.3538616   0.3647105   0.1342653  )
        15           Si  tau(  15) = (   0.4924915   0.4754883   0.0167511  )
        16           Si  tau(  16) = (   0.6331845   0.6030282   0.1082235  )
        17           Si  tau(  17) = (   0.8762437   0.3573503   0.1408557  )
        18           Si  tau(  18) = (   0.7422324   0.4770415   0.2399657  )
        19           Si  tau(  19) = (  -0.0008034   0.7302652   0.2409970  )
        20           Si  tau(  20) = (   0.2517450   0.7298275  -0.0168953  )
        21           Si  tau(  21) = (   0.3766769   0.8342462   0.1328537  )
        22           Si  tau(  22) = (   0.5138811   0.7148602   0.2369629  )
        23           Si  tau(  23) = (   0.7610641   0.7385267  -0.0071204  )
        24           Si  tau(  24) = (   0.8628828   0.8321997   0.1220279  )
        25           Si  tau(  25) = (  -0.0102657  -0.0088954   0.5097821  )
        26           Si  tau(  26) = (   0.2612811   0.2430393   0.5190275  )
        27           Si  tau(  27) = (   0.1410588   0.1274709   0.6279794  )
        28           Si  tau(  28) = (   0.3732544   0.1158743   0.3640579  )
        29           Si  tau(  29) = (   0.4910008  -0.0121467   0.5094680  )
        30           Si  tau(  30) = (   0.6232763   0.1052217   0.6374273  )
        31           Si  tau(  31) = (   0.8761277   0.1117736   0.3845075  )
        32           Si  tau(  32) = (   0.7265953   0.2559686   0.4884227  )
        33           Si  tau(  33) = (   0.1087621   0.3604860   0.3757435  )
        34           Si  tau(  34) = (   0.0049404   0.4884563   0.5087868  )
        35           Si  tau(  35) = (   0.1172762   0.5994791   0.6223703  )
        36           Si  tau(  36) = (   0.6171430   0.3541305   0.3796830  )
        37           Si  tau(  37) = (   0.3730182   0.5916449   0.3878883  )
        38           Si  tau(  38) = (   0.3562373   0.3769949   0.6473069  )
        39           Si  tau(  39) = (   0.5113100   0.4767827   0.5152309  )
        40           Si  tau(  40) = (   0.6276108   0.5966956   0.6390562  )
        41           Si  tau(  41) = (   0.8849358   0.5954483   0.3599410  )
        42           Si  tau(  42) = (   0.8627612   0.3607404   0.6215192  )
        43           Si  tau(  43) = (   0.1141069   0.8471971   0.3647854  )
        44           Si  tau(  44) = (   0.2563832   0.7314737   0.4852994  )
        45           Si  tau(  45) = (   0.6370114   0.8390923   0.3904568  )
        46           Si  tau(  46) = (   0.3840927   0.8575043   0.6174646  )
        47           Si  tau(  47) = (   0.7435335   0.7389318   0.5182894  )
        48           Si  tau(  48) = (   0.8824553   0.8431813   0.6383404  )
        49           Si  tau(  49) = (   0.0035093   0.2419731   0.7577630  )
        50           Si  tau(  50) = (   0.2439060  -0.0088538   0.7511766  )
        51           Si  tau(  51) = (   0.3845569   0.1272667   0.8638606  )
        52           Si  tau(  52) = (   0.5096587   0.2330260   0.7527059  )
        53           Si  tau(  53) = (   0.7412194   0.0157219   0.7500747  )
        54           Si  tau(  54) = (   0.8618923   0.1225409   0.8900984  )
        55           Si  tau(  55) = (   0.1244777   0.3526868   0.8631092  )
        56           Si  tau(  56) = (   0.2511448   0.4929124   0.7553646  )
        57           Si  tau(  57) = (   0.6183849   0.3655531   0.8920064  )
        58           Si  tau(  58) = (   0.3593904   0.5878480   0.8756587  )
        59           Si  tau(  59) = (   0.7485666   0.4945428   0.7403374  )
        60           Si  tau(  60) = (   0.8668238   0.5983050   0.8672801  )
        61           Si  tau(  61) = (  -0.0128959   0.7099989   0.7529472  )
        62           Si  tau(  62) = (   0.1211601   0.8293213   0.8885313  )
        63           Si  tau(  63) = (   0.5049063   0.7191619   0.7379682  )
        64           Si  tau(  64) = (   0.6201290   0.8606687   0.8845590  )

     number of k points=     1
                       cart. coord. in units 2pi/alat
        k(    1) = (   0.0000000   0.0000000   0.0000000), wk =   2.0000000

     Dense  grid:   100735 G-vectors     FFT dimensions: (  75,  72,  75)

     Estimated max dynamical RAM per process >     147.92 MB

     Estimated total dynamical RAM >     567.09 MB

     Initial potential from superposition of free atoms

     starting charge     255.9608, renormalised to     256.0000
     Starting wfcs are  256 randomized atomic wfcs

     total cpu time spent up to now is        5.0 secs

     Self-consistent Calculation

     iteration #  1     ecut=    30.00 Ry     beta= 0.50
     Davidson diagonalization with overlap
     ethr =  1.00E-02,  avg # of iterations =  2.0

     Threshold (ethr) on eigenvalues was too large:
     Diagonalizing with lowered threshold

     Davidson diagonalization with overlap
     ethr =  6.66E-04,  avg # of iterations =  2.0

     total cpu time spent up to now is        5.3 secs

     total energy              =    -502.60405037 Ry
     estimated scf accuracy    <       1.93691376 Ry

     iteration #  2     ecut=    30.00 Ry     beta= 0.50
     Davidson diagonalization with overlap
     ethr =  7.57E-04,  avg # of iterations =  1.0

     total cpu time spent up to now is        5.4 secs

     total energy              =    -502.61236213 Ry
     estimated scf accuracy    <       0.35516500 Ry

     iteration #  3     ecut=    30.00 Ry     beta= 0.50
     Davidson diagonalization with overlap
     ethr =  1.39E-04,  avg # of iterations = 19.0

     total cpu time spent up to now is        5.6 secs

     total energy              =    -502.68133487 Ry
     estimated scf accuracy    <       0.05761662 Ry

     iteration #  4     ecut=    30.00 Ry     beta= 0.50
     Davidson diagonalization with overlap
     ethr =  2.25E-05,  avg # of iterations = 10.0

     total cpu time spent up to now is        5.7 secs

     total energy              =    -502.68589839 Ry
     estimated scf accuracy    <       0.04566515 Ry

     iteration #  5     ecut=    30.00 Ry     beta= 0.50
     Davidson diagonalization with overlap
     ethr =  1.78E-05,  avg # of iterations =  9.0

     total cpu time spent up to now is        5.8 secs

     total energy              =    -502.69318362 Ry
     estimated scf accuracy    <       0.00850393 Ry

     iteration #  6     ecut=    30.00 Ry     beta= 0.50
     Davidson diagonalization with overlap
     ethr =  3.32E-06,  avg # of iterations =  9.0

     total cpu time spent up to now is        6.0 secs

     total energy              =    -502.69396082 Ry
     estimated scf accuracy    <       0.00467927 Ry

     iteration #  7     ecut=    30.00 Ry     beta= 0.50
     Davidson diagonalization with overlap
     ethr =  1.83E-06,  avg # of iterations =  9.0

     total cpu time spent up to now is        6.1 secs

     total energy              =    -502.69470739 Ry
     estimated scf accuracy    <       0.00103821 Ry

     iteration #  8     ecut=    30.00 Ry     beta= 0.50
     Davidson diagonalization with overlap
     ethr =  4.06E-07,  avg # of iterations =  8.0

     total cpu time spent up to now is        6.3 secs

     total energy              =    -502.69484402 Ry
     estimated scf accuracy    <       0.00013512 Ry

     iteration #  9     ecut=    30.00 Ry     beta= 0.50
     Davidson diagonalization with overlap
     c_bands:  1 eigenvalues not converged
     ethr =  5.28E-08,  avg # of iterations = 20.0

     total cpu time spent up to now is        6.5 secs

     total energy              =    -502.69486427 Ry
     estimated scf accuracy    <       0.00014021 Ry

     iteration # 10     ecut=    30.00 Ry     beta= 0.50
     Davidson diagonalization with overlap
     ethr =  5.28E-08,  avg # of iterations = 14.0

     total cpu time spent up to now is        6.6 secs

     total energy              =    -502.69488218 Ry
     estimated scf accuracy    <       0.00003877 Ry

     iteration # 11     ecut=    30.00 Ry     beta= 0.50
     Davidson diagonalization with overlap
     ethr =  1.51E-08,  avg # of iterations = 10.0

     total cpu time spent up to now is        6.8 secs

     total energy              =    -502.69488548 Ry
     estimated scf accuracy    <       0.00000556 Ry

     iteration # 12     ecut=    30.00 Ry     beta= 0.50
     Davidson diagonalization with overlap
     ethr =  2.17E-09,  avg # of iterations = 18.0

     total cpu time spent up to now is        7.0 secs

     total energy              =    -502.69488709 Ry
     estimated scf accuracy    <       0.00000267 Ry

     iteration # 13     ecut=    30.00 Ry     beta= 0.50
     Davidson diagonalization with overlap
     ethr =  1.04E-09,  avg # of iterations =  8.0

     total cpu time spent up to now is        7.1 secs

     total energy              =    -502.69488726 Ry
     estimated scf accuracy    <       0.00000103 Ry

     iteration # 14     ecut=    30.00 Ry     beta= 0.50
     Davidson diagonalization with overlap
     ethr =  4.03E-10,  avg # of iterations =  9.0

     total cpu time spent up to now is        7.2 secs

     End of self-consistent calculation

          k = 0.0000 0.0000 0.0000 ( 12624 PWs)   bands (ev):

    -6.0887  -5.3048  -5.2479  -5.1716  -5.0941  -4.9143  -4.8205  -4.5837
    -4.4338  -4.4132  -4.3812  -4.2482  -4.2123  -4.1027  -4.0351  -4.0017
    -3.8743  -3.8370  -3.7780  -3.6423  -3.6028  -3.5548  -3.4607  -2.5465
    -2.4669  -2.3613  -2.3070  -2.2082  -2.1325  -2.0664  -1.9283  -1.9010
    -1.8300  -1.7763  -1.7680  -1.7304  -1.6664  -1.5115  -1.4677  -1.3735
    -1.3118  -1.1271  -1.0362  -0.9094  -0.8306  -0.0565   0.0133   0.1114
     0.1238   0.1991   0.3279   0.3670   0.3905   0.4545   0.5508   0.6179
     0.6642   1.5602   1.6280   1.6627   1.6889   1.7544   1.8257   1.8371
     1.8891   1.8966   1.9290   1.9457   1.9969   2.0128   2.0390   2.0568
     2.0688   2.1230   2.1437   2.1731   2.2029   2.2575   2.2980   2.3540
     2.4003   2.4631   2.4910   2.5368   2.5753   2.6523   2.7295   2.8066
     2.9743   3.0377   3.1643   3.1775   3.2434   3.5151   3.5730   3.6090
     3.7223   3.7555   3.8431   3.8489   3.9114   3.9523   3.9854   4.0660
     4.1010   4.1153   4.1945   4.2124   4.2953   4.3991   4.4177   4.4684
     4.4924   4.5677   4.6105   4.6718   4.6878   4.7358   4.8420   4.8872
     4.9848   5.0827   5.1847   5.2673   5.3882   5.6871   5.8404   6.0172

     highest occupied level (ev):     6.0172

!    total energy              =    -502.69488734 Ry
     estimated scf accuracy    <       0.00000012 Ry

     The total energy is the sum of the following terms:
     one-electron contribution =     135.35252584 Ry
     hartree contribution      =      39.17933215 Ry
     xc contribution           =    -152.63873137 Ry
     ewald contribution        =    -524.58801395 Ry

     convergence has been achieved in  14 iterations

     Forces acting on atoms (cartesian axes, Ry/au):

     atom    1 type  1   force =    -0.07217581    0.02914136   -0.04346563
     atom    2 type  1   force =     0.04405677   -0.03196036    0.04065698
     atom    3 type  1   force =    -0.07880834    0.07930329    0.02603555
     atom    4 type  1   force =     0.08067632    0.09183807   -0.15302905
     atom    5 type  1   force =    -0.07968142   -0.09040380    0.11491170
     atom    6 type  1   force =    -0.03803960    0.00808759   -0.01986808
     atom    7 type  1   force =    -0.06678945   -0.04058228   -0.12849144
     atom    8 type  1   force =    -0.09225992   -0.00447335    0.08064061
     atom    9 type  1   force =     0.09020560   -0.01903047   -0.03631461
     atom   10 type  1   force =     0.04853362    0.09608631   -0.07241712
     atom   11 type  1   force =    -0.03339521    0.01652696   -0.00247212
     atom   12 type  1   force =    -0.13320810    0.04341390    0.06776810
     atom   13 type  1   force =     0.08231453   -0.01406159   -0.03140698
     atom   14 type  1   force =     0.10999776   -0.08293980   -0.02856172
     atom   15 type  1   force =    -0.00737280    0.00049009   -0.06804800
     atom   16 type  1   force =     0.00126011    0.00326534    0.00183598
     atom   17 type  1   force =    -0.01336619    0.00540715   -0.08539681
     atom   18 type  1   force =     0.00210526    0.01908034    0.04548080
     atom   19 type  1   force =    -0.02401013   -0.03923573    0.00496573
     atom   20 type  1   force =     0.02373797   -0.07189468    0.06705311
     atom   21 type  1   force =     0.03470127   -0.03739990   -0.08334691
     atom   22 type  1   force =    -0.00417195   -0.00049607    0.07544343
     atom   23 type  1   force =    -0.08660699   -0.09470314   -0.11399673
     atom   24 type  1   force =     0.05997169    0.10716552    0.09791318
     atom   25 type  1   force =     0.09426857    0.07257388   -0.02448969
     atom   26 type  1   force =    -0.00966524    0.03152992   -0.09004804
     atom   27 type  1   force =    -0.09398960   -0.05513884    0.02019433
     atom   28 type  1   force =     0.00838979    0.00158401    0.06917462
     atom   29 type  1   force =     0.18662962    0.17745094   -0.18650464
     atom   30 type  1   force =    -0.08797828    0.10124673   -0.15246507
     atom   31 type  1   force =    -0.04816835    0.05102943   -0.02827255
     atom   32 type  1   force =     0.16356803   -0.16148187    0.15243122
     atom   33 type  1   force =     0.06966911    0.00252588    0.00622048
     atom   34 type  1   force =    -0.07876806   -0.07337169   -0.05462668
     atom   35 type  1   force =     0.07141104    0.07353714    0.03205210
     atom   36 type  1   force =    -0.04477313    0.16994963   -0.07487081
     atom   37 type  1   force =     0.05968589    0.01661171   -0.04138163
     atom   38 type  1   force =     0.14245178   -0.09533312   -0.08735375
     atom   39 type  1   force =    -0.06531592    0.00006808    0.00002116
     atom   40 type  1   force =    -0.04169751    0.07785041   -0.11468431
     atom   41 type  1   force =    -0.04001452    0.02528055    0.03773149
     atom   42 type  1   force =     0.02879052    0.00810893    0.00070538
     atom   43 type  1   force =     0.03214258   -0.00819007    0.02809902
     atom   44 type  1   force =    -0.04077514   -0.00142252    0.05110749
     atom   45 type  1   force =    -0.11217041   -0.00906502   -0.05700035
     atom   46 type  1   force =    -0.19565030   -0.20244687    0.17783004
     atom   47 type  1   force =     0.07389472   -0.09585583    0.02646799
     atom   48 type  1   force =    -0.07676053   -0.01347653    0.03503842
     atom   49 type  1   force =    -0.07390328   -0.05209723   -0.06018865
     atom   50 type  1   force =     0.01896654    0.03790213    0.02390758
     atom   51 type  1   force =    -0.06749403   -0.06835674    0.09132703
     atom   52 type  1   force =     0.00063065    0.09287305   -0.00629615
     atom   53 type  1   force =     0.12275731   -0.07516791    0.09830898
     atom   54 type  1   force =     0.06253355   -0.01157087   -0.00313206
     atom   55 type  1   force =     0.05256962    0.04974216    0.09908967
     atom   56 type  1   force =    -0.16159910   -0.01923765   -0.01827567
     atom   57 type  1   force =     0.01977672   -0.01758092   -0.00166279
     atom   58 type  1   force =     0.13269723    0.10790496    0.10124209
     atom   59 type  1   force =     0.04098079   -0.12277652    0.09766251
     atom   60 type  1   force =     0.01255749   -0.00710560    0.09259579
     atom   61 type  1   force =     0.07679279    0.02451046    0.00071737
     atom   62 type  1   force =    -0.03242064    0.02539440   -0.06322279
     atom   63 type  1   force =    -0.05116076    0.04124955    0.08456414
     atom   64 type  1   force =     0.00346546   -0.07187290   -0.01790327

     Total force =     1.043856     Total SCF correction =     0.000496


     Computing stress (Cartesian axis) and pressure

          total   stress  (Ry/bohr**3)                   (kbar)     P=       12.50
   0.00008431   0.00004354   0.00004633           12.40        6.40        6.82
   0.00004354   0.00016321   0.00001176            6.40       24.01        1.73
   0.00004633   0.00001176   0.00000730            6.82        1.73        1.07

 
     init_run     :      1.29s CPU      4.95s WALL (       1 calls)
     electrons    :      2.09s CPU      2.21s WALL (       1 calls)
     forces       :      0.04s CPU      0.05s WALL (       1 calls)
     stress       :      0.14s CPU      0.15s WALL (       1 calls)

     Called by init_run:
     wfcinit      :      0.63s CPU      4.12s WALL (       1 calls)
                                        4.12s GPU  (       1 calls)
     potinit      :      0.22s CPU      0.30s WALL (       1 calls)
     hinit0       :      0.42s CPU      0.45s WALL (       1 calls)

     Called by electrons:
     c_bands      :      1.43s CPU      1.48s WALL (      15 calls)
     sum_band     :      0.33s CPU      0.37s WALL (      15 calls)
     v_of_rho     :      0.17s CPU      0.26s WALL (      15 calls)
     mix_rho      :      0.14s CPU      0.15s WALL (      15 calls)

     Called by c_bands:
     init_us_2    :      0.06s CPU      0.06s WALL (      31 calls)
     init_us_2:gp :      0.06s CPU      0.06s WALL (      31 calls)
     regterg      :      1.30s CPU      1.34s WALL (      15 calls)

     Called by *egterg:
     rdiaghg      :      0.62s CPU      1.34s WALL (     162 calls)
                                        1.31s GPU  (     162 calls)
     h_psi        :      1.10s CPU      3.90s WALL (     164 calls)
                                        3.89s GPU  (     164 calls)
     g_psi        :      0.00s CPU      0.00s WALL (     148 calls)
                                        0.00s GPU  (     148 calls)

     Called by h_psi:
     h_psi:calbec :      0.58s CPU      3.30s WALL (     164 calls)
                                        3.30s GPU  (     164 calls)
     vloc_psi     :      0.42s CPU      0.49s WALL (     164 calls)
                                        0.49s GPU  (     164 calls)
     add_vuspsi   :      0.08s CPU      0.10s WALL (     164 calls)
                                        0.10s GPU  (     164 calls)

     General routines
     calbec       :      0.58s CPU      3.30s WALL (     169 calls)
     fft          :      0.53s CPU      0.65s WALL (     127 calls)
                                        0.13s GPU  (      81 calls)
     ffts         :      0.05s CPU      0.05s WALL (      15 calls)
     fftw         :      0.46s CPU      0.61s WALL (    1528 calls)
                                        0.55s GPU  (    1528 calls)
 
     Parallel routines
 
     PWSCF        :      3.61s CPU      7.44s WALL

 
   This run was terminated on:  15:51:25   8May2023            

=------------------------------------------------------------------------------=
   JOB DONE.
=------------------------------------------------------------------------------=
