An instance of this daemon is already running

     Program PWSCF v.7.1 starts on  8May2023 at 15:46: 3 

     This program is part of the open-source Quantum ESPRESSO suite
     for quantum simulation of materials; please cite
         "P. Giannozzi et al., J. Phys.:Condens. Matter 21 395502 (2009);
         "P. Giannozzi et al., J. Phys.:Condens. Matter 29 465901 (2017);
         "P. Giannozzi et al., J. Chem. Phys. 152 154105 (2020);
          URL http://www.quantum-espresso.org", 
     in publications or presentations arising from this work. More details at
     http://www.quantum-espresso.org/quote

     Parallel version (MPI & OpenMP), running on       4 processor cores
     Number of MPI processes:                 4
     Threads/MPI process:                     1

     MPI processes distributed on     1 nodes
     615256 MiB available memory on the printing compute node when the environment starts
 
     Reading input from pw-si-71.in
Warning: card &CELL ignored
Warning: card / ignored

     Current dimensions of program PWSCF are:
     Max number of different atomic species (ntypx) = 10
     Max number of k-points (npk) =  40000
     Max angular momentum in pseudopotentials (lmaxx) =  4

     IMPORTANT: XC functional enforced from input :
     Exchange-correlation= PBE
                           (   1   4   3   4   0   0   0)
     Any further DFT definition will be discarded
     Please, verify this is what you really want


     gamma-point specific algorithms are used
 
     K-points division:     npool     =       2
     R & G space division:  proc/nbgrp/npool/nimage =       2
     Subspace diagonalization in iterative solution of the eigenvalue problem:
     a serial algorithm will be used

     Message from routine divide_et_impera:
     suboptimal parallelization: some nodes have no k-points
 
     Parallelization info
     --------------------
     sticks:   dense  smooth     PW     G-vecs:    dense   smooth      PW
     Min        2029    2029    535                96814    96814   13147
     Max        2030    2030    538                96815    96815   13150
     Sum        4059    4059   1073               193629   193629   26297
 
     Using Slab Decomposition
 


     bravais-lattice index     =            0
     lattice parameter (alat)  =      20.0040  a.u.
     unit-cell volume          =    8728.4812 (a.u.)^3
     number of atoms/cell      =           64
     number of atomic types    =            1
     number of electrons       =       256.00
     number of Kohn-Sham states=          128
     kinetic-energy cutoff     =      30.0000  Ry
     charge density cutoff     =     120.0000  Ry
     scf convergence threshold =      1.0E-06
     mixing beta               =       0.5000
     number of iterations used =            8  plain     mixing
     Exchange-correlation= PBE
                           (   1   4   3   4   0   0   0)

     GPU acceleration is ACTIVE.
     GPU-aware MPI enabled

     Message from routine print_cuda_info:
     High GPU oversubscription detected. Are you sure this is what you want?

     celldm(1)=  20.003980  celldm(2)=   0.000000  celldm(3)=   0.000000
     celldm(4)=   0.000000  celldm(5)=   0.000000  celldm(6)=   0.000000

     crystal axes: (cart. coord. in units of alat)
               a(1) = (   1.000000   0.000000   0.000000 )  
               a(2) = (   0.000000   1.064500   0.000000 )  
               a(3) = (   0.000000   0.000000   1.024340 )  

     reciprocal axes: (cart. coord. in units 2 pi/alat)
               b(1) = (  1.000000  0.000000  0.000000 )  
               b(2) = (  0.000000  0.939409  0.000000 )  
               b(3) = (  0.000000  0.000000  0.976239 )  


     PseudoPot. # 1 for Si read from file:
     /home/ppiaggi/pseudos/Si_ONCV_PBE_sr.upf
     MD5 check sum: 8553c464762ac42b85b1eed164b4d029
     Pseudo is Norm-conserving, Zval =  4.0
     Generated using ONCVPSP code by D. R. Hamann
     Using radial grid of 1510 points,  4 beta functions with: 
                l(1) =   0
                l(2) =   0
                l(3) =   1
                l(4) =   1

     atomic species   valence    mass     pseudopotential
        Si             4.00    28.08500     Si( 1.00)

     No symmetry found



   Cartesian axes

     site n.     atom                  positions (alat units)
         1           Si  tau(   1) = (   0.0004255   0.0034040  -0.0091523  )
         2           Si  tau(   2) = (  -0.0146997   0.2632438   0.2654296  )
         3           Si  tau(   3) = (   0.2446467   0.0181839   0.2727948  )
         4           Si  tau(   4) = (   0.2594346   0.2699143   0.0025168  )
         5           Si  tau(   5) = (   0.1401867   0.1287947   0.1476725  )
         6           Si  tau(   6) = (   0.5016657  -0.0163603  -0.0100473  )
         7           Si  tau(   7) = (   0.4790668   0.2730516   0.2746973  )
         8           Si  tau(   8) = (   0.6046479   0.1141764   0.1374218  )
         9           Si  tau(   9) = (   0.7237806  -0.0146827   0.2659801  )
        10           Si  tau(  10) = (   0.7251150   0.2599512   0.0065847  )
        11           Si  tau(  11) = (   0.0068095   0.4996963  -0.0118565  )
        12           Si  tau(  12) = (   0.2353620   0.5212638   0.2599753  )
        13           Si  tau(  13) = (   0.1275588   0.6381676   0.1357475  )
        14           Si  tau(  14) = (   0.3842083   0.4046548   0.1167992  )
        15           Si  tau(  15) = (   0.5058103   0.5186522   0.0108583  )
        16           Si  tau(  16) = (   0.6198950   0.6615237   0.1442120  )
        17           Si  tau(  17) = (   0.8432667   0.3817350   0.1185357  )
        18           Si  tau(  18) = (   0.7344293   0.5100495   0.2653389  )
        19           Si  tau(  19) = (  -0.0029657   0.7938776   0.2470891  )
        20           Si  tau(  20) = (   0.2292807   0.7563897   0.0093309  )
        21           Si  tau(  21) = (   0.3575224   0.8907912   0.1236826  )
        22           Si  tau(  22) = (   0.4790824   0.7871198   0.2415324  )
        23           Si  tau(  23) = (   0.7173049   0.7754833   0.0161704  )
        24           Si  tau(  24) = (   0.8472223   0.9020957   0.1300116  )
        25           Si  tau(  25) = (  -0.0035042   0.0168270   0.5075804  )
        26           Si  tau(  26) = (   0.2582122   0.2488982   0.5118231  )
        27           Si  tau(  27) = (   0.1205552   0.1477806   0.6361053  )
        28           Si  tau(  28) = (   0.3500270   0.1471186   0.3786713  )
        29           Si  tau(  29) = (   0.4853005   0.0099517   0.5046854  )
        30           Si  tau(  30) = (   0.6230967   0.1444077   0.6399684  )
        31           Si  tau(  31) = (   0.8488914   0.1177816   0.3761824  )
        32           Si  tau(  32) = (   0.7309527   0.2677051   0.5005216  )
        33           Si  tau(  33) = (   0.1346964   0.3736641   0.3799214  )
        34           Si  tau(  34) = (  -0.0159786   0.5157049   0.5107693  )
        35           Si  tau(  35) = (   0.1254908   0.6349237   0.6498521  )
        36           Si  tau(  36) = (   0.6118257   0.4053960   0.3882450  )
        37           Si  tau(  37) = (   0.3817898   0.6310004   0.3925636  )
        38           Si  tau(  38) = (   0.3695077   0.3903383   0.6349252  )
        39           Si  tau(  39) = (   0.4901589   0.5303677   0.5098112  )
        40           Si  tau(  40) = (   0.6276368   0.6484928   0.6493510  )
        41           Si  tau(  41) = (   0.8737182   0.6437644   0.3862178  )
        42           Si  tau(  42) = (   0.8503634   0.4012897   0.6602322  )
        43           Si  tau(  43) = (   0.1047761   0.9018661   0.3976375  )
        44           Si  tau(  44) = (   0.2519776   0.7596449   0.5303873  )
        45           Si  tau(  45) = (   0.6167603   0.8862920   0.3819080  )
        46           Si  tau(  46) = (   0.3678843   0.9142605   0.6547074  )
        47           Si  tau(  47) = (   0.7512304   0.7687919   0.5049656  )
        48           Si  tau(  48) = (   0.8723950   0.8868563   0.6590243  )
        49           Si  tau(  49) = (   0.0064737   0.2688257   0.7804817  )
        50           Si  tau(  50) = (   0.2326073  -0.0005462   0.7734766  )
        51           Si  tau(  51) = (   0.3667041   0.1169129   0.9101549  )
        52           Si  tau(  52) = (   0.5069728   0.2764025   0.7803375  )
        53           Si  tau(  53) = (   0.7390384  -0.0041286   0.7810505  )
        54           Si  tau(  54) = (   0.8424542   0.1348820   0.9172806  )
        55           Si  tau(  55) = (   0.1090630   0.3857163   0.9168783  )
        56           Si  tau(  56) = (   0.2512647   0.5273355   0.7624202  )
        57           Si  tau(  57) = (   0.6169743   0.4020953   0.9087923  )
        58           Si  tau(  58) = (   0.3542102   0.6622242   0.9112362  )
        59           Si  tau(  59) = (   0.7378976   0.5203462   0.7831324  )
        60           Si  tau(  60) = (   0.8593667   0.6469846   0.8933018  )
        61           Si  tau(  61) = (  -0.0037939   0.7724840   0.7853546  )
        62           Si  tau(  62) = (   0.1252814   0.9047812   0.9204629  )
        63           Si  tau(  63) = (   0.5026595   0.7749335   0.7871878  )
        64           Si  tau(  64) = (   0.6200317   0.8901959   0.8876268  )

     number of k points=     1
                       cart. coord. in units 2pi/alat
        k(    1) = (   0.0000000   0.0000000   0.0000000), wk =   2.0000000

     Dense  grid:    96815 G-vectors     FFT dimensions: (  72,  75,  72)

     Estimated max dynamical RAM per process >     142.16 MB

     Estimated total dynamical RAM >     545.02 MB

     Initial potential from superposition of free atoms

     starting charge     255.9608, renormalised to     256.0000
     Starting wfcs are  256 randomized atomic wfcs

     total cpu time spent up to now is        5.1 secs

     Self-consistent Calculation

     iteration #  1     ecut=    30.00 Ry     beta= 0.50
     Davidson diagonalization with overlap
     ethr =  1.00E-02,  avg # of iterations =  2.0

     Threshold (ethr) on eigenvalues was too large:
     Diagonalizing with lowered threshold

     Davidson diagonalization with overlap
     ethr =  7.24E-04,  avg # of iterations = 13.0

     total cpu time spent up to now is        5.4 secs

     total energy              =    -502.27728537 Ry
     estimated scf accuracy    <       2.20729349 Ry

     iteration #  2     ecut=    30.00 Ry     beta= 0.50
     Davidson diagonalization with overlap
     ethr =  8.62E-04,  avg # of iterations =  8.0

     total cpu time spent up to now is        5.5 secs

     total energy              =    -502.15060653 Ry
     estimated scf accuracy    <       1.45387940 Ry

     iteration #  3     ecut=    30.00 Ry     beta= 0.50
     Davidson diagonalization with overlap
     ethr =  5.68E-04,  avg # of iterations = 12.0

     total cpu time spent up to now is        5.7 secs

     total energy              =    -502.31372751 Ry
     estimated scf accuracy    <       1.27545472 Ry

     iteration #  4     ecut=    30.00 Ry     beta= 0.50
     Davidson diagonalization with overlap
     ethr =  4.98E-04,  avg # of iterations = 11.0

     total cpu time spent up to now is        5.8 secs

     total energy              =    -502.45497797 Ry
     estimated scf accuracy    <       0.12344087 Ry

     iteration #  5     ecut=    30.00 Ry     beta= 0.50
     Davidson diagonalization with overlap
     ethr =  4.82E-05,  avg # of iterations =  8.0

     total cpu time spent up to now is        6.0 secs

     total energy              =    -502.47970966 Ry
     estimated scf accuracy    <       0.04678732 Ry

     iteration #  6     ecut=    30.00 Ry     beta= 0.50
     Davidson diagonalization with overlap
     ethr =  1.83E-05,  avg # of iterations =  6.0

     total cpu time spent up to now is        6.1 secs

     total energy              =    -502.48213102 Ry
     estimated scf accuracy    <       0.01631703 Ry

     iteration #  7     ecut=    30.00 Ry     beta= 0.50
     Davidson diagonalization with overlap
     ethr =  6.37E-06,  avg # of iterations = 15.0

     total cpu time spent up to now is        6.3 secs

     total energy              =    -502.48501932 Ry
     estimated scf accuracy    <       0.00682340 Ry

     iteration #  8     ecut=    30.00 Ry     beta= 0.50
     Davidson diagonalization with overlap
     ethr =  2.67E-06,  avg # of iterations = 14.0

     total cpu time spent up to now is        6.4 secs

     total energy              =    -502.48548546 Ry
     estimated scf accuracy    <       0.00092948 Ry

     iteration #  9     ecut=    30.00 Ry     beta= 0.50
     Davidson diagonalization with overlap
     ethr =  3.63E-07,  avg # of iterations = 12.0

     total cpu time spent up to now is        6.6 secs

     total energy              =    -502.48561013 Ry
     estimated scf accuracy    <       0.00049260 Ry

     iteration # 10     ecut=    30.00 Ry     beta= 0.50
     Davidson diagonalization with overlap
     ethr =  1.92E-07,  avg # of iterations = 14.0

     total cpu time spent up to now is        6.7 secs

     total energy              =    -502.48569202 Ry
     estimated scf accuracy    <       0.00011010 Ry

     iteration # 11     ecut=    30.00 Ry     beta= 0.50
     Davidson diagonalization with overlap
     ethr =  4.30E-08,  avg # of iterations =  9.0

     total cpu time spent up to now is        6.9 secs

     total energy              =    -502.48569737 Ry
     estimated scf accuracy    <       0.00009841 Ry

     iteration # 12     ecut=    30.00 Ry     beta= 0.50
     Davidson diagonalization with overlap
     ethr =  3.84E-08,  avg # of iterations = 10.0

     total cpu time spent up to now is        7.0 secs

     total energy              =    -502.48570402 Ry
     estimated scf accuracy    <       0.00001258 Ry

     iteration # 13     ecut=    30.00 Ry     beta= 0.50
     Davidson diagonalization with overlap
     ethr =  4.92E-09,  avg # of iterations = 16.0

     total cpu time spent up to now is        7.2 secs

     total energy              =    -502.48570738 Ry
     estimated scf accuracy    <       0.00000724 Ry

     iteration # 14     ecut=    30.00 Ry     beta= 0.50
     Davidson diagonalization with overlap
     ethr =  2.83E-09,  avg # of iterations =  9.0

     total cpu time spent up to now is        7.3 secs

     total energy              =    -502.48570765 Ry
     estimated scf accuracy    <       0.00000313 Ry

     iteration # 15     ecut=    30.00 Ry     beta= 0.50
     Davidson diagonalization with overlap
     ethr =  1.22E-09,  avg # of iterations = 16.0

     total cpu time spent up to now is        7.4 secs

     End of self-consistent calculation

          k = 0.0000 0.0000 0.0000 ( 12117 PWs)   bands (ev):

    -6.0757  -5.3863  -5.1704  -5.0828  -4.9039  -4.8420  -4.7006  -4.3885
    -4.3311  -4.1293  -4.0479  -4.0173  -3.9803  -3.9445  -3.8447  -3.7482
    -3.6820  -3.5837  -3.5536  -3.4315  -3.3508  -3.2438  -2.9579  -2.3087
    -2.2333  -2.1024  -1.9851  -1.8277  -1.8134  -1.7535  -1.6934  -1.6446
    -1.5994  -1.5516  -1.4839  -1.4169  -1.3681  -1.3192  -1.2038  -1.0908
    -1.0030  -0.9700  -0.7552  -0.6073  -0.5184   0.1285   0.3288   0.3534
     0.4665   0.5659   0.5981   0.6449   0.6674   0.7673   0.8656   0.8978
     0.9887   1.7743   1.8141   1.8397   1.9298   1.9580   1.9643   2.0644
     2.1056   2.1361   2.1800   2.2004   2.2231   2.2435   2.2648   2.3012
     2.3509   2.4023   2.4256   2.4658   2.5309   2.5470   2.6273   2.6609
     2.7365   2.7677   2.8198   2.9138   2.9887   3.0389   3.0804   3.1058
     3.1847   3.3205   3.4008   3.4841   3.5314   3.8049   3.8770   4.0022
     4.0504   4.1554   4.1813   4.2287   4.3002   4.3189   4.3443   4.4167
     4.4388   4.4408   4.5172   4.6286   4.6589   4.7517   4.7917   4.8100
     4.8569   4.9038   4.9614   5.0277   5.0446   5.1745   5.2301   5.2538
     5.3235   5.3413   5.4126   5.5123   6.1181   6.1283   6.2294   6.2403

     highest occupied level (ev):     6.2403

!    total energy              =    -502.48570790 Ry
     estimated scf accuracy    <       0.00000020 Ry

     The total energy is the sum of the following terms:
     one-electron contribution =     136.09858354 Ry
     hartree contribution      =      42.33600161 Ry
     xc contribution           =    -153.94484247 Ry
     ewald contribution        =    -526.97545058 Ry

     convergence has been achieved in  15 iterations

     Forces acting on atoms (cartesian axes, Ry/au):

     atom    1 type  1   force =    -0.00704808   -0.00769101    0.06498022
     atom    2 type  1   force =    -0.00728601   -0.03664878   -0.05400408
     atom    3 type  1   force =    -0.02677011   -0.21431539   -0.00161263
     atom    4 type  1   force =    -0.02414164   -0.03818862    0.01686000
     atom    5 type  1   force =    -0.12260269    0.08055868   -0.11688366
     atom    6 type  1   force =    -0.01836581   -0.04834583    0.02486094
     atom    7 type  1   force =     0.05494717    0.00462086   -0.08706627
     atom    8 type  1   force =    -0.02701621    0.04736630    0.01098215
     atom    9 type  1   force =     0.01205801   -0.06243737   -0.02674380
     atom   10 type  1   force =    -0.07417845   -0.04229550    0.01745560
     atom   11 type  1   force =    -0.24575205    0.24943092    0.21042024
     atom   12 type  1   force =     0.10970239   -0.05205197    0.03618817
     atom   13 type  1   force =    -0.14761732    0.00040909    0.00169983
     atom   14 type  1   force =    -0.10014852   -0.07725317    0.11995744
     atom   15 type  1   force =     0.00254179    0.16722491   -0.03736760
     atom   16 type  1   force =    -0.05537164   -0.12266418    0.06216217
     atom   17 type  1   force =     0.11990254    0.04916120    0.07476971
     atom   18 type  1   force =     0.06929362    0.09036581   -0.06646910
     atom   19 type  1   force =    -0.02479837   -0.06405607    0.00081926
     atom   20 type  1   force =     0.00865817    0.12296245    0.01738210
     atom   21 type  1   force =    -0.04720399    0.12466240   -0.04428537
     atom   22 type  1   force =     0.05056621   -0.07512368    0.12388421
     atom   23 type  1   force =     0.12178997    0.03349856   -0.10941108
     atom   24 type  1   force =     0.03122127    0.08964816    0.00271880
     atom   25 type  1   force =    -0.01339365   -0.07088591    0.00454207
     atom   26 type  1   force =    -0.08231697    0.12611594    0.10555996
     atom   27 type  1   force =    -0.02112432   -0.05460030    0.04799807
     atom   28 type  1   force =     0.15358738   -0.08662052   -0.01024813
     atom   29 type  1   force =     0.02581385   -0.03147767    0.02400986
     atom   30 type  1   force =    -0.03438381   -0.05777504    0.02518896
     atom   31 type  1   force =     0.03921973    0.04780115    0.03447910
     atom   32 type  1   force =     0.05891346   -0.00281048    0.04488528
     atom   33 type  1   force =    -0.07134273    0.02141382    0.04583832
     atom   34 type  1   force =     0.07390170   -0.03338386    0.05018819
     atom   35 type  1   force =    -0.12193924    0.05144324   -0.04533797
     atom   36 type  1   force =    -0.04669491   -0.07796389    0.02732412
     atom   37 type  1   force =    -0.15941741    0.16878750   -0.15698590
     atom   38 type  1   force =     0.03167840   -0.00763406    0.03635018
     atom   39 type  1   force =     0.12927663   -0.09450538    0.16951164
     atom   40 type  1   force =    -0.04672928    0.01355924   -0.02687387
     atom   41 type  1   force =     0.00512140    0.01038033   -0.07324263
     atom   42 type  1   force =     0.08564584   -0.09334397   -0.08905783
     atom   43 type  1   force =     0.05839652    0.05170857    0.03318325
     atom   44 type  1   force =     0.00551878    0.06784824   -0.04636007
     atom   45 type  1   force =    -0.03244275    0.07530705    0.01079417
     atom   46 type  1   force =     0.00039689    0.02156224   -0.01786409
     atom   47 type  1   force =    -0.01165415    0.02521888    0.06044164
     atom   48 type  1   force =    -0.03056256    0.08617825   -0.04896223
     atom   49 type  1   force =    -0.11629994   -0.03132525   -0.03869625
     atom   50 type  1   force =     0.02118506   -0.04209043    0.00423247
     atom   51 type  1   force =     0.01044214    0.04152202   -0.05716150
     atom   52 type  1   force =    -0.06677591   -0.06322361   -0.04006248
     atom   53 type  1   force =    -0.00785225   -0.02123474   -0.03880857
     atom   54 type  1   force =     0.11339427   -0.04768577   -0.07968056
     atom   55 type  1   force =     0.26008558   -0.16576479   -0.18293675
     atom   56 type  1   force =     0.03311678   -0.07674735    0.10483964
     atom   57 type  1   force =     0.01653484   -0.05046779   -0.01263668
     atom   58 type  1   force =     0.11984124   -0.10376279   -0.08681786
     atom   59 type  1   force =    -0.02830585    0.02799750   -0.01324938
     atom   60 type  1   force =     0.03327802    0.01619341    0.09439137
     atom   61 type  1   force =     0.06146717   -0.00055021   -0.00151104
     atom   62 type  1   force =    -0.04566992    0.03844261   -0.06760347
     atom   63 type  1   force =    -0.13539628   -0.06368472   -0.12474406
     atom   64 type  1   force =     0.08310598    0.16722078    0.09378578

     Total force =     1.112371     Total SCF correction =     0.000696


     Computing stress (Cartesian axis) and pressure

          total   stress  (Ry/bohr**3)                   (kbar)     P=       53.15
   0.00041359  -0.00007265   0.00010714           60.84      -10.69       15.76
  -0.00007265   0.00025562   0.00004149          -10.69       37.60        6.10
   0.00010714   0.00004149   0.00041475           15.76        6.10       61.01

 
     init_run     :      1.17s CPU      5.04s WALL (       1 calls)
     electrons    :      2.18s CPU      2.33s WALL (       1 calls)
     forces       :      0.04s CPU      0.04s WALL (       1 calls)
     stress       :      0.14s CPU      0.14s WALL (       1 calls)

     Called by init_run:
     wfcinit      :      0.55s CPU      4.24s WALL (       1 calls)
                                        4.24s GPU  (       1 calls)
     potinit      :      0.20s CPU      0.29s WALL (       1 calls)
     hinit0       :      0.41s CPU      0.44s WALL (       1 calls)

     Called by electrons:
     c_bands      :      1.55s CPU      1.63s WALL (      16 calls)
     sum_band     :      0.31s CPU      0.34s WALL (      16 calls)
     v_of_rho     :      0.15s CPU      0.26s WALL (      16 calls)
     mix_rho      :      0.14s CPU      0.16s WALL (      16 calls)

     Called by c_bands:
     init_us_2    :      0.06s CPU      0.06s WALL (      33 calls)
     init_us_2:gp :      0.06s CPU      0.06s WALL (      33 calls)
     regterg      :      1.41s CPU      1.48s WALL (      16 calls)

     Called by *egterg:
     rdiaghg      :      0.73s CPU      1.50s WALL (     190 calls)
                                        1.46s GPU  (     190 calls)
     h_psi        :      1.00s CPU      3.98s WALL (     192 calls)
                                        3.98s GPU  (     192 calls)
     g_psi        :      0.00s CPU      0.00s WALL (     175 calls)
                                        0.00s GPU  (     175 calls)

     Called by h_psi:
     h_psi:calbec :      0.51s CPU      3.40s WALL (     192 calls)
                                        3.40s GPU  (     192 calls)
     vloc_psi     :      0.37s CPU      0.45s WALL (     192 calls)
                                        0.45s GPU  (     192 calls)
     add_vuspsi   :      0.09s CPU      0.11s WALL (     192 calls)
                                        0.11s GPU  (     192 calls)

     General routines
     calbec       :      0.52s CPU      3.41s WALL (     197 calls)
     fft          :      0.50s CPU      0.64s WALL (     135 calls)
                                        0.13s GPU  (      86 calls)
     ffts         :      0.05s CPU      0.05s WALL (      16 calls)
     fftw         :      0.41s CPU      0.56s WALL (    1656 calls)
                                        0.50s GPU  (    1656 calls)
 
     Parallel routines
 
     PWSCF        :      3.58s CPU      7.64s WALL

 
   This run was terminated on:  15:46:11   8May2023            

=------------------------------------------------------------------------------=
   JOB DONE.
=------------------------------------------------------------------------------=
