An instance of this daemon is already running
An instance of this daemon is already running
An instance of this daemon is already running

     Program PWSCF v.7.1 starts on  8May2023 at 15:37:17 

     This program is part of the open-source Quantum ESPRESSO suite
     for quantum simulation of materials; please cite
         "P. Giannozzi et al., J. Phys.:Condens. Matter 21 395502 (2009);
         "P. Giannozzi et al., J. Phys.:Condens. Matter 29 465901 (2017);
         "P. Giannozzi et al., J. Chem. Phys. 152 154105 (2020);
          URL http://www.quantum-espresso.org", 
     in publications or presentations arising from this work. More details at
     http://www.quantum-espresso.org/quote

     Parallel version (MPI & OpenMP), running on       4 processor cores
     Number of MPI processes:                 4
     Threads/MPI process:                     1

     MPI processes distributed on     1 nodes
     612629 MiB available memory on the printing compute node when the environment starts
 
     Reading input from pw-si-41.in
Warning: card &CELL ignored
Warning: card / ignored

     Current dimensions of program PWSCF are:
     Max number of different atomic species (ntypx) = 10
     Max number of k-points (npk) =  40000
     Max angular momentum in pseudopotentials (lmaxx) =  4

     IMPORTANT: XC functional enforced from input :
     Exchange-correlation= PBE
                           (   1   4   3   4   0   0   0)
     Any further DFT definition will be discarded
     Please, verify this is what you really want


     gamma-point specific algorithms are used
 
     K-points division:     npool     =       2
     R & G space division:  proc/nbgrp/npool/nimage =       2
     Subspace diagonalization in iterative solution of the eigenvalue problem:
     a serial algorithm will be used

     Message from routine divide_et_impera:
     suboptimal parallelization: some nodes have no k-points
 
     Parallelization info
     --------------------
     sticks:   dense  smooth     PW     G-vecs:    dense   smooth      PW
     Min        2154    2154    565               103062   103062   13977
     Max        2157    2157    570               103063   103063   13978
     Sum        4311    4311   1135               206125   206125   27955
 
     Using Slab Decomposition
 


     bravais-lattice index     =            0
     lattice parameter (alat)  =      21.7317  a.u.
     unit-cell volume          =    9283.8278 (a.u.)^3
     number of atoms/cell      =           64
     number of atomic types    =            1
     number of electrons       =       256.00
     number of Kohn-Sham states=          128
     kinetic-energy cutoff     =      30.0000  Ry
     charge density cutoff     =     120.0000  Ry
     scf convergence threshold =      1.0E-06
     mixing beta               =       0.5000
     number of iterations used =            8  plain     mixing
     Exchange-correlation= PBE
                           (   1   4   3   4   0   0   0)

     GPU acceleration is ACTIVE.
     GPU-aware MPI enabled

     Message from routine print_cuda_info:
     High GPU oversubscription detected. Are you sure this is what you want?

     celldm(1)=  21.731724  celldm(2)=   0.000000  celldm(3)=   0.000000
     celldm(4)=   0.000000  celldm(5)=   0.000000  celldm(6)=   0.000000

     crystal axes: (cart. coord. in units of alat)
               a(1) = (   1.000000   0.000000   0.000000 )  
               a(2) = (   0.000000   0.956290   0.000000 )  
               a(3) = (   0.000000   0.000000   0.945922 )  

     reciprocal axes: (cart. coord. in units 2 pi/alat)
               b(1) = (  1.000000  0.000000  0.000000 )  
               b(2) = (  0.000000  1.045708  0.000000 )  
               b(3) = (  0.000000  0.000000  1.057170 )  


     PseudoPot. # 1 for Si read from file:
     /home/ppiaggi/pseudos/Si_ONCV_PBE_sr.upf
     MD5 check sum: 8553c464762ac42b85b1eed164b4d029
     Pseudo is Norm-conserving, Zval =  4.0
     Generated using ONCVPSP code by D. R. Hamann
     Using radial grid of 1510 points,  4 beta functions with: 
                l(1) =   0
                l(2) =   0
                l(3) =   1
                l(4) =   1

     atomic species   valence    mass     pseudopotential
        Si             4.00    28.08500     Si( 1.00)

     No symmetry found



   Cartesian axes

     site n.     atom                  positions (alat units)
         1           Si  tau(   1) = (   0.0001894   0.0001685  -0.0091736  )
         2           Si  tau(   2) = (   0.0054057   0.2528479   0.2391819  )
         3           Si  tau(   3) = (   0.2516068   0.0137757   0.2515356  )
         4           Si  tau(   4) = (   0.2663940   0.2415034  -0.0114417  )
         5           Si  tau(   5) = (   0.1305474   0.1269945   0.1188733  )
         6           Si  tau(   6) = (   0.4838919  -0.0099794  -0.0166644  )
         7           Si  tau(   7) = (   0.4819286   0.2422395   0.2359456  )
         8           Si  tau(   8) = (   0.6310500   0.1033937   0.1183262  )
         9           Si  tau(   9) = (   0.7537316   0.0059607   0.2634291  )
        10           Si  tau(  10) = (   0.7385165   0.2366261   0.0030077  )
        11           Si  tau(  11) = (   0.0145725   0.4602076   0.0045483  )
        12           Si  tau(  12) = (   0.2385229   0.4642082   0.2509334  )
        13           Si  tau(  13) = (   0.1251604   0.5999418   0.1227572  )
        14           Si  tau(  14) = (   0.3590522   0.3617839   0.1195791  )
        15           Si  tau(  15) = (   0.4944061   0.4803778  -0.0131352  )
        16           Si  tau(  16) = (   0.6189755   0.5900229   0.1310763  )
        17           Si  tau(  17) = (   0.8782306   0.3513213   0.1254213  )
        18           Si  tau(  18) = (   0.7380606   0.4854478   0.2551524  )
        19           Si  tau(  19) = (   0.0144463   0.7254171   0.2496434  )
        20           Si  tau(  20) = (   0.2328977   0.7303920   0.0098231  )
        21           Si  tau(  21) = (   0.3859215   0.8344215   0.1083975  )
        22           Si  tau(  22) = (   0.5051100   0.7234258   0.2491838  )
        23           Si  tau(  23) = (   0.7474656   0.7191411  -0.0177053  )
        24           Si  tau(  24) = (   0.8669871   0.8486977   0.1182854  )
        25           Si  tau(  25) = (   0.0010490   0.0051354   0.4911924  )
        26           Si  tau(  26) = (   0.2439088   0.2283464   0.4807596  )
        27           Si  tau(  27) = (   0.1334163   0.1025238   0.6129055  )
        28           Si  tau(  28) = (   0.3807450   0.1249286   0.3677846  )
        29           Si  tau(  29) = (   0.5079813  -0.0081067   0.4829315  )
        30           Si  tau(  30) = (   0.6059594   0.1040076   0.6048033  )
        31           Si  tau(  31) = (   0.8774511   0.1338389   0.3721059  )
        32           Si  tau(  32) = (   0.7358038   0.2265478   0.4951299  )
        33           Si  tau(  33) = (   0.1339242   0.3411143   0.3596245  )
        34           Si  tau(  34) = (  -0.0152681   0.4771504   0.4866875  )
        35           Si  tau(  35) = (   0.1363743   0.5947676   0.6331772  )
        36           Si  tau(  36) = (   0.6344225   0.3410436   0.3818009  )
        37           Si  tau(  37) = (   0.3850121   0.6003834   0.3890489  )
        38           Si  tau(  38) = (   0.3694007   0.3611484   0.6108312  )
        39           Si  tau(  39) = (   0.4947394   0.4800768   0.5098847  )
        40           Si  tau(  40) = (   0.6215717   0.6092813   0.6194354  )
        41           Si  tau(  41) = (   0.8694671   0.6096714   0.3567967  )
        42           Si  tau(  42) = (   0.8759232   0.3511915   0.6361497  )
        43           Si  tau(  43) = (   0.1156346   0.8501266   0.3838148  )
        44           Si  tau(  44) = (   0.2448925   0.6988738   0.5034538  )
        45           Si  tau(  45) = (   0.6197228   0.8209125   0.3576318  )
        46           Si  tau(  46) = (   0.3675067   0.8195685   0.6145528  )
        47           Si  tau(  47) = (   0.7366394   0.7127933   0.5134110  )
        48           Si  tau(  48) = (   0.8910745   0.8448286   0.6235190  )
        49           Si  tau(  49) = (   0.0062962   0.2360708   0.7298620  )
        50           Si  tau(  50) = (   0.2652007  -0.0018153   0.7568283  )
        51           Si  tau(  51) = (   0.3885014   0.1131171   0.8776626  )
        52           Si  tau(  52) = (   0.5008548   0.2507617   0.7452729  )
        53           Si  tau(  53) = (   0.7665366  -0.0079582   0.7594187  )
        54           Si  tau(  54) = (   0.8755450   0.1201374   0.8822362  )
        55           Si  tau(  55) = (   0.1323069   0.3615636   0.8721207  )
        56           Si  tau(  56) = (   0.2492521   0.4754215   0.7499327  )
        57           Si  tau(  57) = (   0.6369642   0.3709245   0.8649491  )
        58           Si  tau(  58) = (   0.3714774   0.5917647   0.8794042  )
        59           Si  tau(  59) = (   0.7548287   0.4639990   0.7256369  )
        60           Si  tau(  60) = (   0.8595931   0.5853081   0.8749804  )
        61           Si  tau(  61) = (  -0.0149980   0.7189526   0.7537197  )
        62           Si  tau(  62) = (   0.1074546   0.8395792   0.8672772  )
        63           Si  tau(  63) = (   0.5123713   0.7068551   0.7293875  )
        64           Si  tau(  64) = (   0.6180240   0.8177624   0.8738171  )

     number of k points=     1
                       cart. coord. in units 2pi/alat
        k(    1) = (   0.0000000   0.0000000   0.0000000), wk =   2.0000000

     Dense  grid:   103063 G-vectors     FFT dimensions: (  75,  75,  72)

     Estimated max dynamical RAM per process >     150.79 MB

     Estimated total dynamical RAM >     577.98 MB

     Initial potential from superposition of free atoms

     starting charge     255.9608, renormalised to     256.0000
     Starting wfcs are  256 randomized atomic wfcs

     total cpu time spent up to now is        5.2 secs

     Self-consistent Calculation

     iteration #  1     ecut=    30.00 Ry     beta= 0.50
     Davidson diagonalization with overlap
     ethr =  1.00E-02,  avg # of iterations =  2.0

     Threshold (ethr) on eigenvalues was too large:
     Diagonalizing with lowered threshold

     Davidson diagonalization with overlap
     ethr =  6.39E-04,  avg # of iterations =  4.0

     total cpu time spent up to now is        5.4 secs

     total energy              =    -502.05626842 Ry
     estimated scf accuracy    <       1.90226321 Ry

     iteration #  2     ecut=    30.00 Ry     beta= 0.50
     Davidson diagonalization with overlap
     ethr =  7.43E-04,  avg # of iterations =  6.0

     total cpu time spent up to now is        5.6 secs

     total energy              =    -502.05518418 Ry
     estimated scf accuracy    <       0.61306490 Ry

     iteration #  3     ecut=    30.00 Ry     beta= 0.50
     Davidson diagonalization with overlap
     ethr =  2.39E-04,  avg # of iterations =  6.0

     total cpu time spent up to now is        5.7 secs

     total energy              =    -502.07305202 Ry
     estimated scf accuracy    <       0.71020127 Ry

     iteration #  4     ecut=    30.00 Ry     beta= 0.50
     Davidson diagonalization with overlap
     ethr =  2.39E-04,  avg # of iterations =  5.0

     total cpu time spent up to now is        5.8 secs

     total energy              =    -502.18182951 Ry
     estimated scf accuracy    <       0.04011356 Ry

     iteration #  5     ecut=    30.00 Ry     beta= 0.50
     Davidson diagonalization with overlap
     ethr =  1.57E-05,  avg # of iterations =  9.0

     total cpu time spent up to now is        5.9 secs

     total energy              =    -502.18950755 Ry
     estimated scf accuracy    <       0.04220531 Ry

     iteration #  6     ecut=    30.00 Ry     beta= 0.50
     Davidson diagonalization with overlap
     ethr =  1.57E-05,  avg # of iterations =  7.0

     total cpu time spent up to now is        6.1 secs

     total energy              =    -502.19152736 Ry
     estimated scf accuracy    <       0.00902147 Ry

     iteration #  7     ecut=    30.00 Ry     beta= 0.50
     Davidson diagonalization with overlap
     ethr =  3.52E-06,  avg # of iterations =  6.0

     total cpu time spent up to now is        6.2 secs

     total energy              =    -502.19376115 Ry
     estimated scf accuracy    <       0.00191757 Ry

     iteration #  8     ecut=    30.00 Ry     beta= 0.50
     Davidson diagonalization with overlap
     ethr =  7.49E-07,  avg # of iterations =  7.0

     total cpu time spent up to now is        6.3 secs

     total energy              =    -502.19367814 Ry
     estimated scf accuracy    <       0.00317731 Ry

     iteration #  9     ecut=    30.00 Ry     beta= 0.50
     Davidson diagonalization with overlap
     ethr =  7.49E-07,  avg # of iterations =  3.0

     total cpu time spent up to now is        6.5 secs

     total energy              =    -502.19352422 Ry
     estimated scf accuracy    <       0.00105806 Ry

     iteration # 10     ecut=    30.00 Ry     beta= 0.50
     Davidson diagonalization with overlap
     ethr =  4.13E-07,  avg # of iterations =  7.0

     total cpu time spent up to now is        6.6 secs

     total energy              =    -502.19379444 Ry
     estimated scf accuracy    <       0.00019643 Ry

     iteration # 11     ecut=    30.00 Ry     beta= 0.50
     Davidson diagonalization with overlap
     ethr =  7.67E-08,  avg # of iterations =  5.0

     total cpu time spent up to now is        6.7 secs

     total energy              =    -502.19378395 Ry
     estimated scf accuracy    <       0.00011166 Ry

     iteration # 12     ecut=    30.00 Ry     beta= 0.50
     Davidson diagonalization with overlap
     ethr =  4.36E-08,  avg # of iterations =  5.0

     total cpu time spent up to now is        6.8 secs

     total energy              =    -502.19379218 Ry
     estimated scf accuracy    <       0.00001268 Ry

     iteration # 13     ecut=    30.00 Ry     beta= 0.50
     Davidson diagonalization with overlap
     ethr =  4.95E-09,  avg # of iterations =  8.0

     total cpu time spent up to now is        7.0 secs

     total energy              =    -502.19379756 Ry
     estimated scf accuracy    <       0.00000660 Ry

     iteration # 14     ecut=    30.00 Ry     beta= 0.50
     Davidson diagonalization with overlap
     ethr =  2.58E-09,  avg # of iterations =  2.0

     total cpu time spent up to now is        7.1 secs

     total energy              =    -502.19379721 Ry
     estimated scf accuracy    <       0.00000357 Ry

     iteration # 15     ecut=    30.00 Ry     beta= 0.50
     Davidson diagonalization with overlap
     ethr =  1.40E-09,  avg # of iterations =  6.0

     total cpu time spent up to now is        7.2 secs

     End of self-consistent calculation

          k = 0.0000 0.0000 0.0000 ( 12876 PWs)   bands (ev):

    -6.4117  -5.6211  -5.5563  -5.5196  -5.2926  -5.2225  -4.9828  -4.8365
    -4.6778  -4.5798  -4.4710  -4.4014  -4.3127  -4.2531  -4.1399  -4.0335
    -3.8931  -3.8289  -3.7969  -3.7437  -3.6575  -3.6124  -3.4567  -3.0339
    -2.8663  -2.5714  -2.3758  -2.2405  -2.2245  -2.1535  -2.1013  -2.0663
    -2.0566  -1.9202  -1.8320  -1.7905  -1.7411  -1.6987  -1.5979  -1.5607
    -1.4849  -1.2918  -1.2397  -1.1429  -0.7937  -0.3950  -0.2521  -0.1646
    -0.1128  -0.0468   0.0059   0.0378   0.1606   0.2040   0.2535   0.2882
     0.6691   1.1455   1.1910   1.3344   1.3850   1.5051   1.5887   1.7021
     1.7609   1.7787   1.8251   1.8345   1.8457   1.8684   1.9041   1.9472
     2.0108   2.0416   2.0645   2.1282   2.1672   2.2072   2.2363   2.2469
     2.2911   2.3201   2.3604   2.3828   2.4161   2.4733   2.5090   2.5444
     2.6233   2.6842   2.9066   2.9470   3.1202   3.1655   3.3286   3.4212
     3.5409   3.6538   3.7034   3.7434   3.7908   3.8486   3.9014   3.9635
     4.0218   4.0462   4.1094   4.1551   4.2335   4.3207   4.3492   4.3896
     4.4232   4.4630   4.5168   4.5604   4.6305   4.6861   4.7485   4.8157
     4.8605   4.8931   4.9971   5.0501   5.2126   5.2747   5.4600   5.6389

     highest occupied level (ev):     5.6389

!    total energy              =    -502.19379725 Ry
     estimated scf accuracy    <       0.00000036 Ry

     The total energy is the sum of the following terms:
     one-electron contribution =     121.56454287 Ry
     hartree contribution      =      43.96403678 Ry
     xc contribution           =    -151.82396016 Ry
     ewald contribution        =    -515.89841674 Ry

     convergence has been achieved in  15 iterations

     Forces acting on atoms (cartesian axes, Ry/au):

     atom    1 type  1   force =    -0.04874528    0.08288763    0.20934689
     atom    2 type  1   force =    -0.01815158   -0.07629341    0.00452932
     atom    3 type  1   force =    -0.00304845   -0.03745843   -0.02380226
     atom    4 type  1   force =    -0.06147381   -0.00590580    0.11038196
     atom    5 type  1   force =     0.00521253   -0.00907785    0.00219567
     atom    6 type  1   force =     0.23818516   -0.20689611    0.16859221
     atom    7 type  1   force =     0.07472293   -0.01563228    0.00231942
     atom    8 type  1   force =    -0.05071798    0.02770294    0.03370983
     atom    9 type  1   force =    -0.01069655   -0.02910977   -0.05234394
     atom   10 type  1   force =     0.03720666   -0.01898017    0.11023483
     atom   11 type  1   force =    -0.18727605    0.15960084    0.14964899
     atom   12 type  1   force =     0.05370933    0.08723432   -0.02803137
     atom   13 type  1   force =    -0.00416745   -0.03246552    0.05494293
     atom   14 type  1   force =     0.04132785    0.01124315    0.01124709
     atom   15 type  1   force =     0.10353133   -0.09111373    0.18048879
     atom   16 type  1   force =    -0.01755790    0.02145868   -0.03069797
     atom   17 type  1   force =    -0.04711936    0.04781705   -0.00661220
     atom   18 type  1   force =     0.03890498   -0.05469435   -0.00574759
     atom   19 type  1   force =    -0.05689697    0.00815236   -0.02626723
     atom   20 type  1   force =     0.08712634   -0.06285614    0.06371389
     atom   21 type  1   force =    -0.06702203   -0.00214641    0.09396417
     atom   22 type  1   force =    -0.08661578   -0.08821117   -0.07366090
     atom   23 type  1   force =     0.09745496   -0.05478518    0.20617381
     atom   24 type  1   force =     0.02705137   -0.02764530    0.02606709
     atom   25 type  1   force =    -0.04715153    0.02784573    0.02785800
     atom   26 type  1   force =     0.03578990   -0.00888541    0.05332910
     atom   27 type  1   force =     0.01244816    0.04253616    0.02856416
     atom   28 type  1   force =     0.00067849   -0.02334873    0.01336424
     atom   29 type  1   force =    -0.07323859   -0.03943871   -0.03406632
     atom   30 type  1   force =     0.06580645    0.05192077    0.10268280
     atom   31 type  1   force =     0.01446748   -0.01092188    0.00501682
     atom   32 type  1   force =     0.07208617   -0.02802363    0.05622158
     atom   33 type  1   force =    -0.06710704    0.04849688    0.06088459
     atom   34 type  1   force =     0.04181027   -0.01145582    0.01816876
     atom   35 type  1   force =    -0.09464467   -0.00962310    0.00062744
     atom   36 type  1   force =    -0.09374579    0.09285202   -0.06386270
     atom   37 type  1   force =    -0.02911822   -0.01187150   -0.06060091
     atom   38 type  1   force =    -0.02770931   -0.02735521    0.04742183
     atom   39 type  1   force =     0.05297426   -0.01500235   -0.04057380
     atom   40 type  1   force =     0.03924441   -0.16121763   -0.01275357
     atom   41 type  1   force =     0.00147297   -0.00889519    0.06294868
     atom   42 type  1   force =     0.02396243   -0.02556127   -0.12817846
     atom   43 type  1   force =     0.08312480   -0.06740256   -0.05485171
     atom   44 type  1   force =    -0.00696767    0.06263045   -0.03727798
     atom   45 type  1   force =     0.09307424    0.09052528    0.11124436
     atom   46 type  1   force =     0.04305180    0.04150979    0.02392605
     atom   47 type  1   force =     0.09957184    0.07453874   -0.11742140
     atom   48 type  1   force =    -0.05955519   -0.02115400    0.00272402
     atom   49 type  1   force =     0.02459597   -0.02692632    0.05836678
     atom   50 type  1   force =    -0.03978575   -0.03428822   -0.05102988
     atom   51 type  1   force =    -0.14048115    0.23529670   -0.21587928
     atom   52 type  1   force =    -0.00075145   -0.04300869   -0.03879548
     atom   53 type  1   force =    -0.04042080    0.00238321   -0.04412699
     atom   54 type  1   force =    -0.03080050    0.06653683   -0.15334334
     atom   55 type  1   force =     0.08696883   -0.11503391   -0.19833825
     atom   56 type  1   force =     0.02789155    0.00009992   -0.02540505
     atom   57 type  1   force =    -0.02355005   -0.00229587   -0.11447734
     atom   58 type  1   force =    -0.13392276    0.14583324   -0.15015758
     atom   59 type  1   force =    -0.05988515    0.09966547    0.06826697
     atom   60 type  1   force =     0.09805132   -0.09095405   -0.10763616
     atom   61 type  1   force =     0.03497295   -0.03705973   -0.03209438
     atom   62 type  1   force =     0.11777703   -0.08919017   -0.17445537
     atom   63 type  1   force =    -0.11851026    0.07438077    0.09995148
     atom   64 type  1   force =    -0.12741974    0.11903666   -0.16663512

     Total force =     1.114214     Total SCF correction =     0.001096


     Computing stress (Cartesian axis) and pressure

          total   stress  (Ry/bohr**3)                   (kbar)     P=        1.84
   0.00000325  -0.00039245   0.00001482            0.48      -57.73        2.18
  -0.00039245   0.00019253  -0.00003404          -57.73       28.32       -5.01
   0.00001482  -0.00003404  -0.00015825            2.18       -5.01      -23.28

 
     init_run     :      1.08s CPU      5.11s WALL (       1 calls)
     electrons    :      1.85s CPU      2.00s WALL (       1 calls)
     forces       :      0.04s CPU      0.05s WALL (       1 calls)
     stress       :      0.15s CPU      0.15s WALL (       1 calls)

     Called by init_run:
     wfcinit      :      0.56s CPU      4.40s WALL (       1 calls)
                                        4.40s GPU  (       1 calls)
     potinit      :      0.21s CPU      0.31s WALL (       1 calls)
     hinit0       :      0.28s CPU      0.31s WALL (       1 calls)

     Called by electrons:
     c_bands      :      1.16s CPU      1.22s WALL (      16 calls)
     sum_band     :      0.35s CPU      0.39s WALL (      16 calls)
     v_of_rho     :      0.16s CPU      0.27s WALL (      16 calls)
     mix_rho      :      0.16s CPU      0.17s WALL (      16 calls)

     Called by c_bands:
     init_us_2    :      0.06s CPU      0.06s WALL (      33 calls)
     init_us_2:gp :      0.06s CPU      0.06s WALL (      33 calls)
     regterg      :      1.01s CPU      1.07s WALL (      16 calls)

     Called by *egterg:
     rdiaghg      :      0.40s CPU      1.16s WALL (     103 calls)
                                        1.14s GPU  (     103 calls)
     h_psi        :      1.01s CPU      4.13s WALL (     105 calls)
                                        4.13s GPU  (     105 calls)
     g_psi        :      0.00s CPU      0.00s WALL (      88 calls)
                                        0.00s GPU  (      88 calls)

     Called by h_psi:
     h_psi:calbec :      0.50s CPU      3.54s WALL (     105 calls)
                                        3.54s GPU  (     105 calls)
     vloc_psi     :      0.45s CPU      0.52s WALL (     105 calls)
                                        0.52s GPU  (     105 calls)
     add_vuspsi   :      0.04s CPU      0.06s WALL (     105 calls)
                                        0.06s GPU  (     105 calls)

     General routines
     calbec       :      0.50s CPU      3.55s WALL (     110 calls)
     fft          :      0.39s CPU      0.53s WALL (     135 calls)
                                        0.13s GPU  (      86 calls)
     ffts         :      0.05s CPU      0.06s WALL (      16 calls)
     fftw         :      0.48s CPU      0.66s WALL (    1484 calls)
                                        0.59s GPU  (    1484 calls)
 
     Parallel routines
 
     PWSCF        :      3.16s CPU      7.39s WALL

 
   This run was terminated on:  15:37:25   8May2023            

=------------------------------------------------------------------------------=
   JOB DONE.
=------------------------------------------------------------------------------=
