
     Program PWSCF v.7.0 starts on  8Jul2023 at 21:36:52 

     This program is part of the open-source Quantum ESPRESSO suite
     for quantum simulation of materials; please cite
         "P. Giannozzi et al., J. Phys.:Condens. Matter 21 395502 (2009);
         "P. Giannozzi et al., J. Phys.:Condens. Matter 29 465901 (2017);
         "P. Giannozzi et al., J. Chem. Phys. 152 154105 (2020);
          URL http://www.quantum-espresso.org", 
     in publications or presentations arising from this work. More details at
     http://www.quantum-espresso.org/quote

     Parallel version (MPI & OpenMP), running on      36 processor cores
     Number of MPI processes:                 6
     Threads/MPI process:                     6

     MPI processes distributed on     1 nodes
     R & G space division:  proc/nbgrp/npool/nimage =       6
     107956 MiB available memory on the printing compute node when the environment starts
 
     Reading input from pw-si-10.in
Warning: card &CELL ignored
Warning: card / ignored

     Current dimensions of program PWSCF are:
     Max number of different atomic species (ntypx) = 10
     Max number of k-points (npk) =  40000
     Max angular momentum in pseudopotentials (lmaxx) =  4

     IMPORTANT: XC functional enforced from input :
     Exchange-correlation= PBE
                           (   1   4   3   4   0   0   0)
     Any further DFT definition will be discarded
     Please, verify this is what you really want

     Found identity + (  0.0000  0.5000 -0.5000) symmetry
     This is a supercell, fractional translations are disabled
     Message from routine setup:
     using ibrav=0 with symmetry is DISCOURAGED, use correct ibrav instead

     Subspace diagonalization in iterative solution of the eigenvalue problem:
     a serial algorithm will be used

 
     Parallelization info
     --------------------
     sticks:   dense  smooth     PW     G-vecs:    dense   smooth      PW
     Min          56      56     16                  782      782     132
     Max          57      57     17                  783      783     135
     Sum         341     341    101                 4697     4697     799
 
     Using Slab Decomposition
 


     bravais-lattice index     =            0
     lattice parameter (alat)  =      10.2871  a.u.
     unit-cell volume          =    1088.6285 (a.u.)^3
     number of atoms/cell      =            8
     number of atomic types    =            1
     number of electrons       =        32.00
     number of Kohn-Sham states=           16
     kinetic-energy cutoff     =      10.0000  Ry
     charge density cutoff     =      40.0000  Ry
     scf convergence threshold =      1.0E-06
     mixing beta               =       0.5000
     number of iterations used =            8  plain     mixing
     Exchange-correlation= PBE
                           (   1   4   3   4   0   0   0)

     GPU acceleration is ACTIVE.

     Message from routine print_cuda_info:
     High GPU oversubscription detected. Are you sure this is what you want?

     celldm(1)=  10.287107  celldm(2)=   0.000000  celldm(3)=   0.000000
     celldm(4)=   0.000000  celldm(5)=   0.000000  celldm(6)=   0.000000

     crystal axes: (cart. coord. in units of alat)
               a(1) = (   1.000000   0.000000   0.000000 )  
               a(2) = (   0.000000   1.000000   0.000000 )  
               a(3) = (   0.000000   0.000000   1.000000 )  

     reciprocal axes: (cart. coord. in units 2 pi/alat)
               b(1) = (  1.000000  0.000000  0.000000 )  
               b(2) = (  0.000000  1.000000  0.000000 )  
               b(3) = (  0.000000  0.000000  1.000000 )  


     PseudoPot. # 1 for Si read from file:
     ./Si_ONCV_PBE-1.0.upf
     MD5 check sum: 2de5a83d12544a9ea852f39b88f19b1f
     Pseudo is Norm-conserving, Zval =  4.0
     Generated using ONCVPSP code by D. R. Hamann
     Using radial grid of  602 points,  4 beta functions with: 
                l(1) =   0
                l(2) =   0
                l(3) =   1
                l(4) =   1

     atomic species   valence    mass     pseudopotential
        Si             4.00    28.08500     Si( 1.00)

     24 Sym. Ops. (no inversion) found



   Cartesian axes

     site n.     atom                  positions (alat units)
         1           Si  tau(   1) = (   0.7500000   0.7500000   0.2500000  )
         2           Si  tau(   2) = (   0.0000000   0.5000000   0.5000000  )
         3           Si  tau(   3) = (   0.7500000   0.2500000   0.7500000  )
         4           Si  tau(   4) = (   0.0000000   0.0000000   0.0000000  )
         5           Si  tau(   5) = (   0.2500000   0.7500000   0.7500000  )
         6           Si  tau(   6) = (   0.5000000   0.5000000   0.0000000  )
         7           Si  tau(   7) = (   0.2500000   0.2500000   0.2500000  )
         8           Si  tau(   8) = (   0.5000000   0.0000000   0.5000000  )

     number of k points=     4
                       cart. coord. in units 2pi/alat
        k(    1) = (   0.1250000   0.1250000   0.1250000), wk =   0.2500000
        k(    2) = (   0.1250000   0.1250000   0.3750000), wk =   0.7500000
        k(    3) = (   0.1250000   0.3750000   0.3750000), wk =   0.7500000
        k(    4) = (   0.3750000   0.3750000   0.3750000), wk =   0.2500000

     Dense  grid:     4697 G-vectors     FFT dimensions: (  24,  24,  24)

     Estimated max dynamical RAM per process >       1.00 MB

     Estimated total dynamical RAM >       5.98 MB

     Initial potential from superposition of free atoms

     starting charge      31.6302, renormalised to      32.0000
     Starting wfcs are random

     total cpu time spent up to now is        1.5 secs

     Self-consistent Calculation

     iteration #  1     ecut=    10.00 Ry     beta= 0.50
     Davidson diagonalization with overlap
     ethr =  1.00E-02,  avg # of iterations = 10.0

     Threshold (ethr) on eigenvalues was too large:
     Diagonalizing with lowered threshold

     Davidson diagonalization with overlap
     ethr =  5.80E-04,  avg # of iterations =  3.5

     total cpu time spent up to now is        3.1 secs

     total energy              =     -62.80259378 Ry
     estimated scf accuracy    <       0.19754624 Ry

     iteration #  2     ecut=    10.00 Ry     beta= 0.50
     Davidson diagonalization with overlap
     ethr =  6.17E-04,  avg # of iterations =  1.0

     total cpu time spent up to now is        3.4 secs

     total energy              =     -62.80184163 Ry
     estimated scf accuracy    <       0.03847378 Ry

     iteration #  3     ecut=    10.00 Ry     beta= 0.50
     Davidson diagonalization with overlap
     ethr =  1.20E-04,  avg # of iterations =  1.3

     total cpu time spent up to now is        3.8 secs

     total energy              =     -62.80403348 Ry
     estimated scf accuracy    <       0.00046768 Ry

     iteration #  4     ecut=    10.00 Ry     beta= 0.50
     Davidson diagonalization with overlap
     ethr =  1.46E-06,  avg # of iterations =  5.8

     total cpu time spent up to now is        4.6 secs

     total energy              =     -62.80463230 Ry
     estimated scf accuracy    <       0.00000501 Ry

     iteration #  5     ecut=    10.00 Ry     beta= 0.50
     Davidson diagonalization with overlap
     ethr =  1.56E-08,  avg # of iterations =  5.0

     total cpu time spent up to now is        5.3 secs

     End of self-consistent calculation

          k = 0.1250 0.1250 0.1250 (   585 PWs)   bands (ev):

    -5.4414  -2.3299  -2.3299  -2.3298  -0.4912  -0.4912  -0.4912   2.7394
     2.7394   2.7395   3.4753   3.4754   3.4754   4.6222   5.8879   5.8879

          k = 0.1250 0.1250 0.3750 (   579 PWs)   bands (ev):

    -4.8751  -3.8165  -2.1440  -2.1440  -0.6083  -0.6083   1.3649   2.1267
     2.1267   3.0362   3.2128   3.2128   3.5163   3.9549   4.8531   4.9503

          k = 0.1250 0.3750 0.3750 (   589 PWs)   bands (ev):

    -4.3792  -3.4048  -3.4048  -2.6939  -0.3470   0.4466   0.4466   1.6348
     2.2081   2.8798   2.8798   3.8835   4.2409   4.2409   4.2736   5.3892

          k = 0.3750 0.3750 0.3750 (   591 PWs)   bands (ev):

    -3.9285  -3.2101  -3.2101  -3.2101  -0.4808  -0.4808  -0.4808   0.3059
     3.9266   3.9266   3.9266   4.5974   4.5974   4.5974   5.0745   5.0745

     highest occupied level (ev):     5.8879

!    total energy              =     -62.80463773 Ry
     estimated scf accuracy    <       0.00000021 Ry

     The total energy is the sum of the following terms:
     one-electron contribution =      19.06602072 Ry
     hartree contribution      =       4.33680755 Ry
     xc contribution           =     -19.18082986 Ry
     ewald contribution        =     -67.02663613 Ry

     convergence has been achieved in   5 iterations

     Forces acting on atoms (cartesian axes, Ry/au):

     atom    1 type  1   force =     0.00000146    0.00000146   -0.00000146
     atom    2 type  1   force =     0.00000000    0.00000000    0.00000000
     atom    3 type  1   force =     0.00000146   -0.00000146    0.00000146
     atom    4 type  1   force =     0.00000000    0.00000000    0.00000000
     atom    5 type  1   force =    -0.00000146    0.00000146    0.00000146
     atom    6 type  1   force =     0.00000000    0.00000000    0.00000000
     atom    7 type  1   force =    -0.00000146   -0.00000146   -0.00000146
     atom    8 type  1   force =     0.00000000    0.00000000    0.00000000

     Total force =     0.000005     Total SCF correction =     0.000015
     SCF correction compared to forces is large: reduce conv_thr to get better values


     Computing stress (Cartesian axis) and pressure

          total   stress  (Ry/bohr**3)                   (kbar)     P=      -47.56
  -0.00032329   0.00000000   0.00000000          -47.56        0.00        0.00
   0.00000000  -0.00032329   0.00000000            0.00      -47.56        0.00
   0.00000000   0.00000000  -0.00032329            0.00        0.00      -47.56

 
     init_run     :      0.96s CPU      1.45s WALL (       1 calls)
     electrons    :      3.60s CPU      3.80s WALL (       1 calls)
     forces       :      0.09s CPU      0.12s WALL (       1 calls)
     stress       :      0.33s CPU      0.37s WALL (       1 calls)

     Called by init_run:
     wfcinit      :      0.70s CPU      1.00s WALL (       1 calls)
                                        1.00s GPU  (       1 calls)
     potinit      :      0.17s CPU      0.32s WALL (       1 calls)
     hinit0       :      0.06s CPU      0.09s WALL (       1 calls)

     Called by electrons:
     c_bands      :      3.01s CPU      3.08s WALL (       6 calls)
     sum_band     :      0.16s CPU      0.16s WALL (       6 calls)
     v_of_rho     :      0.55s CPU      0.80s WALL (       6 calls)
     mix_rho      :      0.00s CPU      0.00s WALL (       6 calls)

     Called by c_bands:
     init_us_2    :      0.03s CPU      0.03s WALL (      60 calls)
     init_us_2:gp :      0.02s CPU      0.02s WALL (      60 calls)
     cegterg      :      2.75s CPU      2.77s WALL (      24 calls)

     Called by *egterg:
     cdiaghg      :      0.24s CPU      0.29s WALL (     126 calls)
                                        0.25s GPU  (     126 calls)
     h_psi        :      1.92s CPU      2.26s WALL (     134 calls)
                                        2.18s GPU  (     134 calls)
     g_psi        :      0.00s CPU      0.06s WALL (     106 calls)
                                        0.00s GPU  (     106 calls)

     Called by h_psi:
     h_psi:calbec :      0.77s CPU      1.10s WALL (     134 calls)
                                        1.02s GPU  (     134 calls)
     vloc_psi     :      0.69s CPU      0.80s WALL (     134 calls)
                                        0.72s GPU  (     134 calls)
     add_vuspsi   :      0.11s CPU      0.21s WALL (     134 calls)
                                        0.11s GPU  (     134 calls)

     General routines
     calbec       :      0.73s CPU      0.98s WALL (     154 calls)
     fft          :      0.12s CPU      0.23s WALL (      68 calls)
                                        0.19s GPU  (      46 calls)
     ffts         :      0.01s CPU      0.01s WALL (       6 calls)
     fftw         :      0.54s CPU      0.77s WALL (     292 calls)
                                        0.51s GPU  (     292 calls)
 
     Parallel routines
 
     PWSCF        :      5.06s CPU      5.83s WALL

 
   This run was terminated on:  21:36:57   8Jul2023            

=------------------------------------------------------------------------------=
   JOB DONE.
=------------------------------------------------------------------------------=
