An instance of this daemon is already running

     Program PWSCF v.7.1 starts on 10May2023 at 10:55: 8 

     This program is part of the open-source Quantum ESPRESSO suite
     for quantum simulation of materials; please cite
         "P. Giannozzi et al., J. Phys.:Condens. Matter 21 395502 (2009);
         "P. Giannozzi et al., J. Phys.:Condens. Matter 29 465901 (2017);
         "P. Giannozzi et al., J. Chem. Phys. 152 154105 (2020);
          URL http://www.quantum-espresso.org", 
     in publications or presentations arising from this work. More details at
     http://www.quantum-espresso.org/quote

     Parallel version (MPI & OpenMP), running on       4 processor cores
     Number of MPI processes:                 4
     Threads/MPI process:                     1

     MPI processes distributed on     1 nodes
     753553 MiB available memory on the printing compute node when the environment starts
 
     Reading input from pw-si-7.in
Warning: card &CELL ignored
Warning: card / ignored

     Current dimensions of program PWSCF are:
     Max number of different atomic species (ntypx) = 10
     Max number of k-points (npk) =  40000
     Max angular momentum in pseudopotentials (lmaxx) =  4

     IMPORTANT: XC functional enforced from input :
     Exchange-correlation= PBE
                           (   1   4   3   4   0   0   0)
     Any further DFT definition will be discarded
     Please, verify this is what you really want


     gamma-point specific algorithms are used
 
     K-points division:     npool     =       2
     R & G space division:  proc/nbgrp/npool/nimage =       2
     Subspace diagonalization in iterative solution of the eigenvalue problem:
     a serial algorithm will be used

     Message from routine divide_et_impera:
     suboptimal parallelization: some nodes have no k-points
 
     Parallelization info
     --------------------
     sticks:   dense  smooth     PW     G-vecs:    dense   smooth      PW
     Min        1953    1953    519                91815    91815   12442
     Max        1956    1956    522                91820    91820   12443
     Sum        3909    3909   1041               183635   183635   24885
 
     Using Slab Decomposition
 


     bravais-lattice index     =            0
     lattice parameter (alat)  =      20.2181  a.u.
     unit-cell volume          =    8264.6052 (a.u.)^3
     number of atoms/cell      =           64
     number of atomic types    =            1
     number of electrons       =       256.00
     number of Kohn-Sham states=          154
     kinetic-energy cutoff     =      30.0000  Ry
     charge density cutoff     =     120.0000  Ry
     scf convergence threshold =      1.0E-06
     mixing beta               =       0.5000
     number of iterations used =            8  plain     mixing
     Exchange-correlation= PBE
                           (   1   4   3   4   0   0   0)

     GPU acceleration is ACTIVE.
     GPU-aware MPI enabled

     Message from routine print_cuda_info:
     High GPU oversubscription detected. Are you sure this is what you want?

     celldm(1)=  20.218117  celldm(2)=   0.000000  celldm(3)=   0.000000
     celldm(4)=   0.000000  celldm(5)=   0.000000  celldm(6)=   0.000000

     crystal axes: (cart. coord. in units of alat)
               a(1) = (   1.000000   0.000000   0.000000 )  
               a(2) = (   0.000000   1.000000   0.000000 )  
               a(3) = (   0.000000   0.000000   1.000000 )  

     reciprocal axes: (cart. coord. in units 2 pi/alat)
               b(1) = (  1.000000  0.000000  0.000000 )  
               b(2) = (  0.000000  1.000000  0.000000 )  
               b(3) = (  0.000000  0.000000  1.000000 )  


     PseudoPot. # 1 for Si read from file:
     /home/ppiaggi/pseudos/Si_ONCV_PBE_sr.upf
     MD5 check sum: 8553c464762ac42b85b1eed164b4d029
     Pseudo is Norm-conserving, Zval =  4.0
     Generated using ONCVPSP code by D. R. Hamann
     Using radial grid of 1510 points,  4 beta functions with: 
                l(1) =   0
                l(2) =   0
                l(3) =   1
                l(4) =   1

     atomic species   valence    mass     pseudopotential
        Si             4.00    28.08500     Si( 1.00)

     No symmetry found



   Cartesian axes

     site n.     atom                  positions (alat units)
         1           Si  tau(   1) = (   0.4796950   0.2303520   0.3670130  )
         2           Si  tau(   2) = (   0.5125900   0.8670140   0.9090110  )
         3           Si  tau(   3) = (   0.1495240   0.0630430   0.4795060  )
         4           Si  tau(   4) = (   0.1456050   0.7446430   0.2084110  )
         5           Si  tau(   5) = (   0.2672760   0.4570830   0.9257500  )
         6           Si  tau(   6) = (   0.0532831   0.1928790   0.8405540  )
         7           Si  tau(   7) = (   0.3287640   0.2943900   0.2058410  )
         8           Si  tau(   8) = (   0.7655740   0.0997134   0.2851650  )
         9           Si  tau(   9) = (   0.8591760   0.5080470   0.8174690  )
        10           Si  tau(  10) = (   0.8661020   0.2708500   0.3990770  )
        11           Si  tau(  11) = (   0.3661960   0.7420980   0.1687420  )
        12           Si  tau(  12) = (   0.5745250   0.4596450   0.5387510  )
        13           Si  tau(  13) = (   0.4496910   0.0170118   0.3865350  )
        14           Si  tau(  14) = (   0.6157660   0.1315560   0.9034570  )
        15           Si  tau(  15) = (   0.5075710   0.7848540   0.5675670  )
        16           Si  tau(  16) = (   0.4548270   0.6515600   0.3669890  )
        17           Si  tau(  17) = (   0.0540764   0.5279560   0.9997760  )
        18           Si  tau(  18) = (   0.2995550   0.6410070   0.7146890  )
        19           Si  tau(  19) = (   0.7678340   0.9382490   0.6597340  )
        20           Si  tau(  20) = (   0.7276410   0.7163540   0.4219230  )
        21           Si  tau(  21) = (   0.4188400   0.9455120   0.1886290  )
        22           Si  tau(  22) = (   0.0846143   0.8699720   0.3596390  )
        23           Si  tau(  23) = (   0.7426130   0.7782180   0.1973540  )
        24           Si  tau(  24) = (   0.9788350   0.2410100   0.0449456  )
        25           Si  tau(  25) = (   0.0622130   0.5518920   0.6820670  )
        26           Si  tau(  26) = (   0.0083472   0.0508999   0.6763440  )
        27           Si  tau(  27) = (   0.1004140   0.1048060   0.2041200  )
        28           Si  tau(  28) = (   0.6648860   0.9430080   0.4379670  )
        29           Si  tau(  29) = (   0.5511610   0.2328070   0.5745490  )
        30           Si  tau(  30) = (   0.9962020   0.7374690   0.0633280  )
        31           Si  tau(  31) = (   0.4974960   0.4947240   0.1035020  )
        32           Si  tau(  32) = (   0.3982670   0.2682660   0.9850960  )
        33           Si  tau(  33) = (   0.7079750   0.7597470   0.8394400  )
        34           Si  tau(  34) = (   0.7152100   0.6407100   0.0345634  )
        35           Si  tau(  35) = (   0.1845530   0.3447470   0.7439460  )
        36           Si  tau(  36) = (   0.7621780   0.1733290   0.6025000  )
        37           Si  tau(  37) = (   0.3199940   0.4947560   0.5186990  )
        38           Si  tau(  38) = (   0.0803660   0.2557170   0.3500430  )
        39           Si  tau(  39) = (   0.2362350   0.7775700   0.5216620  )
        40           Si  tau(  40) = (   0.1859520   0.0125464   0.9063100  )
        41           Si  tau(  41) = (   0.8487330   0.0540615   0.9569290  )
        42           Si  tau(  42) = (   0.8074530   0.2795520   0.8246160  )
        43           Si  tau(  43) = (   0.6263380   0.9505560   0.0933130  )
        44           Si  tau(  44) = (   0.7966210   0.3982200   0.0660343  )
        45           Si  tau(  45) = (   0.2767070   0.0995008   0.1099640  )
        46           Si  tau(  46) = (   0.9634250   0.5704750   0.4632160  )
        47           Si  tau(  47) = (   0.4241630   0.6650700   0.9661240  )
        48           Si  tau(  48) = (   0.3560140   0.9638970   0.6024100  )
        49           Si  tau(  49) = (   0.9165310   0.9641070   0.2094500  )
        50           Si  tau(  50) = (   0.9168800   0.8553360   0.8740490  )
        51           Si  tau(  51) = (   0.2131100   0.7788600   0.9054500  )
        52           Si  tau(  52) = (   0.8013130   0.4816070   0.2942640  )
        53           Si  tau(  53) = (   0.5814070   0.4520230   0.3111530  )
        54           Si  tau(  54) = (   0.9323310   0.8066040   0.5029810  )
        55           Si  tau(  55) = (   0.7975160   0.4555550   0.5818840  )
        56           Si  tau(  56) = (   0.3890490   0.0235431   0.8073060  )
        57           Si  tau(  57) = (   0.6475120   0.2432760   0.1460870  )
        58           Si  tau(  58) = (   0.1536890   0.5907540   0.3577740  )
        59           Si  tau(  59) = (   0.5846770   0.4046030   0.8826570  )
        60           Si  tau(  60) = (   0.2625180   0.3009200   0.5045310  )
        61           Si  tau(  61) = (   0.4061170   0.2483550   0.7297060  )
        62           Si  tau(  62) = (   0.0801033   0.8170270   0.7106740  )
        63           Si  tau(  63) = (   0.5555850   0.5863260   0.7297370  )
        64           Si  tau(  64) = (   0.1528120   0.4526770   0.1869220  )

     number of k points=     1  Fermi-Dirac smearing, width (Ry)=  0.0100
                       cart. coord. in units 2pi/alat
        k(    1) = (   0.0000000   0.0000000   0.0000000), wk =   2.0000000

     Dense  grid:    91818 G-vectors     FFT dimensions: (  72,  72,  72)

     Estimated max dynamical RAM per process >     147.08 MB

     Estimated total dynamical RAM >     565.88 MB

     Initial potential from superposition of free atoms

     starting charge     255.9608, renormalised to     256.0000
     Starting wfcs are  256 randomized atomic wfcs

     total cpu time spent up to now is        5.0 secs

     Self-consistent Calculation

     iteration #  1     ecut=    30.00 Ry     beta= 0.50
     Davidson diagonalization with overlap
     ethr =  1.00E-02,  avg # of iterations =  3.0

     Threshold (ethr) on eigenvalues was too large:
     Diagonalizing with lowered threshold

     Davidson diagonalization with overlap
     ethr =  4.44E-04,  avg # of iterations =  4.0

     total cpu time spent up to now is        5.3 secs

     total energy              =    -501.29129459 Ry
     estimated scf accuracy    <       1.36785793 Ry

     iteration #  2     ecut=    30.00 Ry     beta= 0.50
     Davidson diagonalization with overlap
     ethr =  5.34E-04,  avg # of iterations =  5.0

     total cpu time spent up to now is        5.4 secs

     total energy              =    -500.63593351 Ry
     estimated scf accuracy    <       8.13994581 Ry

     iteration #  3     ecut=    30.00 Ry     beta= 0.50
     Davidson diagonalization with overlap
     ethr =  5.34E-04,  avg # of iterations =  4.0

     total cpu time spent up to now is        5.5 secs

     total energy              =    -501.45491097 Ry
     estimated scf accuracy    <       1.47053823 Ry

     iteration #  4     ecut=    30.00 Ry     beta= 0.50
     Davidson diagonalization with overlap
     ethr =  5.34E-04,  avg # of iterations =  2.0

     total cpu time spent up to now is        5.6 secs

     total energy              =    -501.52158099 Ry
     estimated scf accuracy    <       0.59034416 Ry

     iteration #  5     ecut=    30.00 Ry     beta= 0.50
     Davidson diagonalization with overlap
     ethr =  2.31E-04,  avg # of iterations =  3.0

     total cpu time spent up to now is        5.7 secs

     total energy              =    -501.55243992 Ry
     estimated scf accuracy    <       0.60126425 Ry

     iteration #  6     ecut=    30.00 Ry     beta= 0.50
     Davidson diagonalization with overlap
     ethr =  2.31E-04,  avg # of iterations =  2.0

     total cpu time spent up to now is        5.8 secs

     total energy              =    -501.60052437 Ry
     estimated scf accuracy    <       0.06724887 Ry

     iteration #  7     ecut=    30.00 Ry     beta= 0.50
     Davidson diagonalization with overlap
     ethr =  2.63E-05,  avg # of iterations =  3.0

     total cpu time spent up to now is        5.9 secs

     total energy              =    -501.60910030 Ry
     estimated scf accuracy    <       0.03511596 Ry

     iteration #  8     ecut=    30.00 Ry     beta= 0.50
     Davidson diagonalization with overlap
     ethr =  1.37E-05,  avg # of iterations =  3.0

     total cpu time spent up to now is        6.0 secs

     total energy              =    -501.61298735 Ry
     estimated scf accuracy    <       0.01339719 Ry

     iteration #  9     ecut=    30.00 Ry     beta= 0.50
     Davidson diagonalization with overlap
     ethr =  5.23E-06,  avg # of iterations = 11.0

     total cpu time spent up to now is        6.1 secs

     total energy              =    -501.61423832 Ry
     estimated scf accuracy    <       0.00090384 Ry

     iteration # 10     ecut=    30.00 Ry     beta= 0.50
     Davidson diagonalization with overlap
     ethr =  3.53E-07,  avg # of iterations =  4.0

     total cpu time spent up to now is        6.3 secs

     total energy              =    -501.61434782 Ry
     estimated scf accuracy    <       0.00062988 Ry

     iteration # 11     ecut=    30.00 Ry     beta= 0.50
     Davidson diagonalization with overlap
     ethr =  2.46E-07,  avg # of iterations =  3.0

     total cpu time spent up to now is        6.4 secs

     total energy              =    -501.61438376 Ry
     estimated scf accuracy    <       0.00047393 Ry

     iteration # 12     ecut=    30.00 Ry     beta= 0.50
     Davidson diagonalization with overlap
     ethr =  1.85E-07,  avg # of iterations =  2.0

     total cpu time spent up to now is        6.5 secs

     total energy              =    -501.61443175 Ry
     estimated scf accuracy    <       0.00026325 Ry

     iteration # 13     ecut=    30.00 Ry     beta= 0.50
     Davidson diagonalization with overlap
     ethr =  1.03E-07,  avg # of iterations =  1.0

     total cpu time spent up to now is        6.5 secs

     total energy              =    -501.61445064 Ry
     estimated scf accuracy    <       0.00003923 Ry

     iteration # 14     ecut=    30.00 Ry     beta= 0.50
     Davidson diagonalization with overlap
     ethr =  1.53E-08,  avg # of iterations =  2.0

     total cpu time spent up to now is        6.6 secs

     total energy              =    -501.61445503 Ry
     estimated scf accuracy    <       0.00001887 Ry

     iteration # 15     ecut=    30.00 Ry     beta= 0.50
     Davidson diagonalization with overlap
     ethr =  7.37E-09,  avg # of iterations =  3.0

     total cpu time spent up to now is        6.8 secs

     total energy              =    -501.61445642 Ry
     estimated scf accuracy    <       0.00001694 Ry

     iteration # 16     ecut=    30.00 Ry     beta= 0.50
     Davidson diagonalization with overlap
     ethr =  6.62E-09,  avg # of iterations =  2.0

     total cpu time spent up to now is        6.8 secs

     total energy              =    -501.61445789 Ry
     estimated scf accuracy    <       0.00000315 Ry

     iteration # 17     ecut=    30.00 Ry     beta= 0.50
     Davidson diagonalization with overlap
     ethr =  1.23E-09,  avg # of iterations =  2.0

     total cpu time spent up to now is        6.9 secs

     End of self-consistent calculation

          k = 0.0000 0.0000 0.0000 ( 11492 PWs)   bands (ev):

    -5.4167  -4.5569  -4.3803  -4.2967  -4.1806  -4.1505  -4.0608  -3.4432
    -3.3510  -3.2590  -3.1824  -3.1559  -3.1265  -2.9976  -2.9830  -2.9348
    -2.8911  -2.7487  -2.6951  -2.1632  -2.0819  -1.9601  -1.8825  -1.8235
    -1.7748  -1.6980  -1.5060  -1.0963  -1.0313  -0.8195  -0.7441  -0.5763
    -0.4799  -0.2982  -0.2483  -0.1649  -0.0111   0.0436   0.0874   0.1036
     0.2886   0.3102   0.3332   0.4382   0.6540   0.7152   0.8008   0.8148
     0.9011   0.9182   1.0057   1.1523   1.2500   1.3040   1.3617   1.5294
     1.6087   1.6978   1.8123   1.9205   2.0062   2.1268   2.2289   2.2771
     2.3098   2.4752   2.5297   2.5879   2.6674   2.7730   2.7925   2.8996
     2.9987   3.0264   3.1379   3.2166   3.2562   3.3246   3.4427   3.6399
     3.7452   3.9846   4.1286   4.1813   4.2636   4.3919   4.4073   4.5144
     4.5617   4.6160   4.7097   4.7528   4.8267   4.9365   5.0326   5.0457
     5.1206   5.2073   5.2503   5.2815   5.3382   5.3689   5.4277   5.4615
     5.5112   5.5661   5.6331   5.7154   5.7508   5.8592   5.9032   5.9534
     5.9821   6.0170   6.0536   6.1623   6.1976   6.2575   6.3204   6.3577
     6.4353   6.4845   6.5334   6.5803   6.7024   6.8030   6.8391   6.8806
     6.9340   6.9648   7.0576   7.1169   7.1797   7.2748   7.3592   7.4529
     7.5173   7.5255   7.6164   7.7837   7.8308   7.8569   7.9176   7.9679
     8.1016   8.1252   8.1823   8.2167   8.3906   8.4098   8.4571   8.4752
     8.5694   8.6030

     the Fermi energy is     6.9110 ev

!    total energy              =    -501.61445763 Ry
     estimated scf accuracy    <       0.00000089 Ry
     smearing contrib. (-TS)   =      -0.14034334 Ry
     internal energy E=F+TS    =    -501.47411429 Ry

     The total energy is F=E-TS. E is the sum of the following terms:
     one-electron contribution =     185.40305792 Ry
     hartree contribution      =      23.91390339 Ry
     xc contribution           =    -150.68944958 Ry
     ewald contribution        =    -560.10162603 Ry

     convergence has been achieved in  17 iterations

     Forces acting on atoms (cartesian axes, Ry/au):

     atom    1 type  1   force =    -0.00780921    0.02525530   -0.03261886
     atom    2 type  1   force =     0.04409509   -0.00016114    0.00997623
     atom    3 type  1   force =     0.00900979   -0.00554203    0.02149678
     atom    4 type  1   force =     0.05875551   -0.01967183   -0.01088737
     atom    5 type  1   force =     0.00883842    0.01474534   -0.01005910
     atom    6 type  1   force =    -0.00926514   -0.01092162    0.00308911
     atom    7 type  1   force =    -0.00911312    0.03626372   -0.01101288
     atom    8 type  1   force =    -0.01789003   -0.00487258    0.01709948
     atom    9 type  1   force =     0.01378358   -0.00143728   -0.01656173
     atom   10 type  1   force =    -0.01845618    0.01403938    0.02734171
     atom   11 type  1   force =    -0.01607431   -0.02198143    0.02395166
     atom   12 type  1   force =    -0.00111364   -0.01063514    0.02466690
     atom   13 type  1   force =     0.02382294   -0.00856362    0.06528862
     atom   14 type  1   force =     0.01784846   -0.00596174    0.04120372
     atom   15 type  1   force =    -0.00181614   -0.01766749   -0.01660638
     atom   16 type  1   force =    -0.00717818   -0.01726990    0.02280790
     atom   17 type  1   force =     0.00144435   -0.01574691    0.00344322
     atom   18 type  1   force =    -0.01114590   -0.01357591   -0.01697119
     atom   19 type  1   force =     0.03184092    0.01014022   -0.02440781
     atom   20 type  1   force =    -0.00366168    0.01835115   -0.02346765
     atom   21 type  1   force =     0.02236137    0.02756429   -0.02270842
     atom   22 type  1   force =    -0.01470039    0.09215724    0.05583994
     atom   23 type  1   force =     0.02767387    0.03449259    0.02818062
     atom   24 type  1   force =    -0.01311486   -0.01919915    0.00568544
     atom   25 type  1   force =     0.00676638   -0.00141167    0.01016114
     atom   26 type  1   force =    -0.02724749   -0.03385171   -0.02388960
     atom   27 type  1   force =    -0.11669717   -0.00970262    0.00674124
     atom   28 type  1   force =    -0.01388159    0.00834198   -0.00600891
     atom   29 type  1   force =     0.03116147    0.02943738   -0.01096959
     atom   30 type  1   force =    -0.03079753   -0.00151356   -0.06125174
     atom   31 type  1   force =     0.01374347   -0.02899943   -0.04674972
     atom   32 type  1   force =     0.01426901    0.04176332    0.01111013
     atom   33 type  1   force =    -0.01641708   -0.01995076   -0.01974648
     atom   34 type  1   force =    -0.01342256   -0.04522604   -0.01983082
     atom   35 type  1   force =     0.01321821    0.02237549   -0.04267046
     atom   36 type  1   force =     0.03039445    0.01680235    0.01808756
     atom   37 type  1   force =     0.03810002    0.11851873   -0.01646943
     atom   38 type  1   force =     0.02212678    0.03666000    0.03698536
     atom   39 type  1   force =     0.00780571   -0.00046802    0.04264282
     atom   40 type  1   force =     0.02477929   -0.00613164    0.01848850
     atom   41 type  1   force =    -0.00859597    0.00884837    0.03558437
     atom   42 type  1   force =    -0.01853945    0.00613122   -0.02205027
     atom   43 type  1   force =    -0.01729125    0.00895877   -0.01594375
     atom   44 type  1   force =     0.00666715    0.00047379   -0.00498548
     atom   45 type  1   force =     0.07003380   -0.03061025   -0.07022757
     atom   46 type  1   force =    -0.02398079    0.03187927    0.01558267
     atom   47 type  1   force =    -0.03471873   -0.01232985   -0.00815934
     atom   48 type  1   force =    -0.02303653   -0.01947186   -0.07966067
     atom   49 type  1   force =     0.01545796   -0.00823650   -0.02534074
     atom   50 type  1   force =     0.00591983    0.00439527   -0.00475718
     atom   51 type  1   force =    -0.02360759    0.01451543   -0.01106248
     atom   52 type  1   force =     0.01732716   -0.01952731    0.00683189
     atom   53 type  1   force =     0.00374040    0.00866171    0.00089214
     atom   54 type  1   force =    -0.02842838   -0.04019667    0.03424658
     atom   55 type  1   force =     0.00058430   -0.02662727    0.00092069
     atom   56 type  1   force =    -0.00741194    0.02958427    0.00472341
     atom   57 type  1   force =    -0.02185614   -0.01359255   -0.00318923
     atom   58 type  1   force =     0.03076910   -0.02768623    0.02271317
     atom   59 type  1   force =     0.01105051   -0.01165969    0.00622154
     atom   60 type  1   force =    -0.04682654   -0.08682213    0.00291140
     atom   61 type  1   force =    -0.01895188   -0.01341018    0.04437378
     atom   62 type  1   force =    -0.00735401   -0.00226913    0.00025127
     atom   63 type  1   force =    -0.00292317    0.02892186   -0.00137451
     atom   64 type  1   force =     0.00993527   -0.05637565    0.01009836

     Total force =     0.392267     Total SCF correction =     0.001772


     Computing stress (Cartesian axis) and pressure

          total   stress  (Ry/bohr**3)                   (kbar)     P=      -30.21
  -0.00026293  -0.00000203  -0.00005174          -38.68       -0.30       -7.61
  -0.00000203  -0.00017516   0.00006396           -0.30      -25.77        9.41
  -0.00005174   0.00006396  -0.00017797           -7.61        9.41      -26.18

 
     init_run     :      1.08s CPU      4.93s WALL (       1 calls)
     electrons    :      1.78s CPU      1.92s WALL (       1 calls)
     forces       :      0.03s CPU      0.04s WALL (       1 calls)
     stress       :      0.15s CPU      0.16s WALL (       1 calls)

     Called by init_run:
     wfcinit      :      0.54s CPU      4.21s WALL (       1 calls)
                                        4.21s GPU  (       1 calls)
     potinit      :      0.05s CPU      0.15s WALL (       1 calls)
     hinit0       :      0.47s CPU      0.50s WALL (       1 calls)

     Called by electrons:
     c_bands      :      1.04s CPU      1.10s WALL (      18 calls)
     sum_band     :      0.36s CPU      0.40s WALL (      18 calls)
     v_of_rho     :      0.18s CPU      0.29s WALL (      18 calls)
     mix_rho      :      0.17s CPU      0.18s WALL (      18 calls)

     Called by c_bands:
     init_us_2    :      0.06s CPU      0.07s WALL (      37 calls)
     init_us_2:gp :      0.06s CPU      0.07s WALL (      37 calls)
     regterg      :      0.89s CPU      0.95s WALL (      18 calls)

     Called by *egterg:
     rdiaghg      :      0.35s CPU      1.11s WALL (      76 calls)
                                        1.09s GPU  (      76 calls)
     h_psi        :      0.90s CPU      3.86s WALL (      78 calls)
                                        3.86s GPU  (      78 calls)
     g_psi        :      0.00s CPU      0.00s WALL (      59 calls)
                                        0.00s GPU  (      59 calls)

     Called by h_psi:
     h_psi:calbec :      0.50s CPU      3.38s WALL (      78 calls)
                                        3.38s GPU  (      78 calls)
     vloc_psi     :      0.35s CPU      0.43s WALL (      78 calls)
                                        0.43s GPU  (      78 calls)
     add_vuspsi   :      0.03s CPU      0.04s WALL (      78 calls)
                                        0.04s GPU  (      78 calls)

     General routines
     calbec       :      0.51s CPU      3.38s WALL (      83 calls)
     fft          :      0.62s CPU      0.76s WALL (     151 calls)
                                        0.14s GPU  (      96 calls)
     ffts         :      0.04s CPU      0.05s WALL (      18 calls)
     fftw         :      0.43s CPU      0.57s WALL (    1894 calls)
                                        0.50s GPU  (    1894 calls)
 
     Parallel routines
 
     PWSCF        :      3.09s CPU      7.14s WALL

 
   This run was terminated on:  10:55:15  10May2023            

=------------------------------------------------------------------------------=
   JOB DONE.
=------------------------------------------------------------------------------=
