An instance of this daemon is already running

     Program PWSCF v.7.1 starts on 10May2023 at 10:58:52 

     This program is part of the open-source Quantum ESPRESSO suite
     for quantum simulation of materials; please cite
         "P. Giannozzi et al., J. Phys.:Condens. Matter 21 395502 (2009);
         "P. Giannozzi et al., J. Phys.:Condens. Matter 29 465901 (2017);
         "P. Giannozzi et al., J. Chem. Phys. 152 154105 (2020);
          URL http://www.quantum-espresso.org", 
     in publications or presentations arising from this work. More details at
     http://www.quantum-espresso.org/quote

     Parallel version (MPI & OpenMP), running on       4 processor cores
     Number of MPI processes:                 4
     Threads/MPI process:                     1

     MPI processes distributed on     1 nodes
     753572 MiB available memory on the printing compute node when the environment starts
 
     Reading input from pw-si-30.in
Warning: card &CELL ignored
Warning: card / ignored

     Current dimensions of program PWSCF are:
     Max number of different atomic species (ntypx) = 10
     Max number of k-points (npk) =  40000
     Max angular momentum in pseudopotentials (lmaxx) =  4

     IMPORTANT: XC functional enforced from input :
     Exchange-correlation= PBE
                           (   1   4   3   4   0   0   0)
     Any further DFT definition will be discarded
     Please, verify this is what you really want


     gamma-point specific algorithms are used
 
     K-points division:     npool     =       2
     R & G space division:  proc/nbgrp/npool/nimage =       2
     Subspace diagonalization in iterative solution of the eigenvalue problem:
     a serial algorithm will be used

     Message from routine divide_et_impera:
     suboptimal parallelization: some nodes have no k-points
 
     Parallelization info
     --------------------
     sticks:   dense  smooth     PW     G-vecs:    dense   smooth      PW
     Min        1920    1920    502                89653    89653   12150
     Max        1921    1921    503                89656    89656   12153
     Sum        3841    3841   1005               179309   179309   24303
 
     Using Slab Decomposition
 


     bravais-lattice index     =            0
     lattice parameter (alat)  =      20.0677  a.u.
     unit-cell volume          =    8081.5238 (a.u.)^3
     number of atoms/cell      =           64
     number of atomic types    =            1
     number of electrons       =       256.00
     number of Kohn-Sham states=          154
     kinetic-energy cutoff     =      30.0000  Ry
     charge density cutoff     =     120.0000  Ry
     scf convergence threshold =      1.0E-06
     mixing beta               =       0.5000
     number of iterations used =            8  plain     mixing
     Exchange-correlation= PBE
                           (   1   4   3   4   0   0   0)

     GPU acceleration is ACTIVE.
     GPU-aware MPI enabled

     Message from routine print_cuda_info:
     High GPU oversubscription detected. Are you sure this is what you want?

     celldm(1)=  20.067707  celldm(2)=   0.000000  celldm(3)=   0.000000
     celldm(4)=   0.000000  celldm(5)=   0.000000  celldm(6)=   0.000000

     crystal axes: (cart. coord. in units of alat)
               a(1) = (   1.000000   0.000000   0.000000 )  
               a(2) = (   0.000000   1.000000   0.000000 )  
               a(3) = (   0.000000   0.000000   1.000000 )  

     reciprocal axes: (cart. coord. in units 2 pi/alat)
               b(1) = (  1.000000  0.000000  0.000000 )  
               b(2) = (  0.000000  1.000000  0.000000 )  
               b(3) = (  0.000000  0.000000  1.000000 )  


     PseudoPot. # 1 for Si read from file:
     /home/ppiaggi/pseudos/Si_ONCV_PBE_sr.upf
     MD5 check sum: 8553c464762ac42b85b1eed164b4d029
     Pseudo is Norm-conserving, Zval =  4.0
     Generated using ONCVPSP code by D. R. Hamann
     Using radial grid of 1510 points,  4 beta functions with: 
                l(1) =   0
                l(2) =   0
                l(3) =   1
                l(4) =   1

     atomic species   valence    mass     pseudopotential
        Si             4.00    28.08500     Si( 1.00)

     No symmetry found



   Cartesian axes

     site n.     atom                  positions (alat units)
         1           Si  tau(   1) = (   0.8129840   0.2741410   0.3162630  )
         2           Si  tau(   2) = (   0.2528220   0.5278810   0.0105093  )
         3           Si  tau(   3) = (   0.0714928   0.7257500   0.2068010  )
         4           Si  tau(   4) = (   0.2091380   0.8415910   0.7084630  )
         5           Si  tau(   5) = (   0.5271330   0.8341680   0.4746080  )
         6           Si  tau(   6) = (   0.5178710   0.8468710   0.7818600  )
         7           Si  tau(   7) = (   0.2362790   0.0988017   0.0968802  )
         8           Si  tau(   8) = (   0.3316430   0.1556960   0.7658940  )
         9           Si  tau(   9) = (   0.3540470   0.8271700   0.9992460  )
        10           Si  tau(  10) = (   0.7401430   0.1643510   0.9885130  )
        11           Si  tau(  11) = (   0.6248800   0.1405080   0.1965600  )
        12           Si  tau(  12) = (   0.8097200   0.9557780   0.8298300  )
        13           Si  tau(  13) = (   0.9642960   0.1231200   0.9928780  )
        14           Si  tau(  14) = (   0.4527060   0.0998883   0.9540410  )
        15           Si  tau(  15) = (   0.5157280   0.5454610   0.8195710  )
        16           Si  tau(  16) = (   0.8556880   0.6595780   0.1908740  )
        17           Si  tau(  17) = (   0.9552910   0.3926640   0.5137490  )
        18           Si  tau(  18) = (   0.0404845   0.4841480   0.8656300  )
        19           Si  tau(  19) = (   0.5584760   0.9182150   0.2331380  )
        20           Si  tau(  20) = (   0.6624170   0.3553950   0.4764200  )
        21           Si  tau(  21) = (   0.3480500   0.2669870   0.3269310  )
        22           Si  tau(  22) = (   0.7037860   0.7065500   0.9958880  )
        23           Si  tau(  23) = (   0.5312380   0.5964520   0.4551750  )
        24           Si  tau(  24) = (   0.7684180   0.8813080   0.2352290  )
        25           Si  tau(  25) = (   0.4597570   0.3366300   0.7098550  )
        26           Si  tau(  26) = (   0.4645270   0.6183080   0.0592885  )
        27           Si  tau(  27) = (   0.9938300   0.7832200   0.6504240  )
        28           Si  tau(  28) = (   0.0580891   0.2405270   0.3653970  )
        29           Si  tau(  29) = (   0.3925170   0.3264830   0.9858020  )
        30           Si  tau(  30) = (   0.2956150   0.9288360   0.2106070  )
        31           Si  tau(  31) = (   0.9259290   0.7515500   0.8562800  )
        32           Si  tau(  32) = (   0.8220490   0.4204820   0.1385770  )
        33           Si  tau(  33) = (   0.1594240   0.9965030   0.9172760  )
        34           Si  tau(  34) = (   0.6339170   0.9324580   0.9753890  )
        35           Si  tau(  35) = (   0.6548190   0.3917820   0.9776030  )
        36           Si  tau(  36) = (   0.2056490   0.5473620   0.2866050  )
        37           Si  tau(  37) = (   0.9187030   0.1476840   0.7293870  )
        38           Si  tau(  38) = (   0.0933759   0.9269900   0.3677600  )
        39           Si  tau(  39) = (   0.2516890   0.7703590   0.4721670  )
        40           Si  tau(  40) = (   0.5122300   0.3223630   0.1775950  )
        41           Si  tau(  41) = (   0.7440570   0.7974890   0.5038570  )
        42           Si  tau(  42) = (   0.8010330   0.3585090   0.6892020  )
        43           Si  tau(  43) = (   0.1260570   0.7460830   0.9926100  )
        44           Si  tau(  44) = (   0.8113330   0.5872590   0.4135040  )
        45           Si  tau(  45) = (   0.9599630   0.9948730   0.5584330  )
        46           Si  tau(  46) = (   0.2160450   0.4779280   0.6638130  )
        47           Si  tau(  47) = (   0.6091370   0.5055890   0.2426600  )
        48           Si  tau(  48) = (   0.0936663   0.5713410   0.4898380  )
        49           Si  tau(  49) = (   0.3906730   0.9769210   0.6492530  )
        50           Si  tau(  50) = (   0.3491650   0.0572278   0.4117580  )
        51           Si  tau(  51) = (   0.6376690   0.2385210   0.7597850  )
        52           Si  tau(  52) = (   0.3964510   0.4154590   0.5125260  )
        53           Si  tau(  53) = (   0.6548360   0.0097197   0.6626160  )
        54           Si  tau(  54) = (   0.1783610   0.3058080   0.1740560  )
        55           Si  tau(  55) = (   0.1601280   0.1413240   0.5356920  )
        56           Si  tau(  56) = (   0.9713450   0.0433216   0.2159120  )
        57           Si  tau(  57) = (   0.0063118   0.3463440   0.0243835  )
        58           Si  tau(  58) = (   0.5875940   0.1242790   0.4503410  )
        59           Si  tau(  59) = (   0.7956850   0.0299850   0.4328250  )
        60           Si  tau(  60) = (   0.3932030   0.6878360   0.2931660  )
        61           Si  tau(  61) = (   0.3023150   0.6439300   0.7994860  )
        62           Si  tau(  62) = (   0.8039440   0.5612660   0.8148380  )
        63           Si  tau(  63) = (   0.1199850   0.2796350   0.7295250  )
        64           Si  tau(  64) = (   0.6364200   0.6942610   0.6828550  )

     number of k points=     1  Fermi-Dirac smearing, width (Ry)=  0.0100
                       cart. coord. in units 2pi/alat
        k(    1) = (   0.0000000   0.0000000   0.0000000), wk =   2.0000000

     Dense  grid:    89655 G-vectors     FFT dimensions: (  72,  72,  72)

     Estimated max dynamical RAM per process >     144.14 MB

     Estimated total dynamical RAM >     554.68 MB

     Initial potential from superposition of free atoms

     starting charge     255.9608, renormalised to     256.0000
     Starting wfcs are  256 randomized atomic wfcs

     total cpu time spent up to now is        5.0 secs

     Self-consistent Calculation

     iteration #  1     ecut=    30.00 Ry     beta= 0.50
     Davidson diagonalization with overlap
     ethr =  1.00E-02,  avg # of iterations =  3.0

     Threshold (ethr) on eigenvalues was too large:
     Diagonalizing with lowered threshold

     Davidson diagonalization with overlap
     ethr =  3.61E-04,  avg # of iterations =  5.0

     total cpu time spent up to now is        5.3 secs

     total energy              =    -501.41621137 Ry
     estimated scf accuracy    <       1.11449285 Ry

     iteration #  2     ecut=    30.00 Ry     beta= 0.50
     Davidson diagonalization with overlap
     ethr =  4.35E-04,  avg # of iterations =  4.0

     total cpu time spent up to now is        5.4 secs

     total energy              =    -501.11579827 Ry
     estimated scf accuracy    <       2.84756422 Ry

     iteration #  3     ecut=    30.00 Ry     beta= 0.50
     Davidson diagonalization with overlap
     ethr =  4.35E-04,  avg # of iterations =  4.0

     total cpu time spent up to now is        5.5 secs

     total energy              =    -501.40004882 Ry
     estimated scf accuracy    <       2.40074867 Ry

     iteration #  4     ecut=    30.00 Ry     beta= 0.50
     Davidson diagonalization with overlap
     ethr =  4.35E-04,  avg # of iterations =  2.0

     total cpu time spent up to now is        5.6 secs

     total energy              =    -501.54982411 Ry
     estimated scf accuracy    <       0.41018984 Ry

     iteration #  5     ecut=    30.00 Ry     beta= 0.50
     Davidson diagonalization with overlap
     ethr =  1.60E-04,  avg # of iterations =  2.0

     total cpu time spent up to now is        5.7 secs

     total energy              =    -501.58120961 Ry
     estimated scf accuracy    <       0.29231670 Ry

     iteration #  6     ecut=    30.00 Ry     beta= 0.50
     Davidson diagonalization with overlap
     ethr =  1.14E-04,  avg # of iterations =  2.0

     total cpu time spent up to now is        5.8 secs

     total energy              =    -501.60725465 Ry
     estimated scf accuracy    <       0.10201420 Ry

     iteration #  7     ecut=    30.00 Ry     beta= 0.50
     Davidson diagonalization with overlap
     ethr =  3.98E-05,  avg # of iterations =  2.0

     total cpu time spent up to now is        5.9 secs

     total energy              =    -501.61561721 Ry
     estimated scf accuracy    <       0.02258037 Ry

     iteration #  8     ecut=    30.00 Ry     beta= 0.50
     Davidson diagonalization with overlap
     ethr =  8.82E-06,  avg # of iterations = 19.0

     total cpu time spent up to now is        6.1 secs

     total energy              =    -501.61804983 Ry
     estimated scf accuracy    <       0.02336849 Ry

     iteration #  9     ecut=    30.00 Ry     beta= 0.50
     Davidson diagonalization with overlap
     ethr =  8.82E-06,  avg # of iterations =  2.0

     total cpu time spent up to now is        6.2 secs

     total energy              =    -501.61977730 Ry
     estimated scf accuracy    <       0.00109147 Ry

     iteration # 10     ecut=    30.00 Ry     beta= 0.50
     Davidson diagonalization with overlap
     ethr =  4.26E-07,  avg # of iterations =  5.0

     total cpu time spent up to now is        6.4 secs

     total energy              =    -501.61989540 Ry
     estimated scf accuracy    <       0.00262597 Ry

     iteration # 11     ecut=    30.00 Ry     beta= 0.50
     Davidson diagonalization with overlap
     ethr =  4.26E-07,  avg # of iterations =  3.0

     total cpu time spent up to now is        6.5 secs

     total energy              =    -501.62010610 Ry
     estimated scf accuracy    <       0.00037426 Ry

     iteration # 12     ecut=    30.00 Ry     beta= 0.50
     Davidson diagonalization with overlap
     ethr =  1.46E-07,  avg # of iterations =  2.0

     total cpu time spent up to now is        6.6 secs

     total energy              =    -501.62013074 Ry
     estimated scf accuracy    <       0.00015686 Ry

     iteration # 13     ecut=    30.00 Ry     beta= 0.50
     Davidson diagonalization with overlap
     ethr =  6.13E-08,  avg # of iterations =  2.0

     total cpu time spent up to now is        6.7 secs

     total energy              =    -501.62014223 Ry
     estimated scf accuracy    <       0.00013756 Ry

     iteration # 14     ecut=    30.00 Ry     beta= 0.50
     Davidson diagonalization with overlap
     ethr =  5.37E-08,  avg # of iterations =  2.0

     total cpu time spent up to now is        6.7 secs

     total energy              =    -501.62015043 Ry
     estimated scf accuracy    <       0.00004695 Ry

     iteration # 15     ecut=    30.00 Ry     beta= 0.50
     Davidson diagonalization with overlap
     ethr =  1.83E-08,  avg # of iterations =  2.0

     total cpu time spent up to now is        6.8 secs

     total energy              =    -501.62015401 Ry
     estimated scf accuracy    <       0.00001119 Ry

     iteration # 16     ecut=    30.00 Ry     beta= 0.50
     Davidson diagonalization with overlap
     ethr =  4.37E-09,  avg # of iterations =  3.0

     total cpu time spent up to now is        7.0 secs

     total energy              =    -501.62015452 Ry
     estimated scf accuracy    <       0.00001745 Ry

     iteration # 17     ecut=    30.00 Ry     beta= 0.50
     Davidson diagonalization with overlap
     ethr =  4.37E-09,  avg # of iterations =  2.0

     total cpu time spent up to now is        7.0 secs

     total energy              =    -501.62015554 Ry
     estimated scf accuracy    <       0.00000368 Ry

     iteration # 18     ecut=    30.00 Ry     beta= 0.50
     Davidson diagonalization with overlap
     ethr =  1.44E-09,  avg # of iterations =  2.0

     total cpu time spent up to now is        7.1 secs

     total energy              =    -501.62015609 Ry
     estimated scf accuracy    <       0.00000179 Ry

     iteration # 19     ecut=    30.00 Ry     beta= 0.50
     Davidson diagonalization with overlap
     ethr =  7.00E-10,  avg # of iterations =  1.0

     total cpu time spent up to now is        7.2 secs

     End of self-consistent calculation

          k = 0.0000 0.0000 0.0000 ( 11288 PWs)   bands (ev):

    -5.2958  -4.3050  -4.1932  -4.1571  -4.0680  -3.9300  -3.8473  -3.2518
    -3.1694  -3.0734  -2.9885  -2.9373  -2.9342  -2.8384  -2.8043  -2.7241
    -2.6032  -2.5300  -2.4819  -2.0353  -1.9494  -1.8405  -1.7133  -1.6362
    -1.4849  -1.3393  -1.1283  -0.9273  -0.6304  -0.5852  -0.4512  -0.3642
    -0.2045  -0.0347  -0.0217   0.0957   0.1672   0.2865   0.3426   0.3888
     0.4559   0.5707   0.5841   0.6620   0.6925   0.8435   0.9045   1.0933
     1.1223   1.1791   1.3091   1.4158   1.4374   1.5775   1.6386   1.6649
     1.9192   2.0008   2.0666   2.1436   2.2928   2.3095   2.4297   2.5144
     2.5524   2.6286   2.7210   2.7895   2.8227   2.9490   2.9890   3.0256
     3.1365   3.2445   3.3239   3.4207   3.4855   3.5432   3.6176   3.8022
     4.0600   4.2012   4.3019   4.4011   4.4926   4.6121   4.7132   4.7752
     4.8751   4.8948   4.9701   5.0830   5.1174   5.2080   5.2642   5.3071
     5.3567   5.3819   5.4119   5.4989   5.5539   5.5785   5.6963   5.7699
     5.8441   5.8842   5.9461   5.9989   6.0560   6.0880   6.2012   6.2199
     6.2611   6.3315   6.4421   6.4783   6.5601   6.5737   6.6169   6.6466
     6.7395   6.7690   6.8295   6.8903   6.9090   7.0022   7.0493   7.1534
     7.2043   7.2864   7.3745   7.4181   7.4922   7.5437   7.6195   7.6695
     7.7263   7.7703   7.8248   7.8676   7.8883   8.0137   8.1373   8.1977
     8.2577   8.2951   8.3562   8.4583   8.5389   8.6024   8.6332   8.7065
     8.8030   8.8450

     the Fermi energy is     7.1805 ev

!    total energy              =    -501.62015604 Ry
     estimated scf accuracy    <       0.00000026 Ry
     smearing contrib. (-TS)   =      -0.13762934 Ry
     internal energy E=F+TS    =    -501.48252670 Ry

     The total energy is F=E-TS. E is the sum of the following terms:
     one-electron contribution =     192.54623190 Ry
     hartree contribution      =      22.75002071 Ry
     xc contribution           =    -150.97203624 Ry
     ewald contribution        =    -565.80674308 Ry

     convergence has been achieved in  19 iterations

     Forces acting on atoms (cartesian axes, Ry/au):

     atom    1 type  1   force =    -0.00521663   -0.00474131   -0.01290531
     atom    2 type  1   force =    -0.01058805   -0.00193343   -0.01186423
     atom    3 type  1   force =    -0.00102330   -0.00111088    0.01705016
     atom    4 type  1   force =     0.00653728   -0.01054163   -0.00347160
     atom    5 type  1   force =    -0.03830009    0.00592152   -0.01541886
     atom    6 type  1   force =    -0.00525274    0.02908687    0.03975576
     atom    7 type  1   force =     0.01904719    0.03899570   -0.00917114
     atom    8 type  1   force =    -0.03297337    0.02840997    0.01918798
     atom    9 type  1   force =     0.00275026   -0.01060992    0.00530040
     atom   10 type  1   force =    -0.01914869   -0.00004916   -0.00699436
     atom   11 type  1   force =     0.03784885   -0.02799794    0.00072019
     atom   12 type  1   force =     0.00971837    0.01255023   -0.00322169
     atom   13 type  1   force =     0.00329640    0.00649887    0.00835156
     atom   14 type  1   force =    -0.02721012    0.00137275    0.01369363
     atom   15 type  1   force =    -0.00336840   -0.03271001    0.00745546
     atom   16 type  1   force =    -0.01691638   -0.00751007   -0.01064325
     atom   17 type  1   force =    -0.01513898    0.00347294   -0.01530982
     atom   18 type  1   force =     0.01038907    0.02100949   -0.03001087
     atom   19 type  1   force =    -0.05427373    0.02532686   -0.00281066
     atom   20 type  1   force =     0.00707902   -0.01288896    0.00532936
     atom   21 type  1   force =     0.00710693    0.02604413    0.01229959
     atom   22 type  1   force =     0.01105113    0.00304608    0.00818244
     atom   23 type  1   force =     0.02210080   -0.01741609   -0.00049909
     atom   24 type  1   force =     0.06334709   -0.00320851    0.02244201
     atom   25 type  1   force =    -0.04520667    0.04860586    0.01169187
     atom   26 type  1   force =     0.01824863    0.01566060    0.01890334
     atom   27 type  1   force =     0.01919353    0.01486120   -0.04273020
     atom   28 type  1   force =    -0.03167938    0.00711657   -0.02414576
     atom   29 type  1   force =     0.01459955   -0.00440912    0.00109003
     atom   30 type  1   force =     0.03139647   -0.02640934    0.03599264
     atom   31 type  1   force =     0.00576926    0.01072946    0.02540218
     atom   32 type  1   force =    -0.00223683    0.01327964    0.00190454
     atom   33 type  1   force =    -0.01921493   -0.03701119   -0.02712975
     atom   34 type  1   force =    -0.01984817   -0.01115076    0.00391871
     atom   35 type  1   force =    -0.00105660    0.00209692   -0.01608717
     atom   36 type  1   force =    -0.01350947    0.01984663   -0.01643109
     atom   37 type  1   force =    -0.00518076    0.00246463   -0.00055963
     atom   38 type  1   force =     0.02712556   -0.03703266   -0.00895836
     atom   39 type  1   force =    -0.02047524    0.01447920   -0.00138111
     atom   40 type  1   force =    -0.03406901    0.00010854   -0.01039540
     atom   41 type  1   force =     0.02564908   -0.00524762    0.00920021
     atom   42 type  1   force =     0.03057451    0.02065734   -0.04426352
     atom   43 type  1   force =    -0.00764574    0.01876525   -0.02739644
     atom   44 type  1   force =    -0.00676832   -0.00265293   -0.00790008
     atom   45 type  1   force =     0.06524248   -0.01975466    0.04102158
     atom   46 type  1   force =    -0.00467280    0.00546635   -0.02279663
     atom   47 type  1   force =     0.01348806    0.02302647   -0.00061542
     atom   48 type  1   force =     0.00958738    0.02490912    0.02515479
     atom   49 type  1   force =     0.00546249   -0.02217612   -0.04525978
     atom   50 type  1   force =     0.00178041   -0.02044969    0.00775245
     atom   51 type  1   force =     0.04783810   -0.07615116    0.05490177
     atom   52 type  1   force =    -0.00020138   -0.00053562   -0.00453215
     atom   53 type  1   force =     0.00049485    0.02678855   -0.01608202
     atom   54 type  1   force =    -0.01483581   -0.00411266    0.02444345
     atom   55 type  1   force =    -0.01049785   -0.01028531   -0.00696721
     atom   56 type  1   force =    -0.02001642    0.02493268    0.00307133
     atom   57 type  1   force =    -0.01145787   -0.03439775    0.04056091
     atom   58 type  1   force =    -0.00182165    0.00994880    0.00704626
     atom   59 type  1   force =    -0.04257259   -0.02833138   -0.03414016
     atom   60 type  1   force =    -0.00233911    0.02390556    0.00069231
     atom   61 type  1   force =    -0.00938078    0.00432752    0.02708100
     atom   62 type  1   force =    -0.01124824   -0.01206598   -0.00063022
     atom   63 type  1   force =     0.02666688   -0.01610826   -0.00956700
     atom   64 type  1   force =     0.02195646   -0.03471217   -0.00930795

     Total force =     0.303634     Total SCF correction =     0.000963


     Computing stress (Cartesian axis) and pressure

          total   stress  (Ry/bohr**3)                   (kbar)     P=      -33.87
  -0.00013881   0.00002292  -0.00001843          -20.42        3.37       -2.71
   0.00002292  -0.00031055  -0.00010062            3.37      -45.68      -14.80
  -0.00001843  -0.00010062  -0.00024131           -2.71      -14.80      -35.50

 
     init_run     :      1.06s CPU      4.96s WALL (       1 calls)
     electrons    :      2.02s CPU      2.18s WALL (       1 calls)
     forces       :      0.03s CPU      0.04s WALL (       1 calls)
     stress       :      0.15s CPU      0.16s WALL (       1 calls)

     Called by init_run:
     wfcinit      :      0.52s CPU      4.24s WALL (       1 calls)
                                        4.24s GPU  (       1 calls)
     potinit      :      0.05s CPU      0.15s WALL (       1 calls)
     hinit0       :      0.47s CPU      0.50s WALL (       1 calls)

     Called by electrons:
     c_bands      :      1.20s CPU      1.27s WALL (      20 calls)
     sum_band     :      0.41s CPU      0.45s WALL (      20 calls)
     v_of_rho     :      0.19s CPU      0.30s WALL (      20 calls)
     mix_rho      :      0.19s CPU      0.20s WALL (      20 calls)

     Called by c_bands:
     init_us_2    :      0.07s CPU      0.08s WALL (      41 calls)
     init_us_2:gp :      0.07s CPU      0.08s WALL (      41 calls)
     regterg      :      1.02s CPU      1.08s WALL (      20 calls)

     Called by *egterg:
     rdiaghg      :      0.40s CPU      1.18s WALL (      88 calls)
                                        1.16s GPU  (      88 calls)
     h_psi        :      0.94s CPU      3.94s WALL (      90 calls)
                                        3.94s GPU  (      90 calls)
     g_psi        :      0.00s CPU      0.00s WALL (      69 calls)
                                        0.00s GPU  (      69 calls)

     Called by h_psi:
     h_psi:calbec :      0.49s CPU      3.41s WALL (      90 calls)
                                        3.41s GPU  (      90 calls)
     vloc_psi     :      0.40s CPU      0.47s WALL (      90 calls)
                                        0.46s GPU  (      90 calls)
     add_vuspsi   :      0.04s CPU      0.05s WALL (      90 calls)
                                        0.05s GPU  (      90 calls)

     General routines
     calbec       :      0.49s CPU      3.41s WALL (      95 calls)
     fft          :      0.63s CPU      0.77s WALL (     167 calls)
                                        0.13s GPU  (     106 calls)
     ffts         :      0.05s CPU      0.05s WALL (      20 calls)
     fftw         :      0.49s CPU      0.64s WALL (    2102 calls)
                                        0.55s GPU  (    2102 calls)
 
     Parallel routines
 
     PWSCF        :      3.30s CPU      7.43s WALL

 
   This run was terminated on:  10:58:59  10May2023            

=------------------------------------------------------------------------------=
   JOB DONE.
=------------------------------------------------------------------------------=
