An instance of this daemon is already running
An instance of this daemon is already running

     Program PWSCF v.7.1 starts on 10May2023 at 11: 5:49 

     This program is part of the open-source Quantum ESPRESSO suite
     for quantum simulation of materials; please cite
         "P. Giannozzi et al., J. Phys.:Condens. Matter 21 395502 (2009);
         "P. Giannozzi et al., J. Phys.:Condens. Matter 29 465901 (2017);
         "P. Giannozzi et al., J. Chem. Phys. 152 154105 (2020);
          URL http://www.quantum-espresso.org", 
     in publications or presentations arising from this work. More details at
     http://www.quantum-espresso.org/quote

     Parallel version (MPI & OpenMP), running on       4 processor cores
     Number of MPI processes:                 4
     Threads/MPI process:                     1

     MPI processes distributed on     1 nodes
     753554 MiB available memory on the printing compute node when the environment starts
 
     Reading input from pw-si-73.in
Warning: card &CELL ignored
Warning: card / ignored

     Current dimensions of program PWSCF are:
     Max number of different atomic species (ntypx) = 10
     Max number of k-points (npk) =  40000
     Max angular momentum in pseudopotentials (lmaxx) =  4

     IMPORTANT: XC functional enforced from input :
     Exchange-correlation= PBE
                           (   1   4   3   4   0   0   0)
     Any further DFT definition will be discarded
     Please, verify this is what you really want


     gamma-point specific algorithms are used
 
     K-points division:     npool     =       2
     R & G space division:  proc/nbgrp/npool/nimage =       2
     Subspace diagonalization in iterative solution of the eigenvalue problem:
     a serial algorithm will be used

     Message from routine divide_et_impera:
     suboptimal parallelization: some nodes have no k-points
 
     Parallelization info
     --------------------
     sticks:   dense  smooth     PW     G-vecs:    dense   smooth      PW
     Min        1904    1904    502                88752    88752   12054
     Max        1905    1905    503                88757    88757   12057
     Sum        3809    3809   1005               177509   177509   24111
 
     Using Slab Decomposition
 


     bravais-lattice index     =            0
     lattice parameter (alat)  =      19.9907  a.u.
     unit-cell volume          =    7988.9025 (a.u.)^3
     number of atoms/cell      =           64
     number of atomic types    =            1
     number of electrons       =       256.00
     number of Kohn-Sham states=          154
     kinetic-energy cutoff     =      30.0000  Ry
     charge density cutoff     =     120.0000  Ry
     scf convergence threshold =      1.0E-06
     mixing beta               =       0.5000
     number of iterations used =            8  plain     mixing
     Exchange-correlation= PBE
                           (   1   4   3   4   0   0   0)

     GPU acceleration is ACTIVE.
     GPU-aware MPI enabled

     Message from routine print_cuda_info:
     High GPU oversubscription detected. Are you sure this is what you want?

     celldm(1)=  19.990748  celldm(2)=   0.000000  celldm(3)=   0.000000
     celldm(4)=   0.000000  celldm(5)=   0.000000  celldm(6)=   0.000000

     crystal axes: (cart. coord. in units of alat)
               a(1) = (   1.000000   0.000000   0.000000 )  
               a(2) = (   0.000000   1.000000   0.000000 )  
               a(3) = (   0.000000   0.000000   1.000000 )  

     reciprocal axes: (cart. coord. in units 2 pi/alat)
               b(1) = (  1.000000  0.000000  0.000000 )  
               b(2) = (  0.000000  1.000000  0.000000 )  
               b(3) = (  0.000000  0.000000  1.000000 )  


     PseudoPot. # 1 for Si read from file:
     /home/ppiaggi/pseudos/Si_ONCV_PBE_sr.upf
     MD5 check sum: 8553c464762ac42b85b1eed164b4d029
     Pseudo is Norm-conserving, Zval =  4.0
     Generated using ONCVPSP code by D. R. Hamann
     Using radial grid of 1510 points,  4 beta functions with: 
                l(1) =   0
                l(2) =   0
                l(3) =   1
                l(4) =   1

     atomic species   valence    mass     pseudopotential
        Si             4.00    28.08500     Si( 1.00)

     No symmetry found



   Cartesian axes

     site n.     atom                  positions (alat units)
         1           Si  tau(   1) = (   0.8633500   0.7363530   0.6644830  )
         2           Si  tau(   2) = (   0.5734890   0.6387110   0.4507350  )
         3           Si  tau(   3) = (   0.0511944   0.5766110   0.8183660  )
         4           Si  tau(   4) = (   0.6241490   0.8264560   0.6567190  )
         5           Si  tau(   5) = (   0.5764130   0.6667400   0.1553820  )
         6           Si  tau(   6) = (   0.7547250   0.5485780   0.5451460  )
         7           Si  tau(   7) = (   0.8610240   0.4620140   0.7403760  )
         8           Si  tau(   8) = (   0.4779390   0.4443720   0.5570110  )
         9           Si  tau(   9) = (   0.1358030   0.5793350   0.0501564  )
        10           Si  tau(  10) = (   0.1947230   0.9065360   0.0394003  )
        11           Si  tau(  11) = (   0.2458470   0.2740660   0.5212300  )
        12           Si  tau(  12) = (   0.8468230   0.5499560   0.9990470  )
        13           Si  tau(  13) = (   0.5697620   0.4113550   0.7765270  )
        14           Si  tau(  14) = (   0.1312880   0.1329730   0.0263505  )
        15           Si  tau(  15) = (   0.1130850   0.7549140   0.2173700  )
        16           Si  tau(  16) = (   0.9182790   0.5009760   0.3457170  )
        17           Si  tau(  17) = (   0.2670790   0.2302980   0.1789910  )
        18           Si  tau(  18) = (   0.5360730   0.8572060   0.9737510  )
        19           Si  tau(  19) = (   0.4490960   0.1718450   0.4740150  )
        20           Si  tau(  20) = (   0.3646020   0.7046860   0.5849300  )
        21           Si  tau(  21) = (   0.9179590   0.8799000   0.9784120  )
        22           Si  tau(  22) = (   0.1753200   0.9145730   0.6577780  )
        23           Si  tau(  23) = (   0.7253760   0.0831788   0.5132520  )
        24           Si  tau(  24) = (   0.3374810   0.6764240   0.8783240  )
        25           Si  tau(  25) = (   0.6834040   0.0423587   0.7907120  )
        26           Si  tau(  26) = (   0.3783580   0.0389679   0.9644920  )
        27           Si  tau(  27) = (   0.9875500   0.2255660   0.7398960  )
        28           Si  tau(  28) = (   0.9025670   0.0220745   0.8118430  )
        29           Si  tau(  29) = (   0.2402580   0.4822590   0.4076310  )
        30           Si  tau(  30) = (   0.6861110   0.1805940   0.0273091  )
        31           Si  tau(  31) = (   0.7183660   0.2585110   0.7809640  )
        32           Si  tau(  32) = (   0.8966010   0.1261930   0.1068300  )
        33           Si  tau(  33) = (   0.9376850   0.9434420   0.6028780  )
        34           Si  tau(  34) = (   0.0145864   0.0245911   0.3873030  )
        35           Si  tau(  35) = (   0.4952930   0.3444630   0.2747050  )
        36           Si  tau(  36) = (   0.5898580   0.5863770   0.9394170  )
        37           Si  tau(  37) = (   0.6211770   0.8768910   0.4136290  )
        38           Si  tau(  38) = (   0.3871250   0.3084200   0.8732590  )
        39           Si  tau(  39) = (   0.1274770   0.5913720   0.5667390  )
        40           Si  tau(  40) = (   0.4135020   0.5397560   0.2698530  )
        41           Si  tau(  41) = (   0.1043560   0.4116650   0.2548950  )
        42           Si  tau(  42) = (   0.6591820   0.9613690   0.1691810  )
        43           Si  tau(  43) = (   0.3355130   0.4633110   0.0505387  )
        44           Si  tau(  44) = (   0.9476960   0.3582060   0.1013820  )
        45           Si  tau(  45) = (   0.4156040   0.9024000   0.7571280  )
        46           Si  tau(  46) = (   0.2263900   0.8311900   0.4035700  )
        47           Si  tau(  47) = (   0.2132480   0.1134000   0.3699850  )
        48           Si  tau(  48) = (   0.2106600   0.1429590   0.7413380  )
        49           Si  tau(  49) = (   0.3783530   0.8300030   0.1592730  )
        50           Si  tau(  50) = (   0.7486340   0.7567490   0.8765280  )
        51           Si  tau(  51) = (   0.8927110   0.8904470   0.2117390  )
        52           Si  tau(  52) = (   0.7961560   0.6778060   0.2362890  )
        53           Si  tau(  53) = (   0.9801770   0.2868400   0.4908580  )
        54           Si  tau(  54) = (   0.9734490   0.7107960   0.4422100  )
        55           Si  tau(  55) = (   0.6731910   0.3994930   0.0982454  )
        56           Si  tau(  56) = (   0.7559470   0.3569710   0.3065530  )
        57           Si  tau(  57) = (   0.4580100   0.1104330   0.6899570  )
        58           Si  tau(  58) = (   0.1173930   0.8003990   0.8401270  )
        59           Si  tau(  59) = (   0.8316760   0.1537500   0.3388570  )
        60           Si  tau(  60) = (   0.4199590   0.9631610   0.3560590  )
        61           Si  tau(  61) = (   0.4620180   0.1356660   0.1652200  )
        62           Si  tau(  62) = (   0.6816010   0.2947670   0.5610330  )
        63           Si  tau(  63) = (   0.2690890   0.4534880   0.7257740  )
        64           Si  tau(  64) = (   0.0904156   0.3337580   0.9102260  )

     number of k points=     1  Fermi-Dirac smearing, width (Ry)=  0.0100
                       cart. coord. in units 2pi/alat
        k(    1) = (   0.0000000   0.0000000   0.0000000), wk =   2.0000000

     Dense  grid:    88755 G-vectors     FFT dimensions: (  72,  72,  72)

     Estimated max dynamical RAM per process >     142.70 MB

     Estimated total dynamical RAM >     549.14 MB

     Initial potential from superposition of free atoms

     starting charge     255.9608, renormalised to     256.0000
     Starting wfcs are  256 randomized atomic wfcs

     total cpu time spent up to now is        5.0 secs

     Self-consistent Calculation

     iteration #  1     ecut=    30.00 Ry     beta= 0.50
     Davidson diagonalization with overlap
     ethr =  1.00E-02,  avg # of iterations =  3.0

     Threshold (ethr) on eigenvalues was too large:
     Diagonalizing with lowered threshold

     Davidson diagonalization with overlap
     ethr =  3.98E-04,  avg # of iterations =  5.0

     total cpu time spent up to now is        5.3 secs

     total energy              =    -501.10124647 Ry
     estimated scf accuracy    <       1.22233783 Ry

     iteration #  2     ecut=    30.00 Ry     beta= 0.50
     Davidson diagonalization with overlap
     ethr =  4.77E-04,  avg # of iterations =  4.0

     total cpu time spent up to now is        5.4 secs

     total energy              =    -500.54280901 Ry
     estimated scf accuracy    <       7.15590842 Ry

     iteration #  3     ecut=    30.00 Ry     beta= 0.50
     Davidson diagonalization with overlap
     ethr =  4.77E-04,  avg # of iterations =  4.0

     total cpu time spent up to now is        5.5 secs

     total energy              =    -501.22110673 Ry
     estimated scf accuracy    <       1.80664633 Ry

     iteration #  4     ecut=    30.00 Ry     beta= 0.50
     Davidson diagonalization with overlap
     ethr =  4.77E-04,  avg # of iterations =  2.0

     total cpu time spent up to now is        5.6 secs

     total energy              =    -501.34707821 Ry
     estimated scf accuracy    <       0.40923963 Ry

     iteration #  5     ecut=    30.00 Ry     beta= 0.50
     Davidson diagonalization with overlap
     ethr =  1.60E-04,  avg # of iterations =  2.0

     total cpu time spent up to now is        5.7 secs

     total energy              =    -501.37429676 Ry
     estimated scf accuracy    <       0.21204802 Ry

     iteration #  6     ecut=    30.00 Ry     beta= 0.50
     Davidson diagonalization with overlap
     ethr =  8.28E-05,  avg # of iterations =  2.0

     total cpu time spent up to now is        5.8 secs

     total energy              =    -501.39258863 Ry
     estimated scf accuracy    <       0.16742948 Ry

     iteration #  7     ecut=    30.00 Ry     beta= 0.50
     Davidson diagonalization with overlap
     ethr =  6.54E-05,  avg # of iterations =  1.0

     total cpu time spent up to now is        5.9 secs

     total energy              =    -501.40609694 Ry
     estimated scf accuracy    <       0.00749156 Ry

     iteration #  8     ecut=    30.00 Ry     beta= 0.50
     Davidson diagonalization with overlap
     ethr =  2.93E-06,  avg # of iterations = 11.0

     total cpu time spent up to now is        6.1 secs

     total energy              =    -501.40706851 Ry
     estimated scf accuracy    <       0.01614503 Ry

     iteration #  9     ecut=    30.00 Ry     beta= 0.50
     Davidson diagonalization with overlap
     ethr =  2.93E-06,  avg # of iterations =  3.0

     total cpu time spent up to now is        6.2 secs

     total energy              =    -501.40840443 Ry
     estimated scf accuracy    <       0.00442563 Ry

     iteration # 10     ecut=    30.00 Ry     beta= 0.50
     Davidson diagonalization with overlap
     ethr =  1.73E-06,  avg # of iterations =  2.0

     total cpu time spent up to now is        6.3 secs

     total energy              =    -501.40871047 Ry
     estimated scf accuracy    <       0.00085614 Ry

     iteration # 11     ecut=    30.00 Ry     beta= 0.50
     Davidson diagonalization with overlap
     ethr =  3.34E-07,  avg # of iterations =  2.0

     total cpu time spent up to now is        6.4 secs

     total energy              =    -501.40875251 Ry
     estimated scf accuracy    <       0.00062476 Ry

     iteration # 12     ecut=    30.00 Ry     beta= 0.50
     Davidson diagonalization with overlap
     ethr =  2.44E-07,  avg # of iterations =  2.0

     total cpu time spent up to now is        6.5 secs

     total energy              =    -501.40881270 Ry
     estimated scf accuracy    <       0.00041311 Ry

     iteration # 13     ecut=    30.00 Ry     beta= 0.50
     Davidson diagonalization with overlap
     ethr =  1.61E-07,  avg # of iterations =  1.0

     total cpu time spent up to now is        6.6 secs

     total energy              =    -501.40884283 Ry
     estimated scf accuracy    <       0.00006526 Ry

     iteration # 14     ecut=    30.00 Ry     beta= 0.50
     Davidson diagonalization with overlap
     ethr =  2.55E-08,  avg # of iterations =  2.0

     total cpu time spent up to now is        6.7 secs

     total energy              =    -501.40884971 Ry
     estimated scf accuracy    <       0.00002914 Ry

     iteration # 15     ecut=    30.00 Ry     beta= 0.50
     Davidson diagonalization with overlap
     ethr =  1.14E-08,  avg # of iterations =  2.0

     total cpu time spent up to now is        6.7 secs

     total energy              =    -501.40885021 Ry
     estimated scf accuracy    <       0.00001243 Ry

     iteration # 16     ecut=    30.00 Ry     beta= 0.50
     Davidson diagonalization with overlap
     ethr =  4.85E-09,  avg # of iterations =  2.0

     total cpu time spent up to now is        6.8 secs

     total energy              =    -501.40885211 Ry
     estimated scf accuracy    <       0.00000686 Ry

     iteration # 17     ecut=    30.00 Ry     beta= 0.50
     Davidson diagonalization with overlap
     ethr =  2.68E-09,  avg # of iterations =  1.0

     total cpu time spent up to now is        6.9 secs

     total energy              =    -501.40885244 Ry
     estimated scf accuracy    <       0.00000129 Ry

     iteration # 18     ecut=    30.00 Ry     beta= 0.50
     Davidson diagonalization with overlap
     ethr =  5.02E-10,  avg # of iterations =  2.0

     total cpu time spent up to now is        7.0 secs

     End of self-consistent calculation

          k = 0.0000 0.0000 0.0000 ( 11060 PWs)   bands (ev):

    -5.1869  -4.1927  -4.1724  -4.0412  -3.9098  -3.8638  -3.7904  -3.2021
    -3.0834  -2.9892  -2.9492  -2.8431  -2.7568  -2.6580  -2.6275  -2.5518
    -2.5182  -2.4343  -2.3117  -1.9712  -1.8081  -1.7188  -1.5707  -1.4167
    -1.3608  -1.3133  -1.0627  -0.7575  -0.5930  -0.3632  -0.2865  -0.0889
    -0.0111   0.1379   0.2255   0.3125   0.3690   0.4085   0.5287   0.6075
     0.6347   0.7199   0.7633   0.8074   0.8599   0.9577   1.0408   1.1892
     1.2026   1.3350   1.4464   1.5181   1.5904   1.6473   1.6963   1.7903
     1.9169   1.9743   2.1378   2.2804   2.2873   2.4563   2.5952   2.6938
     2.6969   2.7907   2.8659   2.9223   2.9783   3.0427   3.1048   3.1492
     3.2616   3.2848   3.4360   3.4794   3.5037   3.5884   3.6810   3.8344
     4.0101   4.3365   4.4830   4.4932   4.6728   4.7282   4.8285   4.9085
     5.0881   5.1866   5.1952   5.2614   5.2987   5.3544   5.4874   5.5180
     5.5857   5.6300   5.6444   5.7633   5.7904   5.8367   5.8571   5.9484
     5.9826   6.0583   6.1093   6.2159   6.2773   6.3057   6.3383   6.4908
     6.5153   6.5885   6.5936   6.6287   6.6662   6.7040   6.7423   6.8172
     6.8811   6.9294   6.9707   7.0795   7.0990   7.1349   7.2486   7.3061
     7.3791   7.4427   7.5153   7.5602   7.6232   7.6828   7.7289   7.7637
     7.8543   7.8708   8.0032   8.0407   8.0772   8.0924   8.1862   8.2236
     8.3246   8.3902   8.4848   8.5179   8.6960   8.7200   8.7465   8.8364
     8.8698   8.9052

     the Fermi energy is     7.3375 ev

!    total energy              =    -501.40885209 Ry
     estimated scf accuracy    <       0.00000062 Ry
     smearing contrib. (-TS)   =      -0.14440437 Ry
     internal energy E=F+TS    =    -501.26444772 Ry

     The total energy is F=E-TS. E is the sum of the following terms:
     one-electron contribution =     202.72354224 Ry
     hartree contribution      =      18.94201130 Ry
     xc contribution           =    -150.86459683 Ry
     ewald contribution        =    -572.06540443 Ry

     convergence has been achieved in  18 iterations

     Forces acting on atoms (cartesian axes, Ry/au):

     atom    1 type  1   force =    -0.02409332   -0.01873530   -0.01500044
     atom    2 type  1   force =    -0.04342228    0.02168088   -0.01071917
     atom    3 type  1   force =     0.01028774   -0.00616131   -0.01070369
     atom    4 type  1   force =     0.00723055    0.01279066    0.00961429
     atom    5 type  1   force =    -0.01744035    0.01757012   -0.00116379
     atom    6 type  1   force =     0.04063961   -0.00270766    0.01571299
     atom    7 type  1   force =     0.00381214   -0.02688133    0.00432385
     atom    8 type  1   force =     0.00024121   -0.01472062    0.02772515
     atom    9 type  1   force =    -0.00248384   -0.00176297    0.02867226
     atom   10 type  1   force =     0.00093619    0.00780689   -0.01567919
     atom   11 type  1   force =     0.00381408    0.03771523    0.03775428
     atom   12 type  1   force =    -0.00548236   -0.00541212    0.00033458
     atom   13 type  1   force =    -0.05539071    0.04261158   -0.00279594
     atom   14 type  1   force =    -0.01041358   -0.00511949   -0.00474771
     atom   15 type  1   force =    -0.00925964   -0.00106930   -0.00789152
     atom   16 type  1   force =    -0.02143087    0.02847564    0.02993629
     atom   17 type  1   force =    -0.05589527    0.02852207    0.01324968
     atom   18 type  1   force =     0.00210023    0.00164285    0.00808051
     atom   19 type  1   force =     0.02291956    0.03517703   -0.01376907
     atom   20 type  1   force =    -0.01713846   -0.00104955    0.00253028
     atom   21 type  1   force =     0.00844137   -0.01308492   -0.00787712
     atom   22 type  1   force =    -0.00426430    0.02774460   -0.01845337
     atom   23 type  1   force =    -0.00732074   -0.07365910    0.02121949
     atom   24 type  1   force =    -0.00798356   -0.00525720   -0.01462475
     atom   25 type  1   force =    -0.03714779   -0.03089769   -0.00031017
     atom   26 type  1   force =    -0.00374019   -0.01579143    0.00846106
     atom   27 type  1   force =     0.00550324    0.00520342   -0.00875680
     atom   28 type  1   force =     0.00262871    0.03635085   -0.00384180
     atom   29 type  1   force =     0.01573932   -0.01389077    0.01617531
     atom   30 type  1   force =     0.00686864   -0.01643476   -0.03183118
     atom   31 type  1   force =     0.04583897    0.00473321    0.01004263
     atom   32 type  1   force =     0.00942047    0.00620172    0.00922780
     atom   33 type  1   force =     0.02373113    0.00990125   -0.02424439
     atom   34 type  1   force =    -0.02710542   -0.02655238    0.00921050
     atom   35 type  1   force =     0.04307461   -0.07766681    0.01398706
     atom   36 type  1   force =    -0.00732466    0.00322262   -0.00315676
     atom   37 type  1   force =     0.00066047    0.00809213    0.00245277
     atom   38 type  1   force =    -0.01912072   -0.00293644    0.00067552
     atom   39 type  1   force =     0.02456907    0.00549070    0.03072678
     atom   40 type  1   force =     0.00767322    0.04218902   -0.00618526
     atom   41 type  1   force =     0.00972607   -0.00361528   -0.04473697
     atom   42 type  1   force =     0.01035551    0.01814255    0.01425580
     atom   43 type  1   force =    -0.00154370   -0.00953387    0.00535892
     atom   44 type  1   force =     0.00147826   -0.00152631   -0.02283885
     atom   45 type  1   force =    -0.00981466   -0.03356819    0.00198527
     atom   46 type  1   force =     0.01426837    0.01465705    0.03365804
     atom   47 type  1   force =     0.01958180   -0.02644987   -0.03390235
     atom   48 type  1   force =     0.00654016   -0.00008999   -0.02195292
     atom   49 type  1   force =     0.02136639   -0.00060305   -0.01132280
     atom   50 type  1   force =    -0.00206156   -0.00298869   -0.00202290
     atom   51 type  1   force =     0.00191426   -0.01672856   -0.00880270
     atom   52 type  1   force =     0.00219347   -0.00493756    0.00162776
     atom   53 type  1   force =     0.00674349   -0.00110957    0.00599698
     atom   54 type  1   force =    -0.00566928   -0.00780320   -0.00792576
     atom   55 type  1   force =     0.00193608    0.00028622   -0.00642424
     atom   56 type  1   force =    -0.02618117   -0.00359932    0.01946061
     atom   57 type  1   force =     0.00390763    0.01040022    0.01459324
     atom   58 type  1   force =     0.00646430   -0.01585102    0.04041970
     atom   59 type  1   force =     0.03925448    0.01479499   -0.03817108
     atom   60 type  1   force =    -0.02748556    0.00654309   -0.02282344
     atom   61 type  1   force =     0.05306769   -0.02572028    0.00386225
     atom   62 type  1   force =    -0.03401686    0.03496795   -0.01737662
     atom   63 type  1   force =     0.00113688    0.02047269   -0.00451108
     atom   64 type  1   force =    -0.00283455    0.01052867    0.00323217

     Total force =     0.286824     Total SCF correction =     0.001608


     Computing stress (Cartesian axis) and pressure

          total   stress  (Ry/bohr**3)                   (kbar)     P=      -35.97
  -0.00023643  -0.00004400  -0.00000085          -34.78       -6.47       -0.12
  -0.00004400  -0.00019774   0.00006341           -6.47      -29.09        9.33
  -0.00000085   0.00006341  -0.00029933           -0.12        9.33      -44.03

 
     init_run     :      1.12s CPU      4.94s WALL (       1 calls)
     electrons    :      1.85s CPU      2.01s WALL (       1 calls)
     forces       :      0.04s CPU      0.04s WALL (       1 calls)
     stress       :      0.15s CPU      0.15s WALL (       1 calls)

     Called by init_run:
     wfcinit      :      0.58s CPU      4.22s WALL (       1 calls)
                                        4.22s GPU  (       1 calls)
     potinit      :      0.06s CPU      0.15s WALL (       1 calls)
     hinit0       :      0.46s CPU      0.50s WALL (       1 calls)

     Called by electrons:
     c_bands      :      1.08s CPU      1.15s WALL (      19 calls)
     sum_band     :      0.38s CPU      0.43s WALL (      19 calls)
     v_of_rho     :      0.18s CPU      0.29s WALL (      19 calls)
     mix_rho      :      0.18s CPU      0.19s WALL (      19 calls)

     Called by c_bands:
     init_us_2    :      0.07s CPU      0.07s WALL (      39 calls)
     init_us_2:gp :      0.07s CPU      0.07s WALL (      39 calls)
     regterg      :      0.91s CPU      0.98s WALL (      19 calls)

     Called by *egterg:
     rdiaghg      :      0.38s CPU      1.12s WALL (      71 calls)
                                        1.11s GPU  (      71 calls)
     h_psi        :      0.95s CPU      3.89s WALL (      73 calls)
                                        3.89s GPU  (      73 calls)
     g_psi        :      0.00s CPU      0.00s WALL (      53 calls)
                                        0.00s GPU  (      53 calls)

     Called by h_psi:
     h_psi:calbec :      0.53s CPU      3.39s WALL (      73 calls)
                                        3.39s GPU  (      73 calls)
     vloc_psi     :      0.37s CPU      0.44s WALL (      73 calls)
                                        0.44s GPU  (      73 calls)
     add_vuspsi   :      0.03s CPU      0.04s WALL (      73 calls)
                                        0.04s GPU  (      73 calls)

     General routines
     calbec       :      0.54s CPU      3.40s WALL (      78 calls)
     fft          :      0.62s CPU      0.76s WALL (     159 calls)
                                        0.14s GPU  (     101 calls)
     ffts         :      0.05s CPU      0.05s WALL (      19 calls)
     fftw         :      0.46s CPU      0.61s WALL (    1977 calls)
                                        0.53s GPU  (    1977 calls)
 
     Parallel routines
 
     PWSCF        :      3.20s CPU      7.23s WALL

 
   This run was terminated on:  11: 5:57  10May2023            

=------------------------------------------------------------------------------=
   JOB DONE.
=------------------------------------------------------------------------------=
