An instance of this daemon is already running
An instance of this daemon is already running
An instance of this daemon is already running

     Program PWSCF v.7.1 starts on 10May2023 at 10:54:20 

     This program is part of the open-source Quantum ESPRESSO suite
     for quantum simulation of materials; please cite
         "P. Giannozzi et al., J. Phys.:Condens. Matter 21 395502 (2009);
         "P. Giannozzi et al., J. Phys.:Condens. Matter 29 465901 (2017);
         "P. Giannozzi et al., J. Chem. Phys. 152 154105 (2020);
          URL http://www.quantum-espresso.org", 
     in publications or presentations arising from this work. More details at
     http://www.quantum-espresso.org/quote

     Parallel version (MPI & OpenMP), running on       4 processor cores
     Number of MPI processes:                 4
     Threads/MPI process:                     1

     MPI processes distributed on     1 nodes
     753556 MiB available memory on the printing compute node when the environment starts
 
     Reading input from pw-si-2.in
Warning: card &CELL ignored
Warning: card / ignored

     Current dimensions of program PWSCF are:
     Max number of different atomic species (ntypx) = 10
     Max number of k-points (npk) =  40000
     Max angular momentum in pseudopotentials (lmaxx) =  4

     IMPORTANT: XC functional enforced from input :
     Exchange-correlation= PBE
                           (   1   4   3   4   0   0   0)
     Any further DFT definition will be discarded
     Please, verify this is what you really want


     gamma-point specific algorithms are used
 
     K-points division:     npool     =       2
     R & G space division:  proc/nbgrp/npool/nimage =       2
     Subspace diagonalization in iterative solution of the eigenvalue problem:
     a serial algorithm will be used

     Message from routine divide_et_impera:
     suboptimal parallelization: some nodes have no k-points
 
     Parallelization info
     --------------------
     sticks:   dense  smooth     PW     G-vecs:    dense   smooth      PW
     Min        1992    1992    524                93875    93875   12765
     Max        1993    1993    525                93876    93876   12768
     Sum        3985    3985   1049               187751   187751   25533
 
     Using Slab Decomposition
 


     bravais-lattice index     =            0
     lattice parameter (alat)  =      20.3683  a.u.
     unit-cell volume          =    8450.1279 (a.u.)^3
     number of atoms/cell      =           64
     number of atomic types    =            1
     number of electrons       =       256.00
     number of Kohn-Sham states=          154
     kinetic-energy cutoff     =      30.0000  Ry
     charge density cutoff     =     120.0000  Ry
     scf convergence threshold =      1.0E-06
     mixing beta               =       0.5000
     number of iterations used =            8  plain     mixing
     Exchange-correlation= PBE
                           (   1   4   3   4   0   0   0)

     GPU acceleration is ACTIVE.
     GPU-aware MPI enabled

     Message from routine print_cuda_info:
     High GPU oversubscription detected. Are you sure this is what you want?

     celldm(1)=  20.368283  celldm(2)=   0.000000  celldm(3)=   0.000000
     celldm(4)=   0.000000  celldm(5)=   0.000000  celldm(6)=   0.000000

     crystal axes: (cart. coord. in units of alat)
               a(1) = (   1.000000   0.000000   0.000000 )  
               a(2) = (   0.000000   1.000000   0.000000 )  
               a(3) = (   0.000000   0.000000   1.000000 )  

     reciprocal axes: (cart. coord. in units 2 pi/alat)
               b(1) = (  1.000000  0.000000  0.000000 )  
               b(2) = (  0.000000  1.000000  0.000000 )  
               b(3) = (  0.000000  0.000000  1.000000 )  


     PseudoPot. # 1 for Si read from file:
     /home/ppiaggi/pseudos/Si_ONCV_PBE_sr.upf
     MD5 check sum: 8553c464762ac42b85b1eed164b4d029
     Pseudo is Norm-conserving, Zval =  4.0
     Generated using ONCVPSP code by D. R. Hamann
     Using radial grid of 1510 points,  4 beta functions with: 
                l(1) =   0
                l(2) =   0
                l(3) =   1
                l(4) =   1

     atomic species   valence    mass     pseudopotential
        Si             4.00    28.08500     Si( 1.00)

     No symmetry found



   Cartesian axes

     site n.     atom                  positions (alat units)
         1           Si  tau(   1) = (   0.1107010   0.4958410   0.4812310  )
         2           Si  tau(   2) = (   0.9974580   0.3976070   0.6782290  )
         3           Si  tau(   3) = (   0.6932270   0.8564250   0.1703540  )
         4           Si  tau(   4) = (   0.0240811   0.0075252   0.7348460  )
         5           Si  tau(   5) = (   0.8802420   0.3517460   0.2930190  )
         6           Si  tau(   6) = (   0.6246030   0.5949380   0.8333010  )
         7           Si  tau(   7) = (   0.4872320   0.9032630   0.8634120  )
         8           Si  tau(   8) = (   0.5201700   0.3650820   0.6070560  )
         9           Si  tau(   9) = (   0.6987960   0.0354767   0.9890360  )
        10           Si  tau(  10) = (   0.7801150   0.7475790   0.9881530  )
        11           Si  tau(  11) = (   0.4195940   0.7334120   0.3784510  )
        12           Si  tau(  12) = (   0.5650590   0.4953940   0.0015456  )
        13           Si  tau(  13) = (   0.3367340   0.4819700   0.4055440  )
        14           Si  tau(  14) = (   0.6950080   0.5470160   0.1900430  )
        15           Si  tau(  15) = (   0.3199690   0.7017200   0.5921790  )
        16           Si  tau(  16) = (   0.0964063   0.6253370   0.7021170  )
        17           Si  tau(  17) = (   0.9099620   0.5942100   0.1354470  )
        18           Si  tau(  18) = (   0.6342830   0.7073770   0.3130760  )
        19           Si  tau(  19) = (   0.3412230   0.9365830   0.6084730  )
        20           Si  tau(  20) = (   0.0781215   0.2248340   0.7708380  )
        21           Si  tau(  21) = (   0.8300390   0.8060380   0.5946530  )
        22           Si  tau(  22) = (   0.0298128   0.0115002   0.0731859  )
        23           Si  tau(  23) = (   0.3146020   0.8883200   0.2332260  )
        24           Si  tau(  24) = (   0.5723220   0.8761660   0.5176110  )
        25           Si  tau(  25) = (   0.3907060   0.5360260   0.7486400  )
        26           Si  tau(  26) = (   0.7423020   0.2815600   0.8414490  )
        27           Si  tau(  27) = (   0.5492070   0.2918780   0.9609100  )
        28           Si  tau(  28) = (   0.7206830   0.3636620   0.4362940  )
        29           Si  tau(  29) = (   0.2771000   0.0768976   0.0337478  )
        30           Si  tau(  30) = (   0.7162640   0.4417940   0.6996960  )
        31           Si  tau(  31) = (   0.9593920   0.6162590   0.3787810  )
        32           Si  tau(  32) = (   0.0706962   0.1279210   0.5268240  )
        33           Si  tau(  33) = (   0.5765730   0.7828030   0.7265460  )
        34           Si  tau(  34) = (   0.4416540   0.1460850   0.4516780  )
        35           Si  tau(  35) = (   0.0527584   0.8926890   0.3785920  )
        36           Si  tau(  36) = (   0.3986570   0.3103500   0.3199530  )
        37           Si  tau(  37) = (   0.4681780   0.1567950   0.6784040  )
        38           Si  tau(  38) = (   0.3674660   0.6050240   0.0016325  )
        39           Si  tau(  39) = (   0.5902410   0.3245690   0.2353770  )
        40           Si  tau(  40) = (   0.2010780   0.4255500   0.8680230  )
        41           Si  tau(  41) = (   0.8164900   0.9027800   0.8080590  )
        42           Si  tau(  42) = (   0.1480590   0.7097510   0.2351510  )
        43           Si  tau(  43) = (   0.6010380   0.0467946   0.3319300  )
        44           Si  tau(  44) = (   0.7546440   0.5911620   0.4813150  )
        45           Si  tau(  45) = (   0.2058430   0.7100250   0.8794710  )
        46           Si  tau(  46) = (   0.9029940   0.5070950   0.8652020  )
        47           Si  tau(  47) = (   0.2547010   0.0422624   0.3802090  )
        48           Si  tau(  48) = (   0.2513670   0.9127810   0.8347810  )
        49           Si  tau(  49) = (   0.0667324   0.2924580   0.3585650  )
        50           Si  tau(  50) = (   0.0800880   0.8154140   0.5870930  )
        51           Si  tau(  51) = (   0.0341651   0.8012220   0.0298498  )
        52           Si  tau(  52) = (   0.8810450   0.9848150   0.2424740  )
        53           Si  tau(  53) = (   0.9537910   0.3755660   0.0441314  )
        54           Si  tau(  54) = (   0.5094620   0.1164030   0.1128950  )
        55           Si  tau(  55) = (   0.6598340   0.0786621   0.7406590  )
        56           Si  tau(  56) = (   0.7830840   0.1693080   0.2007600  )
        57           Si  tau(  57) = (   0.1506540   0.3933530   0.0834151  )
        58           Si  tau(  58) = (   0.8585670   0.1981050   0.6039180  )
        59           Si  tau(  59) = (   0.7773110   0.0060891   0.4953850  )
        60           Si  tau(  60) = (   0.3422020   0.2236790   0.8612780  )
        61           Si  tau(  61) = (   0.2779050   0.5469100   0.1862040  )
        62           Si  tau(  62) = (   0.4683870   0.8382210   0.0662693  )
        63           Si  tau(  63) = (   0.2320820   0.2321540   0.1947680  )
        64           Si  tau(  64) = (   0.9390660   0.1986810   0.9525400  )

     number of k points=     1  Fermi-Dirac smearing, width (Ry)=  0.0100
                       cart. coord. in units 2pi/alat
        k(    1) = (   0.0000000   0.0000000   0.0000000), wk =   2.0000000

     Dense  grid:    93876 G-vectors     FFT dimensions: (  72,  72,  72)

     Estimated max dynamical RAM per process >     150.03 MB

     Estimated total dynamical RAM >     577.19 MB

     Initial potential from superposition of free atoms

     starting charge     255.9608, renormalised to     256.0000
     Starting wfcs are  256 randomized atomic wfcs

     total cpu time spent up to now is        5.0 secs

     Self-consistent Calculation

     iteration #  1     ecut=    30.00 Ry     beta= 0.50
     Davidson diagonalization with overlap
     ethr =  1.00E-02,  avg # of iterations =  3.0

     Threshold (ethr) on eigenvalues was too large:
     Diagonalizing with lowered threshold

     Davidson diagonalization with overlap
     ethr =  4.66E-04,  avg # of iterations =  4.0

     total cpu time spent up to now is        5.3 secs

     total energy              =    -501.14259500 Ry
     estimated scf accuracy    <       1.44073492 Ry

     iteration #  2     ecut=    30.00 Ry     beta= 0.50
     Davidson diagonalization with overlap
     ethr =  5.63E-04,  avg # of iterations =  4.0

     total cpu time spent up to now is        5.4 secs

     total energy              =    -500.43510255 Ry
     estimated scf accuracy    <       8.94385756 Ry

     iteration #  3     ecut=    30.00 Ry     beta= 0.50
     Davidson diagonalization with overlap
     ethr =  5.63E-04,  avg # of iterations =  4.0

     total cpu time spent up to now is        5.5 secs

     total energy              =    -501.28651319 Ry
     estimated scf accuracy    <       2.01087842 Ry

     iteration #  4     ecut=    30.00 Ry     beta= 0.50
     Davidson diagonalization with overlap
     ethr =  5.63E-04,  avg # of iterations =  2.0

     total cpu time spent up to now is        5.6 secs

     total energy              =    -501.38457763 Ry
     estimated scf accuracy    <       0.69700325 Ry

     iteration #  5     ecut=    30.00 Ry     beta= 0.50
     Davidson diagonalization with overlap
     ethr =  2.72E-04,  avg # of iterations =  2.0

     total cpu time spent up to now is        5.7 secs

     total energy              =    -501.42267948 Ry
     estimated scf accuracy    <       0.65405332 Ry

     iteration #  6     ecut=    30.00 Ry     beta= 0.50
     Davidson diagonalization with overlap
     ethr =  2.55E-04,  avg # of iterations =  2.0

     total cpu time spent up to now is        5.8 secs

     total energy              =    -501.47631707 Ry
     estimated scf accuracy    <       0.08322514 Ry

     iteration #  7     ecut=    30.00 Ry     beta= 0.50
     Davidson diagonalization with overlap
     ethr =  3.25E-05,  avg # of iterations =  2.0

     total cpu time spent up to now is        5.9 secs

     total energy              =    -501.48652480 Ry
     estimated scf accuracy    <       0.03047114 Ry

     iteration #  8     ecut=    30.00 Ry     beta= 0.50
     Davidson diagonalization with overlap
     ethr =  1.19E-05,  avg # of iterations =  3.0

     total cpu time spent up to now is        6.0 secs

     total energy              =    -501.48964458 Ry
     estimated scf accuracy    <       0.02517520 Ry

     iteration #  9     ecut=    30.00 Ry     beta= 0.50
     Davidson diagonalization with overlap
     ethr =  9.83E-06,  avg # of iterations =  3.0

     total cpu time spent up to now is        6.1 secs

     total energy              =    -501.49153175 Ry
     estimated scf accuracy    <       0.00202510 Ry

     iteration # 10     ecut=    30.00 Ry     beta= 0.50
     Davidson diagonalization with overlap
     ethr =  7.91E-07,  avg # of iterations = 18.0

     total cpu time spent up to now is        6.3 secs

     total energy              =    -501.49169266 Ry
     estimated scf accuracy    <       0.00328259 Ry

     iteration # 11     ecut=    30.00 Ry     beta= 0.50
     Davidson diagonalization with overlap
     ethr =  7.91E-07,  avg # of iterations =  2.0

     total cpu time spent up to now is        6.4 secs

     total energy              =    -501.49194925 Ry
     estimated scf accuracy    <       0.00047667 Ry

     iteration # 12     ecut=    30.00 Ry     beta= 0.50
     Davidson diagonalization with overlap
     ethr =  1.86E-07,  avg # of iterations =  3.0

     total cpu time spent up to now is        6.5 secs

     total energy              =    -501.49200358 Ry
     estimated scf accuracy    <       0.00027666 Ry

     iteration # 13     ecut=    30.00 Ry     beta= 0.50
     Davidson diagonalization with overlap
     ethr =  1.08E-07,  avg # of iterations =  2.0

     total cpu time spent up to now is        6.6 secs

     total energy              =    -501.49202453 Ry
     estimated scf accuracy    <       0.00011332 Ry

     iteration # 14     ecut=    30.00 Ry     beta= 0.50
     Davidson diagonalization with overlap
     ethr =  4.43E-08,  avg # of iterations =  2.0

     total cpu time spent up to now is        6.7 secs

     total energy              =    -501.49203283 Ry
     estimated scf accuracy    <       0.00005393 Ry

     iteration # 15     ecut=    30.00 Ry     beta= 0.50
     Davidson diagonalization with overlap
     ethr =  2.11E-08,  avg # of iterations =  2.0

     total cpu time spent up to now is        6.8 secs

     total energy              =    -501.49203709 Ry
     estimated scf accuracy    <       0.00002240 Ry

     iteration # 16     ecut=    30.00 Ry     beta= 0.50
     Davidson diagonalization with overlap
     ethr =  8.75E-09,  avg # of iterations =  2.0

     total cpu time spent up to now is        6.9 secs

     total energy              =    -501.49203918 Ry
     estimated scf accuracy    <       0.00000707 Ry

     iteration # 17     ecut=    30.00 Ry     beta= 0.50
     Davidson diagonalization with overlap
     ethr =  2.76E-09,  avg # of iterations =  2.0

     total cpu time spent up to now is        7.0 secs

     End of self-consistent calculation

          k = 0.0000 0.0000 0.0000 ( 11792 PWs)   bands (ev):

    -5.5752  -4.7310  -4.6161  -4.4908  -4.4210  -4.3176  -4.1615  -3.7383
    -3.5985  -3.5056  -3.4156  -3.3912  -3.2942  -3.2027  -3.1790  -3.1201
    -2.9596  -2.8415  -2.8154  -2.5838  -2.4045  -2.2746  -2.1542  -2.0109
    -1.8811  -1.7802  -1.5064  -1.2996  -1.2466  -1.1336  -0.9661  -0.7864
    -0.7095  -0.6827  -0.6180  -0.5050  -0.3711  -0.2911  -0.2614  -0.1294
    -0.0584   0.0990   0.2018   0.2835   0.3748   0.4014   0.5074   0.5425
     0.5998   0.7686   0.8239   1.0087   1.0484   1.1721   1.2093   1.3145
     1.3820   1.5319   1.6173   1.6390   1.9049   1.9499   2.0274   2.1724
     2.2389   2.3209   2.3841   2.4029   2.4355   2.6588   2.7282   2.7904
     2.8436   2.8879   2.9679   3.0128   3.1237   3.2071   3.2217   3.3870
     3.4174   3.7078   3.8791   3.9244   3.9493   4.0739   4.1189   4.1825
     4.2078   4.3096   4.4195   4.5246   4.5325   4.6579   4.7284   4.8205
     4.8314   4.8973   4.9226   4.9988   5.0259   5.0641   5.1843   5.2470
     5.3057   5.3365   5.3884   5.4615   5.4705   5.5416   5.6533   5.6915
     5.7205   5.7694   5.8425   5.8930   5.9744   6.0356   6.1005   6.1565
     6.2134   6.2741   6.3725   6.4207   6.4849   6.5376   6.6222   6.6367
     6.7226   6.7609   6.7882   6.8621   6.9139   6.9961   7.0442   7.0951
     7.1803   7.2421   7.2803   7.3741   7.4156   7.5729   7.6055   7.7112
     7.7697   7.8050   7.8919   7.9287   8.0637   8.0957   8.1596   8.2257
     8.2902   8.3277

     the Fermi energy is     6.6752 ev

!    total energy              =    -501.49203947 Ry
     estimated scf accuracy    <       0.00000082 Ry
     smearing contrib. (-TS)   =      -0.15489339 Ry
     internal energy E=F+TS    =    -501.33714607 Ry

     The total energy is F=E-TS. E is the sum of the following terms:
     one-electron contribution =     173.29770091 Ry
     hartree contribution      =      27.62567007 Ry
     xc contribution           =    -150.36918852 Ry
     ewald contribution        =    -551.89132854 Ry

     convergence has been achieved in  17 iterations

     Forces acting on atoms (cartesian axes, Ry/au):

     atom    1 type  1   force =     0.01768441   -0.03347507    0.03014341
     atom    2 type  1   force =    -0.02242889    0.03432842   -0.02110556
     atom    3 type  1   force =     0.00312727    0.03324383   -0.02690253
     atom    4 type  1   force =     0.00740002   -0.01273833   -0.00911729
     atom    5 type  1   force =    -0.01593636    0.01522297   -0.06000110
     atom    6 type  1   force =     0.02814887    0.04037182   -0.06130091
     atom    7 type  1   force =    -0.02534416    0.06518698    0.03718514
     atom    8 type  1   force =     0.00271113    0.02568930    0.00716324
     atom    9 type  1   force =    -0.01951217   -0.00090720    0.00396096
     atom   10 type  1   force =     0.02339754   -0.00033185   -0.01039162
     atom   11 type  1   force =     0.00759411   -0.00568897    0.00760130
     atom   12 type  1   force =    -0.01840604    0.03165060    0.08456304
     atom   13 type  1   force =    -0.03318711    0.09665030    0.02488716
     atom   14 type  1   force =    -0.01578980   -0.06444257   -0.04740291
     atom   15 type  1   force =     0.00214650    0.00592377    0.00967764
     atom   16 type  1   force =     0.01676199   -0.01848204   -0.01171919
     atom   17 type  1   force =    -0.01275918   -0.01720406    0.01937175
     atom   18 type  1   force =    -0.02647507   -0.01146835    0.05054494
     atom   19 type  1   force =     0.00230079   -0.00790320   -0.01170748
     atom   20 type  1   force =     0.02324319   -0.02544007    0.03271959
     atom   21 type  1   force =     0.00417294   -0.00614230    0.00263586
     atom   22 type  1   force =     0.00426384    0.04521487   -0.00809070
     atom   23 type  1   force =     0.00797160   -0.05577980   -0.01020385
     atom   24 type  1   force =    -0.02179625    0.00238465    0.00238616
     atom   25 type  1   force =     0.01603861   -0.00913208   -0.01573533
     atom   26 type  1   force =     0.00910342   -0.06341205    0.02031414
     atom   27 type  1   force =    -0.01156825   -0.05112744   -0.00050732
     atom   28 type  1   force =    -0.02454304    0.00615128    0.02642182
     atom   29 type  1   force =     0.00000284   -0.00773696   -0.02039642
     atom   30 type  1   force =     0.01116404    0.02305990   -0.03530139
     atom   31 type  1   force =    -0.00114624    0.01933245   -0.03116083
     atom   32 type  1   force =    -0.00224990    0.00015536   -0.01207265
     atom   33 type  1   force =     0.02404159   -0.05303895   -0.04671983
     atom   34 type  1   force =     0.00242374   -0.01531195    0.02433567
     atom   35 type  1   force =     0.00661033   -0.00657515   -0.00814044
     atom   36 type  1   force =    -0.00474380   -0.05323847   -0.04148087
     atom   37 type  1   force =    -0.02614291    0.00885494   -0.01187338
     atom   38 type  1   force =     0.01850919    0.03595069   -0.00592552
     atom   39 type  1   force =     0.06197056    0.01300632   -0.00818424
     atom   40 type  1   force =     0.02981313   -0.02805537   -0.03044240
     atom   41 type  1   force =    -0.00708442    0.00670483   -0.00628290
     atom   42 type  1   force =    -0.03745393    0.07285081   -0.01398105
     atom   43 type  1   force =     0.00826484   -0.00574532   -0.01824190
     atom   44 type  1   force =     0.02048456    0.02869761    0.00253458
     atom   45 type  1   force =    -0.02527942   -0.00782170    0.03206121
     atom   46 type  1   force =    -0.01006835   -0.00564251   -0.02058119
     atom   47 type  1   force =    -0.02355284    0.00120538    0.03099402
     atom   48 type  1   force =     0.01686134    0.05535025   -0.01437951
     atom   49 type  1   force =     0.06292049   -0.02346268    0.01647862
     atom   50 type  1   force =    -0.02384086    0.01653326   -0.00634766
     atom   51 type  1   force =     0.01031480   -0.06089148    0.00124287
     atom   52 type  1   force =     0.02313941   -0.04393186    0.02371273
     atom   53 type  1   force =    -0.06992474    0.09788420    0.05739847
     atom   54 type  1   force =     0.01557983    0.00472089   -0.00631921
     atom   55 type  1   force =     0.04307857   -0.00968522    0.02230502
     atom   56 type  1   force =    -0.04828952    0.04376619   -0.00509338
     atom   57 type  1   force =     0.08210297    0.03402741    0.00467925
     atom   58 type  1   force =    -0.00870730    0.00296399   -0.00708628
     atom   59 type  1   force =    -0.00719930   -0.00521779    0.01103585
     atom   60 type  1   force =    -0.00314218    0.01609969    0.00867627
     atom   61 type  1   force =    -0.03262173   -0.02905864    0.02651136
     atom   62 type  1   force =     0.00393267   -0.01856340    0.03125779
     atom   63 type  1   force =    -0.00896778   -0.02859198    0.04432061
     atom   64 type  1   force =    -0.02911954   -0.09693813   -0.05292361

     Total force =     0.424374     Total SCF correction =     0.001569


     Computing stress (Cartesian axis) and pressure

          total   stress  (Ry/bohr**3)                   (kbar)     P=      -33.04
  -0.00031880  -0.00006609   0.00001606          -46.90       -9.72        2.36
  -0.00006609  -0.00008972   0.00005034           -9.72      -13.20        7.41
   0.00001606   0.00005034  -0.00026525            2.36        7.41      -39.02

 
     init_run     :      1.10s CPU      4.95s WALL (       1 calls)
     electrons    :      1.83s CPU      1.97s WALL (       1 calls)
     forces       :      0.04s CPU      0.04s WALL (       1 calls)
     stress       :      0.16s CPU      0.16s WALL (       1 calls)

     Called by init_run:
     wfcinit      :      0.56s CPU      4.22s WALL (       1 calls)
                                        4.22s GPU  (       1 calls)
     potinit      :      0.05s CPU      0.15s WALL (       1 calls)
     hinit0       :      0.46s CPU      0.50s WALL (       1 calls)

     Called by electrons:
     c_bands      :      1.09s CPU      1.15s WALL (      18 calls)
     sum_band     :      0.36s CPU      0.40s WALL (      18 calls)
     v_of_rho     :      0.17s CPU      0.28s WALL (      18 calls)
     mix_rho      :      0.17s CPU      0.19s WALL (      18 calls)

     Called by c_bands:
     init_us_2    :      0.06s CPU      0.07s WALL (      37 calls)
     init_us_2:gp :      0.06s CPU      0.07s WALL (      37 calls)
     regterg      :      0.94s CPU      1.00s WALL (      18 calls)

     Called by *egterg:
     rdiaghg      :      0.40s CPU      1.15s WALL (      79 calls)
                                        1.14s GPU  (      79 calls)
     h_psi        :      0.93s CPU      3.88s WALL (      81 calls)
                                        3.87s GPU  (      81 calls)
     g_psi        :      0.00s CPU      0.00s WALL (      62 calls)
                                        0.00s GPU  (      62 calls)

     Called by h_psi:
     h_psi:calbec :      0.52s CPU      3.39s WALL (      81 calls)
                                        3.39s GPU  (      81 calls)
     vloc_psi     :      0.36s CPU      0.43s WALL (      81 calls)
                                        0.43s GPU  (      81 calls)
     add_vuspsi   :      0.03s CPU      0.05s WALL (      81 calls)
                                        0.05s GPU  (      81 calls)

     General routines
     calbec       :      0.52s CPU      3.39s WALL (      86 calls)
     fft          :      0.62s CPU      0.75s WALL (     151 calls)
                                        0.13s GPU  (      96 calls)
     ffts         :      0.05s CPU      0.05s WALL (      18 calls)
     fftw         :      0.44s CPU      0.58s WALL (    1894 calls)
                                        0.50s GPU  (    1894 calls)
 
     Parallel routines
 
     PWSCF        :      3.17s CPU      7.21s WALL

 
   This run was terminated on:  10:54:27  10May2023            

=------------------------------------------------------------------------------=
   JOB DONE.
=------------------------------------------------------------------------------=
