An instance of this daemon is already running
An instance of this daemon is already running

     Program PWSCF v.7.1 starts on 10May2023 at 10:56:25 

     This program is part of the open-source Quantum ESPRESSO suite
     for quantum simulation of materials; please cite
         "P. Giannozzi et al., J. Phys.:Condens. Matter 21 395502 (2009);
         "P. Giannozzi et al., J. Phys.:Condens. Matter 29 465901 (2017);
         "P. Giannozzi et al., J. Chem. Phys. 152 154105 (2020);
          URL http://www.quantum-espresso.org", 
     in publications or presentations arising from this work. More details at
     http://www.quantum-espresso.org/quote

     Parallel version (MPI & OpenMP), running on       4 processor cores
     Number of MPI processes:                 4
     Threads/MPI process:                     1

     MPI processes distributed on     1 nodes
     753557 MiB available memory on the printing compute node when the environment starts
 
     Reading input from pw-si-15.in
Warning: card &CELL ignored
Warning: card / ignored

     Current dimensions of program PWSCF are:
     Max number of different atomic species (ntypx) = 10
     Max number of k-points (npk) =  40000
     Max angular momentum in pseudopotentials (lmaxx) =  4

     IMPORTANT: XC functional enforced from input :
     Exchange-correlation= PBE
                           (   1   4   3   4   0   0   0)
     Any further DFT definition will be discarded
     Please, verify this is what you really want


     gamma-point specific algorithms are used
 
     K-points division:     npool     =       2
     R & G space division:  proc/nbgrp/npool/nimage =       2
     Subspace diagonalization in iterative solution of the eigenvalue problem:
     a serial algorithm will be used

     Message from routine divide_et_impera:
     suboptimal parallelization: some nodes have no k-points
 
     Parallelization info
     --------------------
     sticks:   dense  smooth     PW     G-vecs:    dense   smooth      PW
     Min        1929    1929    504                90087    90087   12201
     Max        1932    1932    505                90092    90092   12204
     Sum        3861    3861   1009               180179   180179   24405
 
     Using Slab Decomposition
 


     bravais-lattice index     =            0
     lattice parameter (alat)  =      20.0918  a.u.
     unit-cell volume          =    8110.6649 (a.u.)^3
     number of atoms/cell      =           64
     number of atomic types    =            1
     number of electrons       =       256.00
     number of Kohn-Sham states=          154
     kinetic-energy cutoff     =      30.0000  Ry
     charge density cutoff     =     120.0000  Ry
     scf convergence threshold =      1.0E-06
     mixing beta               =       0.5000
     number of iterations used =            8  plain     mixing
     Exchange-correlation= PBE
                           (   1   4   3   4   0   0   0)

     GPU acceleration is ACTIVE.
     GPU-aware MPI enabled

     Message from routine print_cuda_info:
     High GPU oversubscription detected. Are you sure this is what you want?

     celldm(1)=  20.091799  celldm(2)=   0.000000  celldm(3)=   0.000000
     celldm(4)=   0.000000  celldm(5)=   0.000000  celldm(6)=   0.000000

     crystal axes: (cart. coord. in units of alat)
               a(1) = (   1.000000   0.000000   0.000000 )  
               a(2) = (   0.000000   1.000000   0.000000 )  
               a(3) = (   0.000000   0.000000   1.000000 )  

     reciprocal axes: (cart. coord. in units 2 pi/alat)
               b(1) = (  1.000000  0.000000  0.000000 )  
               b(2) = (  0.000000  1.000000  0.000000 )  
               b(3) = (  0.000000  0.000000  1.000000 )  


     PseudoPot. # 1 for Si read from file:
     /home/ppiaggi/pseudos/Si_ONCV_PBE_sr.upf
     MD5 check sum: 8553c464762ac42b85b1eed164b4d029
     Pseudo is Norm-conserving, Zval =  4.0
     Generated using ONCVPSP code by D. R. Hamann
     Using radial grid of 1510 points,  4 beta functions with: 
                l(1) =   0
                l(2) =   0
                l(3) =   1
                l(4) =   1

     atomic species   valence    mass     pseudopotential
        Si             4.00    28.08500     Si( 1.00)

     No symmetry found



   Cartesian axes

     site n.     atom                  positions (alat units)
         1           Si  tau(   1) = (   0.1135200   0.3966570   0.8024230  )
         2           Si  tau(   2) = (   0.6278060   0.3101050   0.8585010  )
         3           Si  tau(   3) = (   0.3754720   0.7961360   0.0207192  )
         4           Si  tau(   4) = (   0.8583810   0.5354250   0.0559429  )
         5           Si  tau(   5) = (   0.7135320   0.1928960   0.6144130  )
         6           Si  tau(   6) = (   0.4638670   0.4417240   0.6174660  )
         7           Si  tau(   7) = (   0.1474640   0.9374560   0.3076320  )
         8           Si  tau(   8) = (   0.8891280   0.1436840   0.3544820  )
         9           Si  tau(   9) = (   0.8574110   0.7822230   0.8230470  )
        10           Si  tau(  10) = (   0.6686030   0.6670450   0.4653350  )
        11           Si  tau(  11) = (   0.5338490   0.0426082   0.4280820  )
        12           Si  tau(  12) = (   0.7395100   0.2709210   0.0742015  )
        13           Si  tau(  13) = (   0.0773904   0.0244507   0.0448086  )
        14           Si  tau(  14) = (   0.1238240   0.9890420   0.7318830  )
        15           Si  tau(  15) = (   0.4663830   0.7177330   0.6251780  )
        16           Si  tau(  16) = (   0.8255840   0.8185510   0.4340270  )
        17           Si  tau(  17) = (   0.9019280   0.9860680   0.7005510  )
        18           Si  tau(  18) = (   0.1170210   0.5253250   0.1793790  )
        19           Si  tau(  19) = (   0.4752440   0.2037250   0.5903520  )
        20           Si  tau(  20) = (   0.6750910   0.4695060   0.5937230  )
        21           Si  tau(  21) = (   0.0986094   0.1614600   0.8622120  )
        22           Si  tau(  22) = (   0.5676060   0.7056990   0.9077850  )
        23           Si  tau(  23) = (   0.2554760   0.6448250   0.4868760  )
        24           Si  tau(  24) = (   0.4840060   0.9932600   0.0445422  )
        25           Si  tau(  25) = (   0.6286870   0.4323940   0.1643230  )
        26           Si  tau(  26) = (   0.1439920   0.8217290   0.9682690  )
        27           Si  tau(  27) = (   0.3688730   0.8993750   0.5035270  )
        28           Si  tau(  28) = (   0.2967860   0.1292620   0.1072100  )
        29           Si  tau(  29) = (   0.0140194   0.6488300   0.4375310  )
        30           Si  tau(  30) = (   0.7119300   0.5202180   0.8168050  )
        31           Si  tau(  31) = (   0.3572220   0.5693570   0.1004440  )
        32           Si  tau(  32) = (   0.3916670   0.3178740   0.1600700  )
        33           Si  tau(  33) = (   0.2108310   0.6846480   0.7281420  )
        34           Si  tau(  34) = (   0.9672220   0.6562230   0.6789710  )
        35           Si  tau(  35) = (   0.2224960   0.2520480   0.6221290  )
        36           Si  tau(  36) = (   0.9489780   0.9901430   0.4738460  )
        37           Si  tau(  37) = (   0.0847916   0.1970780   0.2234380  )
        38           Si  tau(  38) = (   0.5231070   0.6376900   0.3064540  )
        39           Si  tau(  39) = (   0.3725190   0.4717500   0.3774850  )
        40           Si  tau(  40) = (   0.4529620   0.1049750   0.7839250  )
        41           Si  tau(  41) = (   0.9029090   0.4122300   0.7035690  )
        42           Si  tau(  42) = (   0.6624310   0.6666440   0.1151590  )
        43           Si  tau(  43) = (   0.3190650   0.2207870   0.9127630  )
        44           Si  tau(  44) = (   0.9710990   0.3418510   0.0506736  )
        45           Si  tau(  45) = (   0.4311880   0.4418030   0.9263700  )
        46           Si  tau(  46) = (   0.3117930   0.7943630   0.2995270  )
        47           Si  tau(  47) = (   0.1647500   0.3669550   0.3831700  )
        48           Si  tau(  48) = (   0.7930450   0.8158460   0.2019510  )
        49           Si  tau(  49) = (   0.8374920   0.5349840   0.3028970  )
        50           Si  tau(  50) = (   0.0339592   0.7705720   0.2022880  )
        51           Si  tau(  51) = (   0.7309270   0.0800839   0.2052420  )
        52           Si  tau(  52) = (   0.6777940   0.0392946   0.9283310  )
        53           Si  tau(  53) = (   0.9902910   0.4196080   0.4709290  )
        54           Si  tau(  54) = (   0.1959910   0.0413750   0.5372080  )
        55           Si  tau(  55) = (   0.5561520   0.9067680   0.2415990  )
        56           Si  tau(  56) = (   0.5766790   0.2776700   0.3316100  )
        57           Si  tau(  57) = (   0.3477780   0.8906670   0.7805760  )
        58           Si  tau(  58) = (   0.0479661   0.6227910   0.9311240  )
        59           Si  tau(  59) = (   0.8664870   0.9079660   0.0063892  )
        60           Si  tau(  60) = (   0.6856680   0.9204030   0.5832190  )
        61           Si  tau(  61) = (   0.7801570   0.3183440   0.4555630  )
        62           Si  tau(  62) = (   0.6207950   0.8773780   0.7957890  )
        63           Si  tau(  63) = (   0.8597530   0.1997320   0.8258480  )
        64           Si  tau(  64) = (   0.3152680   0.5006800   0.7499660  )

     number of k points=     1  Fermi-Dirac smearing, width (Ry)=  0.0100
                       cart. coord. in units 2pi/alat
        k(    1) = (   0.0000000   0.0000000   0.0000000), wk =   2.0000000

     Dense  grid:    90090 G-vectors     FFT dimensions: (  72,  72,  72)

     Estimated max dynamical RAM per process >     144.62 MB

     Estimated total dynamical RAM >     556.50 MB

     Initial potential from superposition of free atoms

     starting charge     255.9608, renormalised to     256.0000
     Starting wfcs are  256 randomized atomic wfcs

     total cpu time spent up to now is        5.1 secs

     Self-consistent Calculation

     iteration #  1     ecut=    30.00 Ry     beta= 0.50
     Davidson diagonalization with overlap
     ethr =  1.00E-02,  avg # of iterations =  3.0

     Threshold (ethr) on eigenvalues was too large:
     Diagonalizing with lowered threshold

     Davidson diagonalization with overlap
     ethr =  4.21E-04,  avg # of iterations =  4.0

     total cpu time spent up to now is        5.4 secs

     total energy              =    -501.16957723 Ry
     estimated scf accuracy    <       1.28819938 Ry

     iteration #  2     ecut=    30.00 Ry     beta= 0.50
     Davidson diagonalization with overlap
     ethr =  5.03E-04,  avg # of iterations =  5.0

     total cpu time spent up to now is        5.5 secs

     total energy              =    -500.57857098 Ry
     estimated scf accuracy    <       7.24411458 Ry

     iteration #  3     ecut=    30.00 Ry     beta= 0.50
     Davidson diagonalization with overlap
     ethr =  5.03E-04,  avg # of iterations =  4.0

     total cpu time spent up to now is        5.6 secs

     total energy              =    -501.27081130 Ry
     estimated scf accuracy    <       1.94665311 Ry

     iteration #  4     ecut=    30.00 Ry     beta= 0.50
     Davidson diagonalization with overlap
     ethr =  5.03E-04,  avg # of iterations =  2.0

     total cpu time spent up to now is        5.7 secs

     total energy              =    -501.39015466 Ry
     estimated scf accuracy    <       0.47181114 Ry

     iteration #  5     ecut=    30.00 Ry     beta= 0.50
     Davidson diagonalization with overlap
     ethr =  1.84E-04,  avg # of iterations =  2.0

     total cpu time spent up to now is        5.8 secs

     total energy              =    -501.42186477 Ry
     estimated scf accuracy    <       0.25465965 Ry

     iteration #  6     ecut=    30.00 Ry     beta= 0.50
     Davidson diagonalization with overlap
     ethr =  9.95E-05,  avg # of iterations =  2.0

     total cpu time spent up to now is        5.9 secs

     total energy              =    -501.44635520 Ry
     estimated scf accuracy    <       0.15687959 Ry

     iteration #  7     ecut=    30.00 Ry     beta= 0.50
     Davidson diagonalization with overlap
     ethr =  6.13E-05,  avg # of iterations =  1.0

     total cpu time spent up to now is        6.0 secs

     total energy              =    -501.45944462 Ry
     estimated scf accuracy    <       0.00648481 Ry

     iteration #  8     ecut=    30.00 Ry     beta= 0.50
     Davidson diagonalization with overlap
     c_bands:  1 eigenvalues not converged
     ethr =  2.53E-06,  avg # of iterations = 20.0

     total cpu time spent up to now is        6.2 secs

     total energy              =    -501.46037153 Ry
     estimated scf accuracy    <       0.01057715 Ry

     iteration #  9     ecut=    30.00 Ry     beta= 0.50
     Davidson diagonalization with overlap
     ethr =  2.53E-06,  avg # of iterations =  6.0

     total cpu time spent up to now is        6.3 secs

     total energy              =    -501.46130242 Ry
     estimated scf accuracy    <       0.00579382 Ry

     iteration # 10     ecut=    30.00 Ry     beta= 0.50
     Davidson diagonalization with overlap
     ethr =  2.26E-06,  avg # of iterations =  1.0

     total cpu time spent up to now is        6.4 secs

     total energy              =    -501.46166712 Ry
     estimated scf accuracy    <       0.00084885 Ry

     iteration # 11     ecut=    30.00 Ry     beta= 0.50
     Davidson diagonalization with overlap
     ethr =  3.32E-07,  avg # of iterations =  3.0

     total cpu time spent up to now is        6.5 secs

     total energy              =    -501.46172949 Ry
     estimated scf accuracy    <       0.00064731 Ry

     iteration # 12     ecut=    30.00 Ry     beta= 0.50
     Davidson diagonalization with overlap
     ethr =  2.53E-07,  avg # of iterations =  2.0

     total cpu time spent up to now is        6.6 secs

     total energy              =    -501.46179408 Ry
     estimated scf accuracy    <       0.00025512 Ry

     iteration # 13     ecut=    30.00 Ry     beta= 0.50
     Davidson diagonalization with overlap
     ethr =  9.97E-08,  avg # of iterations =  2.0

     total cpu time spent up to now is        6.7 secs

     total energy              =    -501.46181633 Ry
     estimated scf accuracy    <       0.00003708 Ry

     iteration # 14     ecut=    30.00 Ry     beta= 0.50
     Davidson diagonalization with overlap
     ethr =  1.45E-08,  avg # of iterations =  4.0

     total cpu time spent up to now is        6.8 secs

     total energy              =    -501.46181987 Ry
     estimated scf accuracy    <       0.00003401 Ry

     iteration # 15     ecut=    30.00 Ry     beta= 0.50
     Davidson diagonalization with overlap
     ethr =  1.33E-08,  avg # of iterations =  2.0

     total cpu time spent up to now is        6.9 secs

     total energy              =    -501.46182106 Ry
     estimated scf accuracy    <       0.00000964 Ry

     iteration # 16     ecut=    30.00 Ry     beta= 0.50
     Davidson diagonalization with overlap
     ethr =  3.77E-09,  avg # of iterations =  3.0

     total cpu time spent up to now is        7.0 secs

     total energy              =    -501.46182254 Ry
     estimated scf accuracy    <       0.00000762 Ry

     iteration # 17     ecut=    30.00 Ry     beta= 0.50
     Davidson diagonalization with overlap
     ethr =  2.98E-09,  avg # of iterations =  2.0

     total cpu time spent up to now is        7.1 secs

     total energy              =    -501.46182275 Ry
     estimated scf accuracy    <       0.00000292 Ry

     iteration # 18     ecut=    30.00 Ry     beta= 0.50
     Davidson diagonalization with overlap
     ethr =  1.14E-09,  avg # of iterations =  2.0

     total cpu time spent up to now is        7.2 secs

     total energy              =    -501.46182301 Ry
     estimated scf accuracy    <       0.00000171 Ry

     iteration # 19     ecut=    30.00 Ry     beta= 0.50
     Davidson diagonalization with overlap
     ethr =  6.68E-10,  avg # of iterations =  1.0

     total cpu time spent up to now is        7.3 secs

     End of self-consistent calculation

          k = 0.0000 0.0000 0.0000 ( 11288 PWs)   bands (ev):

    -5.3462  -4.4088  -4.3420  -4.2240  -4.1021  -4.0610  -3.9225  -3.4765
    -3.3237  -3.2355  -3.1741  -3.0536  -2.9468  -2.8880  -2.8441  -2.8103
    -2.6962  -2.5166  -2.4345  -2.1951  -2.0116  -1.9018  -1.8414  -1.7642
    -1.6734  -1.4875  -1.2144  -0.8708  -0.8111  -0.7095  -0.5758  -0.4557
    -0.2338  -0.1156  -0.0626   0.0024   0.0860   0.1829   0.2818   0.2996
     0.4253   0.4712   0.5359   0.6172   0.7328   0.8000   0.8439   0.8765
     0.9758   1.0933   1.1858   1.3448   1.4785   1.5079   1.5641   1.7238
     1.7904   1.9006   1.9577   2.0549   2.2079   2.2318   2.4384   2.4838
     2.5379   2.6439   2.7068   2.7202   2.8207   2.8811   2.9484   3.0611
     3.0860   3.1609   3.2307   3.3144   3.3570   3.4727   3.5728   3.7379
     3.8785   4.2040   4.2789   4.3614   4.4420   4.5584   4.5908   4.6702
     4.7620   4.8011   4.9017   4.9663   5.0514   5.0980   5.1587   5.1770
     5.2642   5.3012   5.4051   5.5491   5.5973   5.6159   5.6607   5.7663
     5.7784   5.8120   5.8346   5.8940   5.9535   6.0928   6.1095   6.1851
     6.2009   6.2377   6.3087   6.3381   6.4391   6.5274   6.6211   6.6726
     6.7273   6.8091   6.8591   6.8815   6.9643   7.0231   7.1031   7.1371
     7.1759   7.2212   7.3064   7.3828   7.3984   7.4646   7.5349   7.5816
     7.6526   7.6908   7.7631   7.8165   7.9377   7.9813   8.0104   8.1518
     8.1572   8.1843   8.2930   8.3695   8.4144   8.4462   8.5726   8.6791
     8.7118   8.7504

     the Fermi energy is     7.1604 ev

!    total energy              =    -501.46182295 Ry
     estimated scf accuracy    <       0.00000024 Ry
     smearing contrib. (-TS)   =      -0.15626404 Ry
     internal energy E=F+TS    =    -501.30555891 Ry

     The total energy is F=E-TS. E is the sum of the following terms:
     one-electron contribution =     189.54659228 Ry
     hartree contribution      =      23.72769333 Ry
     xc contribution           =    -151.13188043 Ry
     ewald contribution        =    -563.44796409 Ry

     convergence has been achieved in  19 iterations

     Forces acting on atoms (cartesian axes, Ry/au):

     atom    1 type  1   force =    -0.00197870   -0.00594324   -0.00241524
     atom    2 type  1   force =    -0.01211733   -0.01009749    0.03387775
     atom    3 type  1   force =    -0.01485539   -0.01308539   -0.04613867
     atom    4 type  1   force =     0.00609344    0.01238274   -0.01298465
     atom    5 type  1   force =    -0.01209032   -0.05471691    0.06516736
     atom    6 type  1   force =    -0.00237359   -0.04127151   -0.08835988
     atom    7 type  1   force =    -0.02986690    0.03270536    0.00545583
     atom    8 type  1   force =    -0.01839330    0.05921841   -0.08560272
     atom    9 type  1   force =    -0.02045851    0.01501637   -0.00857912
     atom   10 type  1   force =     0.02080089   -0.03021109    0.02200391
     atom   11 type  1   force =     0.01328658   -0.00375646    0.00713350
     atom   12 type  1   force =     0.02233488   -0.02728887   -0.04567612
     atom   13 type  1   force =    -0.01485408   -0.01449705    0.01253087
     atom   14 type  1   force =     0.02301695   -0.02975955    0.02220146
     atom   15 type  1   force =     0.00047515    0.02608691    0.00170138
     atom   16 type  1   force =    -0.00596981   -0.04519879   -0.02607723
     atom   17 type  1   force =    -0.01845078    0.02082026   -0.01109794
     atom   18 type  1   force =     0.02017211    0.01251506   -0.00781062
     atom   19 type  1   force =     0.00107874    0.01341556   -0.00802496
     atom   20 type  1   force =     0.02468518    0.04405142    0.01386466
     atom   21 type  1   force =    -0.00831492    0.04524016    0.01319404
     atom   22 type  1   force =    -0.03034594   -0.06213835    0.03151788
     atom   23 type  1   force =    -0.00895936    0.02283398   -0.01485007
     atom   24 type  1   force =    -0.00638401   -0.00058925    0.02278551
     atom   25 type  1   force =    -0.02361349    0.03750909    0.01309813
     atom   26 type  1   force =     0.03487042    0.01239270    0.02613187
     atom   27 type  1   force =     0.00286623   -0.00320576   -0.00859498
     atom   28 type  1   force =    -0.01133077   -0.04133888    0.02129392
     atom   29 type  1   force =    -0.00179309   -0.00808787    0.01478496
     atom   30 type  1   force =     0.00463156    0.02008426    0.00654833
     atom   31 type  1   force =    -0.02493020    0.00032100    0.01406365
     atom   32 type  1   force =     0.04118351    0.04286577    0.02725353
     atom   33 type  1   force =    -0.01803578    0.02977163   -0.03033695
     atom   34 type  1   force =     0.02593531   -0.03577537   -0.00543000
     atom   35 type  1   force =     0.01191161    0.00777780   -0.02931617
     atom   36 type  1   force =     0.05841231   -0.03977412    0.06721968
     atom   37 type  1   force =    -0.01734734   -0.00074057    0.00829664
     atom   38 type  1   force =    -0.02316803    0.00407721   -0.05524134
     atom   39 type  1   force =     0.00408676   -0.02113290    0.02364443
     atom   40 type  1   force =     0.02111757   -0.02804840    0.01665408
     atom   41 type  1   force =     0.03351034    0.00431846   -0.01313767
     atom   42 type  1   force =    -0.01143805   -0.03000968   -0.00799613
     atom   43 type  1   force =    -0.01086019    0.04347827   -0.00594616
     atom   44 type  1   force =    -0.00523386   -0.01506867   -0.00312115
     atom   45 type  1   force =     0.01587160   -0.03491724    0.02842844
     atom   46 type  1   force =     0.03559493   -0.02397824    0.03336449
     atom   47 type  1   force =     0.07176972   -0.04545784   -0.04459782
     atom   48 type  1   force =     0.03000436    0.01230053    0.00265462
     atom   49 type  1   force =    -0.02492866    0.01559607    0.01063365
     atom   50 type  1   force =    -0.00677889   -0.01648647   -0.01831483
     atom   51 type  1   force =    -0.01422542    0.00558276    0.01476615
     atom   52 type  1   force =     0.02421982    0.02725239    0.02146144
     atom   53 type  1   force =    -0.09408119    0.04408664    0.05895534
     atom   54 type  1   force =     0.00901550    0.00153374   -0.02501143
     atom   55 type  1   force =     0.01835467    0.02818612    0.01238874
     atom   56 type  1   force =     0.00006330   -0.01256026    0.00349943
     atom   57 type  1   force =    -0.01792506   -0.01256029   -0.00047377
     atom   58 type  1   force =    -0.01221714   -0.01504904   -0.00678866
     atom   59 type  1   force =     0.00440208    0.03844181    0.03360595
     atom   60 type  1   force =    -0.01241375    0.03527096   -0.00424174
     atom   61 type  1   force =     0.00417496    0.02122904   -0.05027643
     atom   62 type  1   force =     0.01499676    0.01069905   -0.05703001
     atom   63 type  1   force =    -0.00782508   -0.01163297   -0.02333937
     atom   64 type  1   force =    -0.05537830   -0.01268302    0.03663022

     Total force =     0.389085     Total SCF correction =     0.000984


     Computing stress (Cartesian axis) and pressure

          total   stress  (Ry/bohr**3)                   (kbar)     P=      -23.94
  -0.00019259   0.00001601  -0.00003545          -28.33        2.35       -5.21
   0.00001601  -0.00013679  -0.00000846            2.35      -20.12       -1.24
  -0.00003545  -0.00000846  -0.00015884           -5.21       -1.24      -23.37

 
     init_run     :      1.09s CPU      4.99s WALL (       1 calls)
     electrons    :      2.01s CPU      2.19s WALL (       1 calls)
     forces       :      0.04s CPU      0.04s WALL (       1 calls)
     stress       :      0.15s CPU      0.15s WALL (       1 calls)

     Called by init_run:
     wfcinit      :      0.55s CPU      4.22s WALL (       1 calls)
                                        4.22s GPU  (       1 calls)
     potinit      :      0.05s CPU      0.18s WALL (       1 calls)
     hinit0       :      0.46s CPU      0.51s WALL (       1 calls)

     Called by electrons:
     c_bands      :      1.20s CPU      1.29s WALL (      20 calls)
     sum_band     :      0.40s CPU      0.44s WALL (      20 calls)
     v_of_rho     :      0.19s CPU      0.33s WALL (      20 calls)
     mix_rho      :      0.19s CPU      0.20s WALL (      20 calls)

     Called by c_bands:
     init_us_2    :      0.07s CPU      0.08s WALL (      41 calls)
     init_us_2:gp :      0.07s CPU      0.08s WALL (      41 calls)
     regterg      :      1.03s CPU      1.11s WALL (      20 calls)

     Called by *egterg:
     rdiaghg      :      0.42s CPU      1.18s WALL (      90 calls)
                                        1.16s GPU  (      90 calls)
     h_psi        :      0.95s CPU      3.92s WALL (      92 calls)
                                        3.91s GPU  (      92 calls)
     g_psi        :      0.00s CPU      0.00s WALL (      71 calls)
                                        0.00s GPU  (      71 calls)

     Called by h_psi:
     h_psi:calbec :      0.49s CPU      3.38s WALL (      92 calls)
                                        3.38s GPU  (      92 calls)
     vloc_psi     :      0.41s CPU      0.47s WALL (      92 calls)
                                        0.47s GPU  (      92 calls)
     add_vuspsi   :      0.03s CPU      0.05s WALL (      92 calls)
                                        0.05s GPU  (      92 calls)

     General routines
     calbec       :      0.50s CPU      3.38s WALL (      97 calls)
     fft          :      0.63s CPU      0.82s WALL (     167 calls)
                                        0.17s GPU  (     106 calls)
     ffts         :      0.05s CPU      0.06s WALL (      20 calls)
     fftw         :      0.49s CPU      0.63s WALL (    2108 calls)
                                        0.55s GPU  (    2108 calls)
 
     Parallel routines
 
     PWSCF        :      3.33s CPU      7.47s WALL

 
   This run was terminated on:  10:56:33  10May2023            

=------------------------------------------------------------------------------=
   JOB DONE.
=------------------------------------------------------------------------------=
