An instance of this daemon is already running
An instance of this daemon is already running

     Program PWSCF v.7.1 starts on 10May2023 at 11: 0:58 

     This program is part of the open-source Quantum ESPRESSO suite
     for quantum simulation of materials; please cite
         "P. Giannozzi et al., J. Phys.:Condens. Matter 21 395502 (2009);
         "P. Giannozzi et al., J. Phys.:Condens. Matter 29 465901 (2017);
         "P. Giannozzi et al., J. Chem. Phys. 152 154105 (2020);
          URL http://www.quantum-espresso.org", 
     in publications or presentations arising from this work. More details at
     http://www.quantum-espresso.org/quote

     Parallel version (MPI & OpenMP), running on       4 processor cores
     Number of MPI processes:                 4
     Threads/MPI process:                     1

     MPI processes distributed on     1 nodes
     753555 MiB available memory on the printing compute node when the environment starts
 
     Reading input from pw-si-43.in
Warning: card &CELL ignored
Warning: card / ignored

     Current dimensions of program PWSCF are:
     Max number of different atomic species (ntypx) = 10
     Max number of k-points (npk) =  40000
     Max angular momentum in pseudopotentials (lmaxx) =  4

     IMPORTANT: XC functional enforced from input :
     Exchange-correlation= PBE
                           (   1   4   3   4   0   0   0)
     Any further DFT definition will be discarded
     Please, verify this is what you really want


     gamma-point specific algorithms are used
 
     K-points division:     npool     =       2
     R & G space division:  proc/nbgrp/npool/nimage =       2
     Subspace diagonalization in iterative solution of the eigenvalue problem:
     a serial algorithm will be used

     Message from routine divide_et_impera:
     suboptimal parallelization: some nodes have no k-points
 
     Parallelization info
     --------------------
     sticks:   dense  smooth     PW     G-vecs:    dense   smooth      PW
     Min        2007    2007    533                96009    96009   13000
     Max        2010    2010    536                96014    96014   13001
     Sum        4017    4017   1069               192023   192023   26001
 
     Using Slab Decomposition
 


     bravais-lattice index     =            0
     lattice parameter (alat)  =      20.5366  a.u.
     unit-cell volume          =    8661.2963 (a.u.)^3
     number of atoms/cell      =           64
     number of atomic types    =            1
     number of electrons       =       256.00
     number of Kohn-Sham states=          154
     kinetic-energy cutoff     =      30.0000  Ry
     charge density cutoff     =     120.0000  Ry
     scf convergence threshold =      1.0E-06
     mixing beta               =       0.5000
     number of iterations used =            8  plain     mixing
     Exchange-correlation= PBE
                           (   1   4   3   4   0   0   0)

     GPU acceleration is ACTIVE.
     GPU-aware MPI enabled

     Message from routine print_cuda_info:
     High GPU oversubscription detected. Are you sure this is what you want?

     celldm(1)=  20.536557  celldm(2)=   0.000000  celldm(3)=   0.000000
     celldm(4)=   0.000000  celldm(5)=   0.000000  celldm(6)=   0.000000

     crystal axes: (cart. coord. in units of alat)
               a(1) = (   1.000000   0.000000   0.000000 )  
               a(2) = (   0.000000   1.000000   0.000000 )  
               a(3) = (   0.000000   0.000000   1.000000 )  

     reciprocal axes: (cart. coord. in units 2 pi/alat)
               b(1) = (  1.000000  0.000000  0.000000 )  
               b(2) = (  0.000000  1.000000  0.000000 )  
               b(3) = (  0.000000  0.000000  1.000000 )  


     PseudoPot. # 1 for Si read from file:
     /home/ppiaggi/pseudos/Si_ONCV_PBE_sr.upf
     MD5 check sum: 8553c464762ac42b85b1eed164b4d029
     Pseudo is Norm-conserving, Zval =  4.0
     Generated using ONCVPSP code by D. R. Hamann
     Using radial grid of 1510 points,  4 beta functions with: 
                l(1) =   0
                l(2) =   0
                l(3) =   1
                l(4) =   1

     atomic species   valence    mass     pseudopotential
        Si             4.00    28.08500     Si( 1.00)

     No symmetry found



   Cartesian axes

     site n.     atom                  positions (alat units)
         1           Si  tau(   1) = (   0.9408820   0.4376270   0.9119880  )
         2           Si  tau(   2) = (   0.4435950   0.1867610   0.1830400  )
         3           Si  tau(   3) = (   0.1470180   0.9085830   0.1493830  )
         4           Si  tau(   4) = (   0.9118360   0.2578650   0.7874640  )
         5           Si  tau(   5) = (   0.7483560   0.4599360   0.1799130  )
         6           Si  tau(   6) = (   0.5947410   0.3765100   0.4610410  )
         7           Si  tau(   7) = (   0.9267850   0.6553390   0.8838030  )
         8           Si  tau(   8) = (   0.2430870   0.2299610   0.5585990  )
         9           Si  tau(   9) = (   0.8128560   0.1546350   0.2258250  )
        10           Si  tau(  10) = (   0.2706060   0.3419040   0.2081040  )
        11           Si  tau(  11) = (   0.9647990   0.9729600   0.5215540  )
        12           Si  tau(  12) = (   0.7357730   0.6491690   0.0205071  )
        13           Si  tau(  13) = (   0.4691950   0.9056200   0.8762880  )
        14           Si  tau(  14) = (   0.7079590   0.2227940   0.6479100  )
        15           Si  tau(  15) = (   0.9885330   0.7686200   0.0549735  )
        16           Si  tau(  16) = (   0.6254130   0.0934285   0.8108870  )
        17           Si  tau(  17) = (   0.9762440   0.9836300   0.3014930  )
        18           Si  tau(  18) = (   0.4940360   0.9127510   0.6373650  )
        19           Si  tau(  19) = (   0.1798280   0.5906110   0.8272450  )
        20           Si  tau(  20) = (   0.0252256   0.3228120   0.4155370  )
        21           Si  tau(  21) = (   0.2413630   0.2439440   0.9112900  )
        22           Si  tau(  22) = (   0.4573070   0.2549540   0.8881430  )
        23           Si  tau(  23) = (   0.6691070   0.8631170   0.9272140  )
        24           Si  tau(  24) = (   0.5648050   0.7596240   0.3033140  )
        25           Si  tau(  25) = (   0.2404420   0.6723410   0.3505200  )
        26           Si  tau(  26) = (   0.7431420   0.9891610   0.5858090  )
        27           Si  tau(  27) = (   0.5367490   0.5883450   0.5670670  )
        28           Si  tau(  28) = (   0.5227570   0.3578910   0.6918840  )
        29           Si  tau(  29) = (   0.1977620   0.4768950   0.0443312  )
        30           Si  tau(  30) = (   0.0240770   0.5370400   0.4054080  )
        31           Si  tau(  31) = (   0.3327240   0.4830440   0.3910500  )
        32           Si  tau(  32) = (   0.4224480   0.5292750   0.0276003  )
        33           Si  tau(  33) = (   0.3605030   0.9994440   0.4533120  )
        34           Si  tau(  34) = (   0.6594470   0.6495440   0.7606620  )
        35           Si  tau(  35) = (   0.1240430   0.0816308   0.0074278  )
        36           Si  tau(  36) = (   0.6795210   0.0440423   0.3412380  )
        37           Si  tau(  37) = (   0.8426030   0.8133510   0.2048880  )
        38           Si  tau(  38) = (   0.1724870   0.8878150   0.6061720  )
        39           Si  tau(  39) = (   0.3044940   0.4511880   0.6074980  )
        40           Si  tau(  40) = (   0.8560900   0.9151520   0.8149440  )
        41           Si  tau(  41) = (   0.0497942   0.5832490   0.1856920  )
        42           Si  tau(  42) = (   0.0905824   0.6474030   0.5795830  )
        43           Si  tau(  43) = (   0.4584720   0.6668130   0.8551730  )
        44           Si  tau(  44) = (   0.2594300   0.7997070   0.9527530  )
        45           Si  tau(  45) = (   0.8831880   0.7285280   0.6483860  )
        46           Si  tau(  46) = (   0.3510910   0.7121890   0.6738850  )
        47           Si  tau(  47) = (   0.9019430   0.1007830   0.9239430  )
        48           Si  tau(  48) = (   0.9323730   0.3783830   0.1191130  )
        49           Si  tau(  49) = (   0.7047450   0.1015260   0.0295706  )
        50           Si  tau(  50) = (   0.5793120   0.3358160   0.0519373  )
        51           Si  tau(  51) = (   0.8023010   0.3588290   0.3766020  )
        52           Si  tau(  52) = (   0.6851170   0.7743130   0.5063500  )
        53           Si  tau(  53) = (   0.1529360   0.3458200   0.7767020  )
        54           Si  tau(  54) = (   0.0917484   0.9188350   0.8438970  )
        55           Si  tau(  55) = (   0.7079940   0.4495570   0.8483860  )
        56           Si  tau(  56) = (   0.2791350   0.0452862   0.7232050  )
        57           Si  tau(  57) = (   0.5160360   0.5107250   0.2612850  )
        58           Si  tau(  58) = (   0.8123530   0.6495380   0.3285350  )
        59           Si  tau(  59) = (   0.4984300   0.1645260   0.3838840  )
        60           Si  tau(  60) = (   0.0237655   0.1953160   0.6066780  )
        61           Si  tau(  61) = (   0.0740816   0.2024580   0.2263020  )
        62           Si  tau(  62) = (   0.6403150   0.9031960   0.1644000  )
        63           Si  tau(  63) = (   0.3703140   0.8584060   0.2971030  )
        64           Si  tau(  64) = (   0.4081340   0.9983980   0.1018360  )

     number of k points=     1  Fermi-Dirac smearing, width (Ry)=  0.0100
                       cart. coord. in units 2pi/alat
        k(    1) = (   0.0000000   0.0000000   0.0000000), wk =   2.0000000

     Dense  grid:    96012 G-vectors     FFT dimensions: (  72,  72,  72)

     Estimated max dynamical RAM per process >     153.33 MB

     Estimated total dynamical RAM >     589.87 MB

     Initial potential from superposition of free atoms

     starting charge     255.9608, renormalised to     256.0000
     Starting wfcs are  256 randomized atomic wfcs

     total cpu time spent up to now is        5.0 secs

     Self-consistent Calculation

     iteration #  1     ecut=    30.00 Ry     beta= 0.50
     Davidson diagonalization with overlap
     ethr =  1.00E-02,  avg # of iterations =  3.0

     Threshold (ethr) on eigenvalues was too large:
     Diagonalizing with lowered threshold

     Davidson diagonalization with overlap
     ethr =  4.57E-04,  avg # of iterations =  4.0

     total cpu time spent up to now is        5.3 secs

     total energy              =    -501.11739586 Ry
     estimated scf accuracy    <       1.42601239 Ry

     iteration #  2     ecut=    30.00 Ry     beta= 0.50
     Davidson diagonalization with overlap
     ethr =  5.57E-04,  avg # of iterations =  5.0

     total cpu time spent up to now is        5.4 secs

     total energy              =    -500.34465594 Ry
     estimated scf accuracy    <      10.61900227 Ry

     iteration #  3     ecut=    30.00 Ry     beta= 0.50
     Davidson diagonalization with overlap
     ethr =  5.57E-04,  avg # of iterations =  4.0

     total cpu time spent up to now is        5.6 secs

     total energy              =    -501.28252714 Ry
     estimated scf accuracy    <       1.94792056 Ry

     iteration #  4     ecut=    30.00 Ry     beta= 0.50
     Davidson diagonalization with overlap
     ethr =  5.57E-04,  avg # of iterations =  2.0

     total cpu time spent up to now is        5.6 secs

     total energy              =    -501.41013347 Ry
     estimated scf accuracy    <       0.51342218 Ry

     iteration #  5     ecut=    30.00 Ry     beta= 0.50
     Davidson diagonalization with overlap
     ethr =  2.01E-04,  avg # of iterations =  2.0

     total cpu time spent up to now is        5.7 secs

     total energy              =    -501.42677005 Ry
     estimated scf accuracy    <       0.54037141 Ry

     iteration #  6     ecut=    30.00 Ry     beta= 0.50
     Davidson diagonalization with overlap
     ethr =  2.01E-04,  avg # of iterations =  2.0

     total cpu time spent up to now is        5.8 secs

     total energy              =    -501.47396239 Ry
     estimated scf accuracy    <       0.09690133 Ry

     iteration #  7     ecut=    30.00 Ry     beta= 0.50
     Davidson diagonalization with overlap
     ethr =  3.79E-05,  avg # of iterations =  2.0

     total cpu time spent up to now is        5.9 secs

     total energy              =    -501.48377694 Ry
     estimated scf accuracy    <       0.02299264 Ry

     iteration #  8     ecut=    30.00 Ry     beta= 0.50
     Davidson diagonalization with overlap
     ethr =  8.98E-06,  avg # of iterations =  9.0

     total cpu time spent up to now is        6.1 secs

     total energy              =    -501.48591161 Ry
     estimated scf accuracy    <       0.03050569 Ry

     iteration #  9     ecut=    30.00 Ry     beta= 0.50
     Davidson diagonalization with overlap
     ethr =  8.98E-06,  avg # of iterations =  2.0

     total cpu time spent up to now is        6.2 secs

     total energy              =    -501.48812518 Ry
     estimated scf accuracy    <       0.00160250 Ry

     iteration # 10     ecut=    30.00 Ry     beta= 0.50
     Davidson diagonalization with overlap
     c_bands:  1 eigenvalues not converged
     ethr =  6.26E-07,  avg # of iterations = 20.0

     total cpu time spent up to now is        6.4 secs

     total energy              =    -501.48831305 Ry
     estimated scf accuracy    <       0.00215479 Ry

     iteration # 11     ecut=    30.00 Ry     beta= 0.50
     Davidson diagonalization with overlap
     ethr =  6.26E-07,  avg # of iterations =  3.0

     total cpu time spent up to now is        6.5 secs

     total energy              =    -501.48847569 Ry
     estimated scf accuracy    <       0.00070276 Ry

     iteration # 12     ecut=    30.00 Ry     beta= 0.50
     Davidson diagonalization with overlap
     ethr =  2.75E-07,  avg # of iterations =  2.0

     total cpu time spent up to now is        6.6 secs

     total energy              =    -501.48853346 Ry
     estimated scf accuracy    <       0.00032501 Ry

     iteration # 13     ecut=    30.00 Ry     beta= 0.50
     Davidson diagonalization with overlap
     ethr =  1.27E-07,  avg # of iterations =  2.0

     total cpu time spent up to now is        6.7 secs

     total energy              =    -501.48855911 Ry
     estimated scf accuracy    <       0.00017416 Ry

     iteration # 14     ecut=    30.00 Ry     beta= 0.50
     Davidson diagonalization with overlap
     ethr =  6.80E-08,  avg # of iterations =  1.0

     total cpu time spent up to now is        6.8 secs

     total energy              =    -501.48857361 Ry
     estimated scf accuracy    <       0.00001232 Ry

     iteration # 15     ecut=    30.00 Ry     beta= 0.50
     Davidson diagonalization with overlap
     ethr =  4.81E-09,  avg # of iterations =  4.0

     total cpu time spent up to now is        6.9 secs

     total energy              =    -501.48857477 Ry
     estimated scf accuracy    <       0.00002807 Ry

     iteration # 16     ecut=    30.00 Ry     beta= 0.50
     Davidson diagonalization with overlap
     ethr =  4.81E-09,  avg # of iterations =  3.0

     total cpu time spent up to now is        7.0 secs

     total energy              =    -501.48857713 Ry
     estimated scf accuracy    <       0.00000861 Ry

     iteration # 17     ecut=    30.00 Ry     beta= 0.50
     Davidson diagonalization with overlap
     ethr =  3.36E-09,  avg # of iterations =  2.0

     total cpu time spent up to now is        7.1 secs

     total energy              =    -501.48857765 Ry
     estimated scf accuracy    <       0.00000139 Ry

     iteration # 18     ecut=    30.00 Ry     beta= 0.50
     Davidson diagonalization with overlap
     ethr =  5.43E-10,  avg # of iterations =  4.0

     total cpu time spent up to now is        7.2 secs

     total energy              =    -501.48857771 Ry
     estimated scf accuracy    <       0.00000423 Ry

     iteration # 19     ecut=    30.00 Ry     beta= 0.50
     Davidson diagonalization with overlap
     ethr =  5.43E-10,  avg # of iterations =  3.0

     total cpu time spent up to now is        7.3 secs

     End of self-consistent calculation

          k = 0.0000 0.0000 0.0000 ( 11936 PWs)   bands (ev):

    -5.7436  -4.8813  -4.8092  -4.6625  -4.6008  -4.4355  -4.2360  -4.0067
    -3.8143  -3.7764  -3.6952  -3.4979  -3.4450  -3.3728  -3.2946  -3.2199
    -3.0958  -3.0625  -2.9384  -2.6784  -2.5721  -2.4492  -2.3853  -2.2255
    -2.1115  -1.9974  -1.7809  -1.5065  -1.3581  -1.2792  -1.1411  -1.0559
    -0.8831  -0.8036  -0.6902  -0.6101  -0.5468  -0.4939  -0.3714  -0.3452
    -0.3105  -0.1874  -0.0807   0.0449   0.1111   0.1554   0.2632   0.3349
     0.3918   0.5695   0.7038   0.7679   0.8479   0.9829   1.0193   1.1318
     1.1723   1.2392   1.3205   1.3854   1.5101   1.8073   1.9329   1.9804
     2.0138   2.0269   2.1463   2.2804   2.3463   2.3716   2.4459   2.5016
     2.5864   2.7194   2.7761   2.8756   3.0211   3.0468   3.1113   3.2535
     3.3759   3.5310   3.6099   3.6949   3.7656   3.8898   3.9678   4.0354
     4.1548   4.1924   4.2080   4.2727   4.4227   4.4708   4.5147   4.5455
     4.6188   4.6348   4.6612   4.7015   4.7864   4.8177   4.8823   4.9433
     4.9827   5.0413   5.1174   5.1526   5.2240   5.2985   5.3837   5.4357
     5.4774   5.5045   5.6028   5.6200   5.6709   5.7591   5.8049   5.9077
     5.9486   6.0140   6.0470   6.1478   6.2299   6.2702   6.3253   6.3993
     6.4110   6.4223   6.5685   6.6023   6.6558   6.7056   6.8025   6.8714
     6.9528   6.9980   7.1383   7.1939   7.2622   7.2659   7.3061   7.3683
     7.4789   7.5241   7.6175   7.6609   7.7359   7.8128   7.8419   7.8843
     7.9669   8.0588

     the Fermi energy is     6.4015 ev

!    total energy              =    -501.48857783 Ry
     estimated scf accuracy    <       0.00000026 Ry
     smearing contrib. (-TS)   =      -0.15033576 Ry
     internal energy E=F+TS    =    -501.33824207 Ry

     The total energy is F=E-TS. E is the sum of the following terms:
     one-electron contribution =     159.76975673 Ry
     hartree contribution      =      31.94013861 Ry
     xc contribution           =    -149.65785626 Ry
     ewald contribution        =    -543.39028115 Ry

     convergence has been achieved in  19 iterations

     Forces acting on atoms (cartesian axes, Ry/au):

     atom    1 type  1   force =    -0.00290737   -0.00568378   -0.01356693
     atom    2 type  1   force =    -0.01226141    0.07434516   -0.01996507
     atom    3 type  1   force =     0.03148401   -0.00390718   -0.02016295
     atom    4 type  1   force =    -0.02022155    0.02380544   -0.05619822
     atom    5 type  1   force =    -0.04742469    0.04409335    0.02754773
     atom    6 type  1   force =    -0.00944288   -0.01923272    0.00525608
     atom    7 type  1   force =    -0.01752755   -0.00687953   -0.01800411
     atom    8 type  1   force =    -0.00126458   -0.01912444    0.02461901
     atom    9 type  1   force =     0.03964656    0.04105780   -0.00791859
     atom   10 type  1   force =     0.00170319   -0.03003213    0.01610076
     atom   11 type  1   force =     0.00964349    0.03169236    0.01985414
     atom   12 type  1   force =     0.01678739   -0.00172176   -0.01452251
     atom   13 type  1   force =    -0.05099119    0.00677577   -0.02074909
     atom   14 type  1   force =     0.01889918    0.00183591    0.02307807
     atom   15 type  1   force =     0.02386423   -0.01504785    0.00705978
     atom   16 type  1   force =    -0.03118207    0.00583318    0.00826029
     atom   17 type  1   force =    -0.00422176    0.02984779   -0.01534177
     atom   18 type  1   force =    -0.02008160    0.00064353    0.00836147
     atom   19 type  1   force =     0.00349601   -0.02167469   -0.01640496
     atom   20 type  1   force =    -0.01856819   -0.03806231    0.00126500
     atom   21 type  1   force =     0.07932019   -0.09772800    0.11886255
     atom   22 type  1   force =     0.00868467   -0.00313749   -0.02177917
     atom   23 type  1   force =     0.03685656   -0.03879101    0.02831780
     atom   24 type  1   force =     0.00090057   -0.05007799    0.02704077
     atom   25 type  1   force =    -0.02495534    0.01762210   -0.00361901
     atom   26 type  1   force =     0.01966503   -0.00753254   -0.02281900
     atom   27 type  1   force =    -0.01295037   -0.00079692    0.00934168
     atom   28 type  1   force =     0.00462490    0.01918278    0.00991296
     atom   29 type  1   force =     0.03418616   -0.00656344   -0.00182632
     atom   30 type  1   force =    -0.02926407    0.01840005   -0.02286804
     atom   31 type  1   force =     0.01101354   -0.01831145   -0.02925186
     atom   32 type  1   force =    -0.02049781   -0.02218118    0.03722459
     atom   33 type  1   force =     0.01651620    0.03850714    0.06839958
     atom   34 type  1   force =     0.01678474   -0.00503156   -0.00226573
     atom   35 type  1   force =    -0.02705289   -0.00321140   -0.01695411
     atom   36 type  1   force =    -0.03713378   -0.04099408    0.04133366
     atom   37 type  1   force =    -0.00367292    0.04385734   -0.02509246
     atom   38 type  1   force =    -0.03956095   -0.02594005    0.00896233
     atom   39 type  1   force =     0.02267441   -0.00492725    0.01052799
     atom   40 type  1   force =     0.00199474   -0.00509062   -0.03219555
     atom   41 type  1   force =     0.01697677   -0.00005651   -0.00974820
     atom   42 type  1   force =     0.02739317    0.01945571    0.00900582
     atom   43 type  1   force =    -0.01020098    0.02789161    0.01915343
     atom   44 type  1   force =    -0.00114784   -0.00517827   -0.00097446
     atom   45 type  1   force =    -0.01777758    0.03306394    0.03330456
     atom   46 type  1   force =     0.00763057   -0.00534034   -0.01823999
     atom   47 type  1   force =     0.01816498   -0.03104220    0.03001972
     atom   48 type  1   force =     0.04171144   -0.01756462    0.01877119
     atom   49 type  1   force =     0.01957598    0.00690455    0.01096264
     atom   50 type  1   force =    -0.00755337   -0.00333384   -0.00489864
     atom   51 type  1   force =     0.00098213   -0.02154774   -0.02319114
     atom   52 type  1   force =    -0.00213608   -0.01562362   -0.01910203
     atom   53 type  1   force =    -0.08994121    0.11830605   -0.12874379
     atom   54 type  1   force =     0.02572562   -0.00813429   -0.00425892
     atom   55 type  1   force =    -0.00493087    0.00553106    0.00695595
     atom   56 type  1   force =     0.01412069    0.03558816    0.00250280
     atom   57 type  1   force =     0.01618402    0.03244191   -0.01635014
     atom   58 type  1   force =    -0.00911583   -0.05385322    0.03655124
     atom   59 type  1   force =     0.01920057    0.00779252    0.02195569
     atom   60 type  1   force =     0.00845301   -0.01297855   -0.03245244
     atom   61 type  1   force =    -0.01109710    0.03943739    0.00911922
     atom   62 type  1   force =     0.01192207    0.02732597   -0.01399824
     atom   63 type  1   force =    -0.04004502   -0.02419801   -0.03485153
     atom   64 type  1   force =    -0.00165793   -0.06070600   -0.01131354

     Total force =     0.416004     Total SCF correction =     0.000925


     Computing stress (Cartesian axis) and pressure

          total   stress  (Ry/bohr**3)                   (kbar)     P=      -46.61
  -0.00023026  -0.00000031   0.00000486          -33.87       -0.05        0.71
  -0.00000031  -0.00035957  -0.00006691           -0.05      -52.90       -9.84
   0.00000486  -0.00006691  -0.00036071            0.71       -9.84      -53.06

 
     init_run     :      1.10s CPU      4.95s WALL (       1 calls)
     electrons    :      2.13s CPU      2.29s WALL (       1 calls)
     forces       :      0.04s CPU      0.04s WALL (       1 calls)
     stress       :      0.16s CPU      0.16s WALL (       1 calls)

     Called by init_run:
     wfcinit      :      0.57s CPU      4.23s WALL (       1 calls)
                                        4.23s GPU  (       1 calls)
     potinit      :      0.05s CPU      0.15s WALL (       1 calls)
     hinit0       :      0.47s CPU      0.50s WALL (       1 calls)

     Called by electrons:
     c_bands      :      1.30s CPU      1.36s WALL (      20 calls)
     sum_band     :      0.41s CPU      0.45s WALL (      20 calls)
     v_of_rho     :      0.18s CPU      0.30s WALL (      20 calls)
     mix_rho      :      0.20s CPU      0.21s WALL (      20 calls)

     Called by c_bands:
     init_us_2    :      0.07s CPU      0.08s WALL (      41 calls)
     init_us_2:gp :      0.07s CPU      0.08s WALL (      41 calls)
     regterg      :      1.13s CPU      1.19s WALL (      20 calls)

     Called by *egterg:
     rdiaghg      :      0.48s CPU      1.24s WALL (      98 calls)
                                        1.22s GPU  (      98 calls)
     h_psi        :      1.01s CPU      3.95s WALL (     100 calls)
                                        3.95s GPU  (     100 calls)
     g_psi        :      0.00s CPU      0.00s WALL (      79 calls)
                                        0.00s GPU  (      79 calls)

     Called by h_psi:
     h_psi:calbec :      0.54s CPU      3.41s WALL (     100 calls)
                                        3.40s GPU  (     100 calls)
     vloc_psi     :      0.41s CPU      0.48s WALL (     100 calls)
                                        0.47s GPU  (     100 calls)
     add_vuspsi   :      0.04s CPU      0.06s WALL (     100 calls)
                                        0.06s GPU  (     100 calls)

     General routines
     calbec       :      0.55s CPU      3.41s WALL (     105 calls)
     fft          :      0.63s CPU      0.78s WALL (     167 calls)
                                        0.14s GPU  (     106 calls)
     ffts         :      0.05s CPU      0.06s WALL (      20 calls)
     fftw         :      0.49s CPU      0.63s WALL (    2128 calls)
                                        0.55s GPU  (    2128 calls)
 
     Parallel routines
 
     PWSCF        :      3.48s CPU      7.53s WALL

 
   This run was terminated on:  11: 1: 5  10May2023            

=------------------------------------------------------------------------------=
   JOB DONE.
=------------------------------------------------------------------------------=
