An instance of this daemon is already running

     Program PWSCF v.7.1 starts on 10May2023 at 11: 7:36 

     This program is part of the open-source Quantum ESPRESSO suite
     for quantum simulation of materials; please cite
         "P. Giannozzi et al., J. Phys.:Condens. Matter 21 395502 (2009);
         "P. Giannozzi et al., J. Phys.:Condens. Matter 29 465901 (2017);
         "P. Giannozzi et al., J. Chem. Phys. 152 154105 (2020);
          URL http://www.quantum-espresso.org", 
     in publications or presentations arising from this work. More details at
     http://www.quantum-espresso.org/quote

     Parallel version (MPI & OpenMP), running on       4 processor cores
     Number of MPI processes:                 4
     Threads/MPI process:                     1

     MPI processes distributed on     1 nodes
     753565 MiB available memory on the printing compute node when the environment starts
 
     Reading input from pw-si-84.in
Warning: card &CELL ignored
Warning: card / ignored

     Current dimensions of program PWSCF are:
     Max number of different atomic species (ntypx) = 10
     Max number of k-points (npk) =  40000
     Max angular momentum in pseudopotentials (lmaxx) =  4

     IMPORTANT: XC functional enforced from input :
     Exchange-correlation= PBE
                           (   1   4   3   4   0   0   0)
     Any further DFT definition will be discarded
     Please, verify this is what you really want


     gamma-point specific algorithms are used
 
     K-points division:     npool     =       2
     R & G space division:  proc/nbgrp/npool/nimage =       2
     Subspace diagonalization in iterative solution of the eigenvalue problem:
     a serial algorithm will be used

     Message from routine divide_et_impera:
     suboptimal parallelization: some nodes have no k-points
 
     Parallelization info
     --------------------
     sticks:   dense  smooth     PW     G-vecs:    dense   smooth      PW
     Min        1953    1953    519                91815    91815   12442
     Max        1956    1956    522                91820    91820   12443
     Sum        3909    3909   1041               183635   183635   24885
 
     Using Slab Decomposition
 


     bravais-lattice index     =            0
     lattice parameter (alat)  =      20.2189  a.u.
     unit-cell volume          =    8265.5590 (a.u.)^3
     number of atoms/cell      =           64
     number of atomic types    =            1
     number of electrons       =       256.00
     number of Kohn-Sham states=          154
     kinetic-energy cutoff     =      30.0000  Ry
     charge density cutoff     =     120.0000  Ry
     scf convergence threshold =      1.0E-06
     mixing beta               =       0.5000
     number of iterations used =            8  plain     mixing
     Exchange-correlation= PBE
                           (   1   4   3   4   0   0   0)

     GPU acceleration is ACTIVE.
     GPU-aware MPI enabled

     Message from routine print_cuda_info:
     High GPU oversubscription detected. Are you sure this is what you want?

     celldm(1)=  20.218895  celldm(2)=   0.000000  celldm(3)=   0.000000
     celldm(4)=   0.000000  celldm(5)=   0.000000  celldm(6)=   0.000000

     crystal axes: (cart. coord. in units of alat)
               a(1) = (   1.000000   0.000000   0.000000 )  
               a(2) = (   0.000000   1.000000   0.000000 )  
               a(3) = (   0.000000   0.000000   1.000000 )  

     reciprocal axes: (cart. coord. in units 2 pi/alat)
               b(1) = (  1.000000  0.000000  0.000000 )  
               b(2) = (  0.000000  1.000000  0.000000 )  
               b(3) = (  0.000000  0.000000  1.000000 )  


     PseudoPot. # 1 for Si read from file:
     /home/ppiaggi/pseudos/Si_ONCV_PBE_sr.upf
     MD5 check sum: 8553c464762ac42b85b1eed164b4d029
     Pseudo is Norm-conserving, Zval =  4.0
     Generated using ONCVPSP code by D. R. Hamann
     Using radial grid of 1510 points,  4 beta functions with: 
                l(1) =   0
                l(2) =   0
                l(3) =   1
                l(4) =   1

     atomic species   valence    mass     pseudopotential
        Si             4.00    28.08500     Si( 1.00)

     No symmetry found



   Cartesian axes

     site n.     atom                  positions (alat units)
         1           Si  tau(   1) = (   0.9767730   0.0793665   0.8807830  )
         2           Si  tau(   2) = (   0.4915020   0.1999310   0.7613090  )
         3           Si  tau(   3) = (   0.6647580   0.4818350   0.2697240  )
         4           Si  tau(   4) = (   0.4778910   0.9519030   0.8816820  )
         5           Si  tau(   5) = (   0.0033554   0.7007060   0.5238750  )
         6           Si  tau(   6) = (   0.6459000   0.8484740   0.6746470  )
         7           Si  tau(   7) = (   0.7979990   0.3400010   0.4338710  )
         8           Si  tau(   8) = (   0.1261150   0.7475630   0.2805460  )
         9           Si  tau(   9) = (   0.7652150   0.5941130   0.7947180  )
        10           Si  tau(  10) = (   0.1948680   0.6338680   0.0651892  )
        11           Si  tau(  11) = (   0.5067980   0.6209610   0.0683719  )
        12           Si  tau(  12) = (   0.5012580   0.3593090   0.4118630  )
        13           Si  tau(  13) = (   0.6357800   0.4760980   0.6010620  )
        14           Si  tau(  14) = (   0.1951060   0.0071465   0.5669260  )
        15           Si  tau(  15) = (   0.7398500   0.2411500   0.7114360  )
        16           Si  tau(  16) = (   0.2717620   0.0462748   0.7732750  )
        17           Si  tau(  17) = (   0.0265655   0.5293020   0.9644570  )
        18           Si  tau(  18) = (   0.7126120   0.6790230   0.1229420  )
        19           Si  tau(  19) = (   0.7531730   0.0351412   0.7875930  )
        20           Si  tau(  20) = (   0.9327100   0.6089610   0.2517730  )
        21           Si  tau(  21) = (   0.7626550   0.6276230   0.4407700  )
        22           Si  tau(  22) = (   0.9352480   0.4108150   0.1154180  )
        23           Si  tau(  23) = (   0.8134410   0.1462780   0.3002020  )
        24           Si  tau(  24) = (   0.9575540   0.2361670   0.6453880  )
        25           Si  tau(  25) = (   0.6075000   0.1833120   0.4919990  )
        26           Si  tau(  26) = (   0.8585050   0.2011430   0.0905116  )
        27           Si  tau(  27) = (   0.2657230   0.9379510   0.1873650  )
        28           Si  tau(  28) = (   0.8773440   0.7998820   0.7021440  )
        29           Si  tau(  29) = (   0.2456290   0.7798600   0.8847550  )
        30           Si  tau(  30) = (   0.5452000   0.4045730   0.9265880  )
        31           Si  tau(  31) = (   0.9837570   0.9196330   0.1423230  )
        32           Si  tau(  32) = (   0.7227600   0.9092730   0.1739600  )
        33           Si  tau(  33) = (   0.5543740   0.6971990   0.8346820  )
        34           Si  tau(  34) = (   0.3888700   0.9156350   0.3865140  )
        35           Si  tau(  35) = (   0.3190780   0.6288460   0.7228580  )
        36           Si  tau(  36) = (   0.1518620   0.4666330   0.7969520  )
        37           Si  tau(  37) = (   0.3134400   0.3595590   0.9694350  )
        38           Si  tau(  38) = (   0.0129878   0.4615490   0.4160320  )
        39           Si  tau(  39) = (   0.0427623   0.8692890   0.8881060  )
        40           Si  tau(  40) = (   0.3384230   0.2760640   0.5760750  )
        41           Si  tau(  41) = (   0.3512680   0.5268500   0.1860090  )
        42           Si  tau(  42) = (   0.0924573   0.1083970   0.0736576  )
        43           Si  tau(  43) = (   0.9489250   0.5010100   0.6479950  )
        44           Si  tau(  44) = (   0.3529610   0.3164460   0.2387300  )
        45           Si  tau(  45) = (   0.8176430   0.3919700   0.8672860  )
        46           Si  tau(  46) = (   0.4802440   0.1514780   0.1345300  )
        47           Si  tau(  47) = (   0.6497390   0.3214430   0.1143550  )
        48           Si  tau(  48) = (   0.4596530   0.4696140   0.7182150  )
        49           Si  tau(  49) = (   0.5077720   0.0231078   0.6095260  )
        50           Si  tau(  50) = (   0.2089800   0.4865040   0.5096950  )
        51           Si  tau(  51) = (   0.8795540   0.6895250   0.9637170  )
        52           Si  tau(  52) = (   0.6783370   0.0427909   0.0086482  )
        53           Si  tau(  53) = (   0.9878170   0.0113216   0.5584890  )
        54           Si  tau(  54) = (   0.5752400   0.0361033   0.3183310  )
        55           Si  tau(  55) = (   0.2977080   0.1254250   0.9824760  )
        56           Si  tau(  56) = (   0.3060700   0.6893610   0.3931470  )
        57           Si  tau(  57) = (   0.8993900   0.8961750   0.3717470  )
        58           Si  tau(  58) = (   0.1336460   0.2417660   0.7537860  )
        59           Si  tau(  59) = (   0.0311297   0.1860040   0.4084090  )
        60           Si  tau(  60) = (   0.6719370   0.8099980   0.4014370  )
        61           Si  tau(  61) = (   0.2159670   0.7544970   0.5799980  )
        62           Si  tau(  62) = (   0.1168900   0.3075720   0.2124240  )
        63           Si  tau(  63) = (   0.3879870   0.8352610   0.0450048  )
        64           Si  tau(  64) = (   0.2638060   0.1238850   0.4021670  )

     number of k points=     1  Fermi-Dirac smearing, width (Ry)=  0.0100
                       cart. coord. in units 2pi/alat
        k(    1) = (   0.0000000   0.0000000   0.0000000), wk =   2.0000000

     Dense  grid:    91818 G-vectors     FFT dimensions: (  72,  72,  72)

     Estimated max dynamical RAM per process >     147.09 MB

     Estimated total dynamical RAM >     565.96 MB

     Initial potential from superposition of free atoms

     starting charge     255.9608, renormalised to     256.0000
     Starting wfcs are  256 randomized atomic wfcs

     total cpu time spent up to now is        5.0 secs

     Self-consistent Calculation

     iteration #  1     ecut=    30.00 Ry     beta= 0.50
     Davidson diagonalization with overlap
     ethr =  1.00E-02,  avg # of iterations =  3.0

     Threshold (ethr) on eigenvalues was too large:
     Diagonalizing with lowered threshold

     Davidson diagonalization with overlap
     ethr =  3.81E-04,  avg # of iterations =  4.0

     total cpu time spent up to now is        5.3 secs

     total energy              =    -501.28895103 Ry
     estimated scf accuracy    <       1.17966919 Ry

     iteration #  2     ecut=    30.00 Ry     beta= 0.50
     Davidson diagonalization with overlap
     ethr =  4.61E-04,  avg # of iterations =  4.0

     total cpu time spent up to now is        5.4 secs

     total energy              =    -500.99212452 Ry
     estimated scf accuracy    <       2.68996441 Ry

     iteration #  3     ecut=    30.00 Ry     beta= 0.50
     Davidson diagonalization with overlap
     ethr =  4.61E-04,  avg # of iterations =  4.0

     total cpu time spent up to now is        5.5 secs

     total energy              =    -501.26735780 Ry
     estimated scf accuracy    <       2.54421861 Ry

     iteration #  4     ecut=    30.00 Ry     beta= 0.50
     Davidson diagonalization with overlap
     ethr =  4.61E-04,  avg # of iterations =  2.0

     total cpu time spent up to now is        5.6 secs

     total energy              =    -501.43076299 Ry
     estimated scf accuracy    <       0.41178448 Ry

     iteration #  5     ecut=    30.00 Ry     beta= 0.50
     Davidson diagonalization with overlap
     ethr =  1.61E-04,  avg # of iterations =  3.0

     total cpu time spent up to now is        5.7 secs

     total energy              =    -501.45839140 Ry
     estimated scf accuracy    <       0.30081951 Ry

     iteration #  6     ecut=    30.00 Ry     beta= 0.50
     Davidson diagonalization with overlap
     ethr =  1.18E-04,  avg # of iterations =  2.0

     total cpu time spent up to now is        5.8 secs

     total energy              =    -501.48602563 Ry
     estimated scf accuracy    <       0.12359991 Ry

     iteration #  7     ecut=    30.00 Ry     beta= 0.50
     Davidson diagonalization with overlap
     ethr =  4.83E-05,  avg # of iterations =  2.0

     total cpu time spent up to now is        5.9 secs

     total energy              =    -501.49422115 Ry
     estimated scf accuracy    <       0.02702244 Ry

     iteration #  8     ecut=    30.00 Ry     beta= 0.50
     Davidson diagonalization with overlap
     ethr =  1.06E-05,  avg # of iterations =  8.0

     total cpu time spent up to now is        6.0 secs

     total energy              =    -501.49772151 Ry
     estimated scf accuracy    <       0.01688764 Ry

     iteration #  9     ecut=    30.00 Ry     beta= 0.50
     Davidson diagonalization with overlap
     ethr =  6.60E-06,  avg # of iterations =  2.0

     total cpu time spent up to now is        6.1 secs

     total energy              =    -501.49897636 Ry
     estimated scf accuracy    <       0.00148719 Ry

     iteration # 10     ecut=    30.00 Ry     beta= 0.50
     Davidson diagonalization with overlap
     ethr =  5.81E-07,  avg # of iterations = 14.0

     total cpu time spent up to now is        6.3 secs

     total energy              =    -501.49909969 Ry
     estimated scf accuracy    <       0.00306195 Ry

     iteration # 11     ecut=    30.00 Ry     beta= 0.50
     Davidson diagonalization with overlap
     ethr =  5.81E-07,  avg # of iterations =  3.0

     total cpu time spent up to now is        6.4 secs

     total energy              =    -501.49933781 Ry
     estimated scf accuracy    <       0.00033965 Ry

     iteration # 12     ecut=    30.00 Ry     beta= 0.50
     Davidson diagonalization with overlap
     ethr =  1.33E-07,  avg # of iterations =  2.0

     total cpu time spent up to now is        6.5 secs

     total energy              =    -501.49937202 Ry
     estimated scf accuracy    <       0.00013287 Ry

     iteration # 13     ecut=    30.00 Ry     beta= 0.50
     Davidson diagonalization with overlap
     ethr =  5.19E-08,  avg # of iterations =  3.0

     total cpu time spent up to now is        6.6 secs

     total energy              =    -501.49938095 Ry
     estimated scf accuracy    <       0.00010061 Ry

     iteration # 14     ecut=    30.00 Ry     beta= 0.50
     Davidson diagonalization with overlap
     ethr =  3.93E-08,  avg # of iterations =  2.0

     total cpu time spent up to now is        6.7 secs

     total energy              =    -501.49938904 Ry
     estimated scf accuracy    <       0.00003445 Ry

     iteration # 15     ecut=    30.00 Ry     beta= 0.50
     Davidson diagonalization with overlap
     ethr =  1.35E-08,  avg # of iterations =  2.0

     total cpu time spent up to now is        6.8 secs

     total energy              =    -501.49939117 Ry
     estimated scf accuracy    <       0.00001685 Ry

     iteration # 16     ecut=    30.00 Ry     beta= 0.50
     Davidson diagonalization with overlap
     ethr =  6.58E-09,  avg # of iterations =  2.0

     total cpu time spent up to now is        6.9 secs

     total energy              =    -501.49939279 Ry
     estimated scf accuracy    <       0.00000918 Ry

     iteration # 17     ecut=    30.00 Ry     beta= 0.50
     Davidson diagonalization with overlap
     ethr =  3.58E-09,  avg # of iterations =  2.0

     total cpu time spent up to now is        7.0 secs

     total energy              =    -501.49939317 Ry
     estimated scf accuracy    <       0.00000229 Ry

     iteration # 18     ecut=    30.00 Ry     beta= 0.50
     Davidson diagonalization with overlap
     ethr =  8.95E-10,  avg # of iterations =  3.0

     total cpu time spent up to now is        7.1 secs

     total energy              =    -501.49939348 Ry
     estimated scf accuracy    <       0.00000274 Ry

     iteration # 19     ecut=    30.00 Ry     beta= 0.50
     Davidson diagonalization with overlap
     ethr =  8.95E-10,  avg # of iterations =  2.0

     total cpu time spent up to now is        7.2 secs

     End of self-consistent calculation

          k = 0.0000 0.0000 0.0000 ( 11492 PWs)   bands (ev):

    -5.4300  -4.4916  -4.4094  -4.3205  -4.2902  -4.2049  -3.9870  -3.5750
    -3.4524  -3.3982  -3.2946  -3.2189  -3.1666  -3.0804  -3.0456  -2.9399
    -2.8272  -2.5703  -2.4627  -2.2867  -2.1237  -2.0695  -1.9907  -1.8313
    -1.6626  -1.5376  -1.4296  -1.0866  -0.8842  -0.8711  -0.8112  -0.7034
    -0.4883  -0.3835  -0.2169  -0.1500  -0.0784   0.0403   0.0731   0.1030
     0.1702   0.3357   0.4123   0.4952   0.5747   0.6166   0.7417   0.7611
     0.8326   0.9256   1.0343   1.1801   1.2855   1.3476   1.3923   1.4893
     1.6944   1.7786   1.8415   1.8698   1.9975   2.0702   2.1669   2.2756
     2.4035   2.4733   2.5411   2.6079   2.7411   2.8312   2.8522   2.9532
     2.9644   3.0119   3.0858   3.1563   3.2145   3.3927   3.4548   3.5779
     3.6729   3.9831   4.1102   4.1947   4.2857   4.3925   4.5074   4.5284
     4.6420   4.6892   4.7336   4.8212   4.8436   4.9421   5.0117   5.0393
     5.0853   5.2498   5.2886   5.3211   5.3760   5.4062   5.4482   5.5111
     5.6013   5.6167   5.6675   5.6887   5.7566   5.7860   5.8886   5.8991
     5.9658   6.0139   6.0985   6.1075   6.1706   6.2867   6.3959   6.4177
     6.4793   6.5180   6.5502   6.6383   6.7176   6.7425   6.8189   6.8924
     6.9511   7.0255   7.0664   7.1131   7.2210   7.2994   7.3210   7.3639
     7.4258   7.4927   7.5318   7.6313   7.6748   7.7221   7.7615   7.9034
     7.9954   8.0498   8.1331   8.1756   8.2007   8.2935   8.3019   8.4484
     8.5616   8.6001

     the Fermi energy is     6.9189 ev

!    total energy              =    -501.49939350 Ry
     estimated scf accuracy    <       0.00000024 Ry
     smearing contrib. (-TS)   =      -0.14489771 Ry
     internal energy E=F+TS    =    -501.35449579 Ry

     The total energy is F=E-TS. E is the sum of the following terms:
     one-electron contribution =     180.30868499 Ry
     hartree contribution      =      26.45041997 Ry
     xc contribution           =    -150.64346401 Ry
     ewald contribution        =    -557.47013674 Ry

     convergence has been achieved in  19 iterations

     Forces acting on atoms (cartesian axes, Ry/au):

     atom    1 type  1   force =    -0.01085868    0.02568362   -0.00706923
     atom    2 type  1   force =    -0.02652433   -0.00400009   -0.00695350
     atom    3 type  1   force =    -0.00015021   -0.00142355    0.03754805
     atom    4 type  1   force =     0.00846926    0.00564345   -0.02452556
     atom    5 type  1   force =    -0.01707936   -0.01732038    0.01390383
     atom    6 type  1   force =     0.00751298    0.01557533   -0.00216286
     atom    7 type  1   force =    -0.00676489    0.00940964    0.00219833
     atom    8 type  1   force =    -0.03433179    0.01169549   -0.06582974
     atom    9 type  1   force =    -0.01383788    0.01492461   -0.01222584
     atom   10 type  1   force =    -0.02176894    0.01049850    0.02408110
     atom   11 type  1   force =     0.01757584    0.02760765   -0.04364583
     atom   12 type  1   force =     0.00980329    0.01437243    0.00649167
     atom   13 type  1   force =     0.07620082    0.00375082   -0.06585319
     atom   14 type  1   force =     0.04010144   -0.06248474    0.03935294
     atom   15 type  1   force =    -0.00693373    0.02304448   -0.02835068
     atom   16 type  1   force =     0.02951961    0.00381203   -0.00018543
     atom   17 type  1   force =     0.03312017    0.01760893   -0.00823261
     atom   18 type  1   force =     0.01907960    0.02970380    0.01213833
     atom   19 type  1   force =     0.00621523   -0.02546837    0.04561196
     atom   20 type  1   force =     0.00255158   -0.02442791    0.02207823
     atom   21 type  1   force =     0.02036150   -0.08071964    0.00826658
     atom   22 type  1   force =    -0.00599307   -0.00174877    0.03199013
     atom   23 type  1   force =     0.00416649   -0.01075629    0.01425020
     atom   24 type  1   force =    -0.05189771    0.00022262   -0.06267845
     atom   25 type  1   force =     0.02984719   -0.00029007   -0.00806810
     atom   26 type  1   force =    -0.04431438   -0.00266107   -0.01816632
     atom   27 type  1   force =    -0.03076397    0.00329085    0.04378098
     atom   28 type  1   force =     0.01699899   -0.00400888   -0.00317845
     atom   29 type  1   force =     0.00489977   -0.00792612    0.01348548
     atom   30 type  1   force =    -0.03639561    0.00262212    0.00347441
     atom   31 type  1   force =     0.00535720   -0.01320500    0.01654994
     atom   32 type  1   force =     0.02008808   -0.01991806    0.02222037
     atom   33 type  1   force =    -0.00317658   -0.00546078   -0.01279571
     atom   34 type  1   force =    -0.00650830    0.01064650   -0.01069358
     atom   35 type  1   force =    -0.03159457    0.01090008    0.03722890
     atom   36 type  1   force =     0.00698089   -0.01819009   -0.01322613
     atom   37 type  1   force =     0.01092830    0.00303072    0.00099956
     atom   38 type  1   force =    -0.01124417   -0.00946270   -0.01544070
     atom   39 type  1   force =    -0.02839160   -0.03045167    0.00386999
     atom   40 type  1   force =     0.00650577    0.02396527    0.01451164
     atom   41 type  1   force =    -0.01282398    0.01355975    0.00324204
     atom   42 type  1   force =     0.00265996    0.00661468    0.03481781
     atom   43 type  1   force =     0.01677483   -0.00209338   -0.00397487
     atom   44 type  1   force =    -0.02522144   -0.02659211    0.01713591
     atom   45 type  1   force =    -0.01295529   -0.00872369    0.01955136
     atom   46 type  1   force =     0.01775569    0.01561229   -0.00201775
     atom   47 type  1   force =     0.00010940   -0.03055765   -0.02008576
     atom   48 type  1   force =    -0.00684875   -0.02949866    0.03053626
     atom   49 type  1   force =    -0.01623178   -0.01017473    0.01857812
     atom   50 type  1   force =     0.01826506    0.00286211    0.00986731
     atom   51 type  1   force =    -0.00430194    0.02341964   -0.01791452
     atom   52 type  1   force =    -0.00797830    0.02439566   -0.03984088
     atom   53 type  1   force =    -0.05700106   -0.00117233   -0.00288583
     atom   54 type  1   force =     0.01560648   -0.01994172   -0.01698056
     atom   55 type  1   force =     0.02037457    0.01832604   -0.00044630
     atom   56 type  1   force =     0.01673821   -0.01683713   -0.02156246
     atom   57 type  1   force =    -0.01988053    0.01105396    0.00094881
     atom   58 type  1   force =     0.04096899    0.00571638    0.03308343
     atom   59 type  1   force =    -0.00633512    0.02380955   -0.01669779
     atom   60 type  1   force =     0.00814891    0.09688205    0.00152302
     atom   61 type  1   force =    -0.02290343    0.02702161   -0.01262413
     atom   62 type  1   force =     0.00945949   -0.03701860    0.02285212
     atom   63 type  1   force =     0.02396536   -0.04343765   -0.02049755
     atom   64 type  1   force =     0.01390046    0.02868918   -0.02135845

     Total force =     0.336149     Total SCF correction =     0.000935


     Computing stress (Cartesian axis) and pressure

          total   stress  (Ry/bohr**3)                   (kbar)     P=      -31.43
  -0.00021387  -0.00005266  -0.00003387          -31.46       -7.75       -4.98
  -0.00005266  -0.00027729  -0.00003929           -7.75      -40.79       -5.78
  -0.00003387  -0.00003929  -0.00014990           -4.98       -5.78      -22.05

 
     init_run     :      1.07s CPU      4.93s WALL (       1 calls)
     electrons    :      2.03s CPU      2.20s WALL (       1 calls)
     forces       :      0.04s CPU      0.04s WALL (       1 calls)
     stress       :      0.15s CPU      0.16s WALL (       1 calls)

     Called by init_run:
     wfcinit      :      0.52s CPU      4.21s WALL (       1 calls)
                                        4.21s GPU  (       1 calls)
     potinit      :      0.06s CPU      0.15s WALL (       1 calls)
     hinit0       :      0.47s CPU      0.50s WALL (       1 calls)

     Called by electrons:
     c_bands      :      1.19s CPU      1.27s WALL (      20 calls)
     sum_band     :      0.41s CPU      0.46s WALL (      20 calls)
     v_of_rho     :      0.20s CPU      0.30s WALL (      20 calls)
     mix_rho      :      0.19s CPU      0.21s WALL (      20 calls)

     Called by c_bands:
     init_us_2    :      0.07s CPU      0.08s WALL (      41 calls)
     init_us_2:gp :      0.07s CPU      0.07s WALL (      41 calls)
     regterg      :      1.02s CPU      1.09s WALL (      20 calls)

     Called by *egterg:
     rdiaghg      :      0.43s CPU      1.18s WALL (      88 calls)
                                        1.16s GPU  (      88 calls)
     h_psi        :      0.93s CPU      3.91s WALL (      90 calls)
                                        3.91s GPU  (      90 calls)
     g_psi        :      0.00s CPU      0.00s WALL (      69 calls)
                                        0.00s GPU  (      69 calls)

     Called by h_psi:
     h_psi:calbec :      0.48s CPU      3.39s WALL (      90 calls)
                                        3.39s GPU  (      90 calls)
     vloc_psi     :      0.39s CPU      0.46s WALL (      90 calls)
                                        0.46s GPU  (      90 calls)
     add_vuspsi   :      0.04s CPU      0.06s WALL (      90 calls)
                                        0.05s GPU  (      90 calls)

     General routines
     calbec       :      0.48s CPU      3.39s WALL (      95 calls)
     fft          :      0.64s CPU      0.78s WALL (     167 calls)
                                        0.14s GPU  (     106 calls)
     ffts         :      0.05s CPU      0.06s WALL (      20 calls)
     fftw         :      0.49s CPU      0.63s WALL (    2102 calls)
                                        0.55s GPU  (    2102 calls)
 
     Parallel routines
 
     PWSCF        :      3.33s CPU      7.42s WALL

 
   This run was terminated on:  11: 7:43  10May2023            

=------------------------------------------------------------------------------=
   JOB DONE.
=------------------------------------------------------------------------------=
