An instance of this daemon is already running

     Program PWSCF v.7.1 starts on 10May2023 at 11: 5:40 

     This program is part of the open-source Quantum ESPRESSO suite
     for quantum simulation of materials; please cite
         "P. Giannozzi et al., J. Phys.:Condens. Matter 21 395502 (2009);
         "P. Giannozzi et al., J. Phys.:Condens. Matter 29 465901 (2017);
         "P. Giannozzi et al., J. Chem. Phys. 152 154105 (2020);
          URL http://www.quantum-espresso.org", 
     in publications or presentations arising from this work. More details at
     http://www.quantum-espresso.org/quote

     Parallel version (MPI & OpenMP), running on       4 processor cores
     Number of MPI processes:                 4
     Threads/MPI process:                     1

     MPI processes distributed on     1 nodes
     753568 MiB available memory on the printing compute node when the environment starts
 
     Reading input from pw-si-72.in
Warning: card &CELL ignored
Warning: card / ignored

     Current dimensions of program PWSCF are:
     Max number of different atomic species (ntypx) = 10
     Max number of k-points (npk) =  40000
     Max angular momentum in pseudopotentials (lmaxx) =  4

     IMPORTANT: XC functional enforced from input :
     Exchange-correlation= PBE
                           (   1   4   3   4   0   0   0)
     Any further DFT definition will be discarded
     Please, verify this is what you really want


     gamma-point specific algorithms are used
 
     K-points division:     npool     =       2
     R & G space division:  proc/nbgrp/npool/nimage =       2
     Subspace diagonalization in iterative solution of the eigenvalue problem:
     a serial algorithm will be used

     Message from routine divide_et_impera:
     suboptimal parallelization: some nodes have no k-points
 
     Parallelization info
     --------------------
     sticks:   dense  smooth     PW     G-vecs:    dense   smooth      PW
     Min        1945    1945    516                91383    91383   12416
     Max        1948    1948    517                91388    91388   12421
     Sum        3893    3893   1033               182771   182771   24837
 
     Using Slab Decomposition
 


     bravais-lattice index     =            0
     lattice parameter (alat)  =      20.1820  a.u.
     unit-cell volume          =    8220.4511 (a.u.)^3
     number of atoms/cell      =           64
     number of atomic types    =            1
     number of electrons       =       256.00
     number of Kohn-Sham states=          154
     kinetic-energy cutoff     =      30.0000  Ry
     charge density cutoff     =     120.0000  Ry
     scf convergence threshold =      1.0E-06
     mixing beta               =       0.5000
     number of iterations used =            8  plain     mixing
     Exchange-correlation= PBE
                           (   1   4   3   4   0   0   0)

     GPU acceleration is ACTIVE.
     GPU-aware MPI enabled

     Message from routine print_cuda_info:
     High GPU oversubscription detected. Are you sure this is what you want?

     celldm(1)=  20.182047  celldm(2)=   0.000000  celldm(3)=   0.000000
     celldm(4)=   0.000000  celldm(5)=   0.000000  celldm(6)=   0.000000

     crystal axes: (cart. coord. in units of alat)
               a(1) = (   1.000000   0.000000   0.000000 )  
               a(2) = (   0.000000   1.000000   0.000000 )  
               a(3) = (   0.000000   0.000000   1.000000 )  

     reciprocal axes: (cart. coord. in units 2 pi/alat)
               b(1) = (  1.000000  0.000000  0.000000 )  
               b(2) = (  0.000000  1.000000  0.000000 )  
               b(3) = (  0.000000  0.000000  1.000000 )  


     PseudoPot. # 1 for Si read from file:
     /home/ppiaggi/pseudos/Si_ONCV_PBE_sr.upf
     MD5 check sum: 8553c464762ac42b85b1eed164b4d029
     Pseudo is Norm-conserving, Zval =  4.0
     Generated using ONCVPSP code by D. R. Hamann
     Using radial grid of 1510 points,  4 beta functions with: 
                l(1) =   0
                l(2) =   0
                l(3) =   1
                l(4) =   1

     atomic species   valence    mass     pseudopotential
        Si             4.00    28.08500     Si( 1.00)

     No symmetry found



   Cartesian axes

     site n.     atom                  positions (alat units)
         1           Si  tau(   1) = (   0.0858080   0.7164380   0.0772060  )
         2           Si  tau(   2) = (   0.6321690   0.9725690   0.2890040  )
         3           Si  tau(   3) = (   0.8760980   0.5340690   0.7932620  )
         4           Si  tau(   4) = (   0.9723440   0.2583210   0.4408370  )
         5           Si  tau(   5) = (   0.6695380   0.2938160   0.3259630  )
         6           Si  tau(   6) = (   0.6516630   0.4444780   0.1104180  )
         7           Si  tau(   7) = (   0.4544150   0.7953350   0.8995690  )
         8           Si  tau(   8) = (   0.2624790   0.4957230   0.4935900  )
         9           Si  tau(   9) = (   0.2459610   0.6415330   0.8314160  )
        10           Si  tau(  10) = (   0.2043090   0.8946350   0.8754320  )
        11           Si  tau(  11) = (   0.6645820   0.4100210   0.5363970  )
        12           Si  tau(  12) = (   0.8701600   0.6295260   0.3437130  )
        13           Si  tau(  13) = (   0.2819060   0.3066370   0.6376370  )
        14           Si  tau(  14) = (   0.2446450   0.1488970   0.0201203  )
        15           Si  tau(  15) = (   0.4612470   0.8094060   0.2164330  )
        16           Si  tau(  16) = (   0.1800910   0.3760430   0.8644680  )
        17           Si  tau(  17) = (   0.4614830   0.0068785   0.9943060  )
        18           Si  tau(  18) = (   0.8911430   0.3268270   0.0725818  )
        19           Si  tau(  19) = (   0.2797130   0.1626420   0.2617850  )
        20           Si  tau(  20) = (   0.3897270   0.8854120   0.6620470  )
        21           Si  tau(  21) = (   0.4804890   0.2248130   0.5350260  )
        22           Si  tau(  22) = (   0.1763190   0.1573450   0.4815750  )
        23           Si  tau(  23) = (   0.6448900   0.7442880   0.6336470  )
        24           Si  tau(  24) = (   0.4195430   0.2677880   0.8796130  )
        25           Si  tau(  25) = (   0.0976158   0.1564660   0.7766060  )
        26           Si  tau(  26) = (   0.8605680   0.1756620   0.7121260  )
        27           Si  tau(  27) = (   0.9639040   0.8747320   0.7751940  )
        28           Si  tau(  28) = (   0.5634570   0.0079017   0.5082840  )
        29           Si  tau(  29) = (   0.3916660   0.6388130   0.6590750  )
        30           Si  tau(  30) = (   0.9557510   0.8867220   0.0346366  )
        31           Si  tau(  31) = (   0.8645060   0.8103500   0.5727190  )
        32           Si  tau(  32) = (   0.8499170   0.8375230   0.2644320  )
        33           Si  tau(  33) = (   0.7461020   0.9173750   0.9180670  )
        34           Si  tau(  34) = (   0.1162310   0.5120870   0.1648880  )
        35           Si  tau(  35) = (   0.4011950   0.3724900   0.3325550  )
        36           Si  tau(  36) = (   0.6910140   0.5947200   0.8664610  )
        37           Si  tau(  37) = (   0.1639260   0.9625180   0.6297390  )
        38           Si  tau(  38) = (   0.5319230   0.5550830   0.2517290  )
        39           Si  tau(  39) = (   0.9354510   0.4015310   0.2775110  )
        40           Si  tau(  40) = (   0.2163000   0.6724420   0.3352990  )
        41           Si  tau(  41) = (   0.0022205   0.5710890   0.5277460  )
        42           Si  tau(  42) = (   0.6646030   0.7824860   0.0531803  )
        43           Si  tau(  43) = (   0.4633000   0.4871200   0.9583510  )
        44           Si  tau(  44) = (   0.8373810   0.6188680   0.1092670  )
        45           Si  tau(  45) = (   0.4241930   0.7155770   0.4507210  )
        46           Si  tau(  46) = (   0.6690340   0.6226260   0.4472770  )
        47           Si  tau(  47) = (   0.0912277   0.8132080   0.4668960  )
        48           Si  tau(  48) = (   0.2905020   0.3875080   0.1239380  )
        49           Si  tau(  49) = (   0.3421130   0.9527800   0.3814060  )
        50           Si  tau(  50) = (   0.5944870   0.2433930   0.7273370  )
        51           Si  tau(  51) = (   0.7783660   0.1410900   0.9176240  )
        52           Si  tau(  52) = (   0.3484060   0.6694740   0.0732592  )
        53           Si  tau(  53) = (   0.5894850   0.0206628   0.7444360  )
        54           Si  tau(  54) = (   0.0509212   0.6716840   0.7435590  )
        55           Si  tau(  55) = (   0.5577870   0.4947400   0.7336250  )
        56           Si  tau(  56) = (   0.8253190   0.1274870   0.3620140  )
        57           Si  tau(  57) = (   0.5160220   0.1414890   0.2023660  )
        58           Si  tau(  58) = (   0.0074215   0.1345970   0.0297596  )
        59           Si  tau(  59) = (   0.5892530   0.2281540   0.0211510  )
        60           Si  tau(  60) = (   0.2252100   0.9194850   0.1541170  )
        61           Si  tau(  61) = (   0.0394513   0.9797130   0.3162930  )
        62           Si  tau(  62) = (   0.8000560   0.0186720   0.5564260  )
        63           Si  tau(  63) = (   0.8747800   0.3851080   0.6106650  )
        64           Si  tau(  64) = (   0.0004396   0.4520550   0.9511090  )

     number of k points=     1  Fermi-Dirac smearing, width (Ry)=  0.0100
                       cart. coord. in units 2pi/alat
        k(    1) = (   0.0000000   0.0000000   0.0000000), wk =   2.0000000

     Dense  grid:    91386 G-vectors     FFT dimensions: (  72,  72,  72)

     Estimated max dynamical RAM per process >     146.38 MB

     Estimated total dynamical RAM >     563.20 MB

     Initial potential from superposition of free atoms

     starting charge     255.9608, renormalised to     256.0000
     Starting wfcs are  256 randomized atomic wfcs

     total cpu time spent up to now is        5.0 secs

     Self-consistent Calculation

     iteration #  1     ecut=    30.00 Ry     beta= 0.50
     Davidson diagonalization with overlap
     ethr =  1.00E-02,  avg # of iterations =  3.0

     Threshold (ethr) on eigenvalues was too large:
     Diagonalizing with lowered threshold

     Davidson diagonalization with overlap
     ethr =  4.14E-04,  avg # of iterations =  5.0

     total cpu time spent up to now is        5.3 secs

     total energy              =    -501.13707451 Ry
     estimated scf accuracy    <       1.26043508 Ry

     iteration #  2     ecut=    30.00 Ry     beta= 0.50
     Davidson diagonalization with overlap
     ethr =  4.92E-04,  avg # of iterations =  5.0

     total cpu time spent up to now is        5.4 secs

     total energy              =    -500.43341419 Ry
     estimated scf accuracy    <       9.70715502 Ry

     iteration #  3     ecut=    30.00 Ry     beta= 0.50
     Davidson diagonalization with overlap
     ethr =  4.92E-04,  avg # of iterations =  5.0

     total cpu time spent up to now is        5.6 secs

     total energy              =    -501.29350188 Ry
     estimated scf accuracy    <       1.40335646 Ry

     iteration #  4     ecut=    30.00 Ry     beta= 0.50
     Davidson diagonalization with overlap
     ethr =  4.92E-04,  avg # of iterations =  2.0

     total cpu time spent up to now is        5.6 secs

     total energy              =    -501.36939387 Ry
     estimated scf accuracy    <       0.59052532 Ry

     iteration #  5     ecut=    30.00 Ry     beta= 0.50
     Davidson diagonalization with overlap
     ethr =  2.31E-04,  avg # of iterations =  2.0

     total cpu time spent up to now is        5.7 secs

     total energy              =    -501.40074828 Ry
     estimated scf accuracy    <       0.44520206 Ry

     iteration #  6     ecut=    30.00 Ry     beta= 0.50
     Davidson diagonalization with overlap
     ethr =  1.74E-04,  avg # of iterations =  2.0

     total cpu time spent up to now is        5.8 secs

     total energy              =    -501.44350260 Ry
     estimated scf accuracy    <       0.05347988 Ry

     iteration #  7     ecut=    30.00 Ry     beta= 0.50
     Davidson diagonalization with overlap
     ethr =  2.09E-05,  avg # of iterations =  2.0

     total cpu time spent up to now is        5.9 secs

     total energy              =    -501.44980217 Ry
     estimated scf accuracy    <       0.01572160 Ry

     iteration #  8     ecut=    30.00 Ry     beta= 0.50
     Davidson diagonalization with overlap
     ethr =  6.14E-06,  avg # of iterations = 14.0

     total cpu time spent up to now is        6.1 secs

     total energy              =    -501.45083903 Ry
     estimated scf accuracy    <       0.02591242 Ry

     iteration #  9     ecut=    30.00 Ry     beta= 0.50
     Davidson diagonalization with overlap
     ethr =  6.14E-06,  avg # of iterations =  2.0

     total cpu time spent up to now is        6.2 secs

     total energy              =    -501.45264602 Ry
     estimated scf accuracy    <       0.00168081 Ry

     iteration # 10     ecut=    30.00 Ry     beta= 0.50
     Davidson diagonalization with overlap
     ethr =  6.57E-07,  avg # of iterations =  8.0

     total cpu time spent up to now is        6.3 secs

     total energy              =    -501.45285600 Ry
     estimated scf accuracy    <       0.00091995 Ry

     iteration # 11     ecut=    30.00 Ry     beta= 0.50
     Davidson diagonalization with overlap
     ethr =  3.59E-07,  avg # of iterations =  3.0

     total cpu time spent up to now is        6.4 secs

     total energy              =    -501.45290711 Ry
     estimated scf accuracy    <       0.00075059 Ry

     iteration # 12     ecut=    30.00 Ry     beta= 0.50
     Davidson diagonalization with overlap
     ethr =  2.93E-07,  avg # of iterations =  2.0

     total cpu time spent up to now is        6.5 secs

     total energy              =    -501.45297517 Ry
     estimated scf accuracy    <       0.00028142 Ry

     iteration # 13     ecut=    30.00 Ry     beta= 0.50
     Davidson diagonalization with overlap
     ethr =  1.10E-07,  avg # of iterations =  2.0

     total cpu time spent up to now is        6.6 secs

     total energy              =    -501.45299482 Ry
     estimated scf accuracy    <       0.00009557 Ry

     iteration # 14     ecut=    30.00 Ry     beta= 0.50
     Davidson diagonalization with overlap
     ethr =  3.73E-08,  avg # of iterations =  2.0

     total cpu time spent up to now is        6.7 secs

     total energy              =    -501.45300213 Ry
     estimated scf accuracy    <       0.00003156 Ry

     iteration # 15     ecut=    30.00 Ry     beta= 0.50
     Davidson diagonalization with overlap
     ethr =  1.23E-08,  avg # of iterations =  2.0

     total cpu time spent up to now is        6.8 secs

     total energy              =    -501.45300489 Ry
     estimated scf accuracy    <       0.00002778 Ry

     iteration # 16     ecut=    30.00 Ry     beta= 0.50
     Davidson diagonalization with overlap
     ethr =  1.09E-08,  avg # of iterations =  2.0

     total cpu time spent up to now is        6.9 secs

     total energy              =    -501.45300705 Ry
     estimated scf accuracy    <       0.00000689 Ry

     iteration # 17     ecut=    30.00 Ry     beta= 0.50
     Davidson diagonalization with overlap
     ethr =  2.69E-09,  avg # of iterations =  2.0

     total cpu time spent up to now is        7.0 secs

     total energy              =    -501.45300772 Ry
     estimated scf accuracy    <       0.00000126 Ry

     iteration # 18     ecut=    30.00 Ry     beta= 0.50
     Davidson diagonalization with overlap
     ethr =  4.90E-10,  avg # of iterations =  3.0

     total cpu time spent up to now is        7.1 secs

     End of self-consistent calculation

          k = 0.0000 0.0000 0.0000 ( 11444 PWs)   bands (ev):

    -5.3500  -4.4319  -4.3128  -4.2669  -4.1289  -4.0646  -3.8692  -3.4685
    -3.3184  -3.2384  -3.1292  -3.1036  -3.0057  -2.9590  -2.9003  -2.8345
    -2.7343  -2.6284  -2.5690  -2.1166  -2.0519  -1.9463  -1.8964  -1.8591
    -1.7733  -1.5514  -1.2624  -1.0624  -0.7010  -0.6841  -0.6113  -0.4040
    -0.2283  -0.1701  -0.0829  -0.0055   0.0074   0.0653   0.1744   0.2063
     0.3978   0.4562   0.5187   0.5436   0.6742   0.6913   0.7291   0.8466
     0.9180   0.9947   1.0755   1.1462   1.2933   1.3407   1.4499   1.4938
     1.6168   1.7463   1.8335   1.9814   2.0580   2.2576   2.3013   2.3944
     2.4675   2.5487   2.6285   2.6695   2.8115   2.8255   2.8841   2.9401
     3.0332   3.0545   3.1925   3.2968   3.3520   3.4803   3.5069   3.5431
     3.7658   4.0689   4.2799   4.3734   4.4076   4.4415   4.5250   4.6187
     4.6738   4.7221   4.7890   4.9180   4.9841   4.9962   5.0397   5.2128
     5.2294   5.2749   5.3351   5.3776   5.4736   5.5100   5.5372   5.6487
     5.6743   5.7066   5.7762   5.8413   5.8851   5.9415   6.0142   6.0235
     6.1304   6.1452   6.1590   6.2162   6.3380   6.3919   6.4608   6.5038
     6.5905   6.6109   6.6467   6.7228   6.7515   6.8012   6.9080   6.9718
     7.0060   7.0841   7.1749   7.2122   7.2902   7.3747   7.4030   7.4520
     7.5081   7.5685   7.5871   7.7310   7.8176   7.8320   7.9324   7.9696
     8.0833   8.1311   8.2046   8.2501   8.3328   8.3760   8.4039   8.4410
     8.5565   8.6836

     the Fermi energy is     6.9956 ev

!    total energy              =    -501.45300715 Ry
     estimated scf accuracy    <       0.00000099 Ry
     smearing contrib. (-TS)   =      -0.14428529 Ry
     internal energy E=F+TS    =    -501.30872185 Ry

     The total energy is F=E-TS. E is the sum of the following terms:
     one-electron contribution =     189.01908913 Ry
     hartree contribution      =      22.77975956 Ry
     xc contribution           =    -150.41082957 Ry
     ewald contribution        =    -562.69674098 Ry

     convergence has been achieved in  18 iterations

     Forces acting on atoms (cartesian axes, Ry/au):

     atom    1 type  1   force =     0.04840860   -0.00064800    0.00264515
     atom    2 type  1   force =     0.02148652   -0.02174465    0.00639721
     atom    3 type  1   force =     0.03824937   -0.01937104   -0.02885450
     atom    4 type  1   force =     0.03566835    0.02348249    0.03435692
     atom    5 type  1   force =    -0.01049055    0.02336099    0.00228748
     atom    6 type  1   force =     0.04379815   -0.02053825   -0.03511698
     atom    7 type  1   force =    -0.01932325   -0.00232377   -0.01079903
     atom    8 type  1   force =     0.00031094   -0.00062138    0.01085296
     atom    9 type  1   force =     0.02582869   -0.00102533    0.02390990
     atom   10 type  1   force =     0.00020822   -0.01651815   -0.01034751
     atom   11 type  1   force =     0.00191237   -0.00262255   -0.01632406
     atom   12 type  1   force =    -0.00640070   -0.02736615   -0.00195257
     atom   13 type  1   force =    -0.01318986   -0.01030516   -0.01493558
     atom   14 type  1   force =     0.00613512   -0.00243619    0.01672384
     atom   15 type  1   force =     0.01031338   -0.00292136   -0.00704518
     atom   16 type  1   force =     0.06832189   -0.01690300   -0.01505323
     atom   17 type  1   force =    -0.01822963    0.02277984    0.01241147
     atom   18 type  1   force =    -0.04997763   -0.04415447    0.04120365
     atom   19 type  1   force =     0.04442297   -0.01156539   -0.00511939
     atom   20 type  1   force =     0.01715423    0.00158600    0.01441160
     atom   21 type  1   force =     0.00582358    0.00855350   -0.03098056
     atom   22 type  1   force =    -0.01079509   -0.00324549    0.01176263
     atom   23 type  1   force =     0.02057842   -0.00929981    0.01362267
     atom   24 type  1   force =    -0.01874677    0.02583610   -0.00620130
     atom   25 type  1   force =    -0.02321106   -0.00495182    0.01277783
     atom   26 type  1   force =     0.00715109    0.00380483    0.00866168
     atom   27 type  1   force =     0.00839871    0.00572391    0.00150814
     atom   28 type  1   force =    -0.02104953    0.00408776   -0.00427685
     atom   29 type  1   force =    -0.00326358   -0.03073006    0.00104007
     atom   30 type  1   force =    -0.01830218    0.05075014    0.00568281
     atom   31 type  1   force =     0.00399227   -0.00670684    0.01176851
     atom   32 type  1   force =    -0.00841570    0.00801166   -0.03694576
     atom   33 type  1   force =     0.03859360    0.05454050   -0.05998761
     atom   34 type  1   force =    -0.02789951    0.00837815    0.01997355
     atom   35 type  1   force =    -0.00574440   -0.00082161    0.01847547
     atom   36 type  1   force =    -0.01949649    0.05295368    0.03670343
     atom   37 type  1   force =     0.01100614    0.01808233    0.00265945
     atom   38 type  1   force =    -0.02148383    0.01951016    0.04044594
     atom   39 type  1   force =     0.00975582    0.04215266   -0.02050106
     atom   40 type  1   force =    -0.00654311    0.00712283    0.01224240
     atom   41 type  1   force =     0.04375643    0.00842886    0.00480714
     atom   42 type  1   force =    -0.02461401   -0.05869395    0.03676035
     atom   43 type  1   force =    -0.01835444   -0.00901756    0.02636653
     atom   44 type  1   force =    -0.05021723   -0.00361033    0.00448720
     atom   45 type  1   force =     0.00106273    0.01499738   -0.01737625
     atom   46 type  1   force =    -0.01738622   -0.03850020   -0.02258649
     atom   47 type  1   force =    -0.01011804    0.00726052   -0.00532908
     atom   48 type  1   force =     0.02387058   -0.01259225   -0.02414172
     atom   49 type  1   force =    -0.00096070   -0.00050249    0.00261803
     atom   50 type  1   force =     0.01427533    0.01841552    0.00797116
     atom   51 type  1   force =    -0.00060441   -0.00171919    0.00607113
     atom   52 type  1   force =    -0.00769663   -0.02545896   -0.02574236
     atom   53 type  1   force =    -0.00230021   -0.02669961    0.02015933
     atom   54 type  1   force =    -0.04496915    0.00239634   -0.03219459
     atom   55 type  1   force =    -0.03650541   -0.01417718   -0.02030909
     atom   56 type  1   force =    -0.01920931   -0.03823239   -0.00563786
     atom   57 type  1   force =    -0.02867831   -0.00366841    0.02643445
     atom   58 type  1   force =     0.02353922   -0.04195054   -0.02856402
     atom   59 type  1   force =     0.03247512    0.02278791   -0.01872910
     atom   60 type  1   force =    -0.00451516    0.00143306    0.01654215
     atom   61 type  1   force =    -0.00551999   -0.00551094   -0.01603515
     atom   62 type  1   force =    -0.02736006    0.03356267    0.00697579
     atom   63 type  1   force =    -0.01335592   -0.00424322    0.00062958
     atom   64 type  1   force =     0.00843020    0.05139790   -0.00126074

     Total force =     0.315874     Total SCF correction =     0.001963


     Computing stress (Cartesian axis) and pressure

          total   stress  (Ry/bohr**3)                   (kbar)     P=      -39.40
  -0.00031593   0.00000309   0.00000194          -46.48        0.45        0.29
   0.00000309  -0.00027237  -0.00006094            0.45      -40.07       -8.97
   0.00000194  -0.00006094  -0.00021518            0.29       -8.97      -31.65

 
     init_run     :      1.09s CPU      4.94s WALL (       1 calls)
     electrons    :      1.93s CPU      2.10s WALL (       1 calls)
     forces       :      0.04s CPU      0.04s WALL (       1 calls)
     stress       :      0.16s CPU      0.16s WALL (       1 calls)

     Called by init_run:
     wfcinit      :      0.55s CPU      4.22s WALL (       1 calls)
                                        4.22s GPU  (       1 calls)
     potinit      :      0.05s CPU      0.15s WALL (       1 calls)
     hinit0       :      0.47s CPU      0.50s WALL (       1 calls)

     Called by electrons:
     c_bands      :      1.16s CPU      1.24s WALL (      19 calls)
     sum_band     :      0.38s CPU      0.42s WALL (      19 calls)
     v_of_rho     :      0.18s CPU      0.29s WALL (      19 calls)
     mix_rho      :      0.17s CPU      0.19s WALL (      19 calls)

     Called by c_bands:
     init_us_2    :      0.07s CPU      0.07s WALL (      39 calls)
     init_us_2:gp :      0.07s CPU      0.07s WALL (      39 calls)
     regterg      :      1.00s CPU      1.07s WALL (      19 calls)

     Called by *egterg:
     rdiaghg      :      0.42s CPU      1.18s WALL (      86 calls)
                                        1.16s GPU  (      86 calls)
     h_psi        :      0.95s CPU      3.92s WALL (      88 calls)
                                        3.92s GPU  (      88 calls)
     g_psi        :      0.00s CPU      0.00s WALL (      68 calls)
                                        0.00s GPU  (      68 calls)

     Called by h_psi:
     h_psi:calbec :      0.52s CPU      3.40s WALL (      88 calls)
                                        3.39s GPU  (      88 calls)
     vloc_psi     :      0.38s CPU      0.46s WALL (      88 calls)
                                        0.46s GPU  (      88 calls)
     add_vuspsi   :      0.04s CPU      0.05s WALL (      88 calls)
                                        0.05s GPU  (      88 calls)

     General routines
     calbec       :      0.52s CPU      3.40s WALL (      93 calls)
     fft          :      0.63s CPU      0.76s WALL (     159 calls)
                                        0.14s GPU  (     101 calls)
     ffts         :      0.05s CPU      0.05s WALL (      19 calls)
     fftw         :      0.46s CPU      0.61s WALL (    2009 calls)
                                        0.54s GPU  (    2009 calls)
 
     Parallel routines
 
     PWSCF        :      3.26s CPU      7.33s WALL

 
   This run was terminated on:  11: 5:47  10May2023            

=------------------------------------------------------------------------------=
   JOB DONE.
=------------------------------------------------------------------------------=
