An instance of this daemon is already running

     Program PWSCF v.7.1 starts on 10May2023 at 11: 8:25 

     This program is part of the open-source Quantum ESPRESSO suite
     for quantum simulation of materials; please cite
         "P. Giannozzi et al., J. Phys.:Condens. Matter 21 395502 (2009);
         "P. Giannozzi et al., J. Phys.:Condens. Matter 29 465901 (2017);
         "P. Giannozzi et al., J. Chem. Phys. 152 154105 (2020);
          URL http://www.quantum-espresso.org", 
     in publications or presentations arising from this work. More details at
     http://www.quantum-espresso.org/quote

     Parallel version (MPI & OpenMP), running on       4 processor cores
     Number of MPI processes:                 4
     Threads/MPI process:                     1

     MPI processes distributed on     1 nodes
     753584 MiB available memory on the printing compute node when the environment starts
 
     Reading input from pw-si-89.in
Warning: card &CELL ignored
Warning: card / ignored

     Current dimensions of program PWSCF are:
     Max number of different atomic species (ntypx) = 10
     Max number of k-points (npk) =  40000
     Max angular momentum in pseudopotentials (lmaxx) =  4

     IMPORTANT: XC functional enforced from input :
     Exchange-correlation= PBE
                           (   1   4   3   4   0   0   0)
     Any further DFT definition will be discarded
     Please, verify this is what you really want


     gamma-point specific algorithms are used
 
     K-points division:     npool     =       2
     R & G space division:  proc/nbgrp/npool/nimage =       2
     Subspace diagonalization in iterative solution of the eigenvalue problem:
     a serial algorithm will be used

     Message from routine divide_et_impera:
     suboptimal parallelization: some nodes have no k-points
 
     Parallelization info
     --------------------
     sticks:   dense  smooth     PW     G-vecs:    dense   smooth      PW
     Min        1953    1953    519                91863    91863   12442
     Max        1956    1956    522                91868    91868   12443
     Sum        3909    3909   1041               183731   183731   24885
 
     Using Slab Decomposition
 


     bravais-lattice index     =            0
     lattice parameter (alat)  =      20.2332  a.u.
     unit-cell volume          =    8283.1760 (a.u.)^3
     number of atoms/cell      =           64
     number of atomic types    =            1
     number of electrons       =       256.00
     number of Kohn-Sham states=          154
     kinetic-energy cutoff     =      30.0000  Ry
     charge density cutoff     =     120.0000  Ry
     scf convergence threshold =      1.0E-06
     mixing beta               =       0.5000
     number of iterations used =            8  plain     mixing
     Exchange-correlation= PBE
                           (   1   4   3   4   0   0   0)

     GPU acceleration is ACTIVE.
     GPU-aware MPI enabled

     Message from routine print_cuda_info:
     High GPU oversubscription detected. Are you sure this is what you want?

     celldm(1)=  20.233249  celldm(2)=   0.000000  celldm(3)=   0.000000
     celldm(4)=   0.000000  celldm(5)=   0.000000  celldm(6)=   0.000000

     crystal axes: (cart. coord. in units of alat)
               a(1) = (   1.000000   0.000000   0.000000 )  
               a(2) = (   0.000000   1.000000   0.000000 )  
               a(3) = (   0.000000   0.000000   1.000000 )  

     reciprocal axes: (cart. coord. in units 2 pi/alat)
               b(1) = (  1.000000  0.000000  0.000000 )  
               b(2) = (  0.000000  1.000000  0.000000 )  
               b(3) = (  0.000000  0.000000  1.000000 )  


     PseudoPot. # 1 for Si read from file:
     /home/ppiaggi/pseudos/Si_ONCV_PBE_sr.upf
     MD5 check sum: 8553c464762ac42b85b1eed164b4d029
     Pseudo is Norm-conserving, Zval =  4.0
     Generated using ONCVPSP code by D. R. Hamann
     Using radial grid of 1510 points,  4 beta functions with: 
                l(1) =   0
                l(2) =   0
                l(3) =   1
                l(4) =   1

     atomic species   valence    mass     pseudopotential
        Si             4.00    28.08500     Si( 1.00)

     No symmetry found



   Cartesian axes

     site n.     atom                  positions (alat units)
         1           Si  tau(   1) = (   0.2778290   0.5045480   0.6482220  )
         2           Si  tau(   2) = (   0.1363540   0.8733510   0.1643890  )
         3           Si  tau(   3) = (   0.2461640   0.1067850   0.4311670  )
         4           Si  tau(   4) = (   0.4435420   0.7944200   0.1096230  )
         5           Si  tau(   5) = (   0.5282860   0.0510039   0.0776939  )
         6           Si  tau(   6) = (   0.2986840   0.0548779   0.1238030  )
         7           Si  tau(   7) = (   0.3780390   0.6837700   0.3633910  )
         8           Si  tau(   8) = (   0.0931686   0.8032350   0.7445390  )
         9           Si  tau(   9) = (   0.0175143   0.8639900   0.3583480  )
        10           Si  tau(  10) = (   0.9882150   0.6356780   0.0243540  )
        11           Si  tau(  11) = (   0.5265780   0.5874890   0.8168890  )
        12           Si  tau(  12) = (   0.7060110   0.9626390   0.2222290  )
        13           Si  tau(  13) = (   0.3638570   0.5399640   0.1276310  )
        14           Si  tau(  14) = (   0.9872810   0.9269690   0.0068503  )
        15           Si  tau(  15) = (   0.2029310   0.2391370   0.1972950  )
        16           Si  tau(  16) = (   0.6450410   0.2192850   0.9972460  )
        17           Si  tau(  17) = (   0.3623680   0.9291000   0.3430350  )
        18           Si  tau(  18) = (   0.8654260   0.1319300   0.7991480  )
        19           Si  tau(  19) = (   0.0016918   0.3498820   0.0769244  )
        20           Si  tau(  20) = (   0.6824540   0.4429730   0.6720910  )
        21           Si  tau(  21) = (   0.0837853   0.5798840   0.3880320  )
        22           Si  tau(  22) = (   0.6186070   0.6362950   0.0477066  )
        23           Si  tau(  23) = (   0.1540980   0.6143540   0.1658450  )
        24           Si  tau(  24) = (   0.7610990   0.5474030   0.4379300  )
        25           Si  tau(  25) = (   0.7832770   0.7931090   0.0813321  )
        26           Si  tau(  26) = (   0.9680530   0.2383380   0.3241320  )
        27           Si  tau(  27) = (   0.3475700   0.3142320   0.0045822  )
        28           Si  tau(  28) = (   0.5726670   0.0113180   0.4104880  )
        29           Si  tau(  29) = (   0.8979630   0.6705840   0.3046640  )
        30           Si  tau(  30) = (   0.5014600   0.3414290   0.5242970  )
        31           Si  tau(  31) = (   0.9316180   0.8023440   0.5652450  )
        32           Si  tau(  32) = (   0.0679939   0.6061310   0.8298690  )
        33           Si  tau(  33) = (   0.6144760   0.8786180   0.8937030  )
        34           Si  tau(  34) = (   0.3625900   0.7927850   0.8808930  )
        35           Si  tau(  35) = (   0.5178040   0.5961170   0.4911230  )
        36           Si  tau(  36) = (   0.4430820   0.3409110   0.7989580  )
        37           Si  tau(  37) = (   0.3124370   0.2131620   0.6189880  )
        38           Si  tau(  38) = (   0.8796020   0.5694240   0.6303190  )
        39           Si  tau(  39) = (   0.0471896   0.4056210   0.6484660  )
        40           Si  tau(  40) = (   0.3826750   0.0414870   0.7359130  )
        41           Si  tau(  41) = (   0.8200960   0.4780860   0.1129040  )
        42           Si  tau(  42) = (   0.6831860   0.8729840   0.6024130  )
        43           Si  tau(  43) = (   0.6697000   0.7598680   0.3704160  )
        44           Si  tau(  44) = (   0.1976580   0.6787560   0.5378400  )
        45           Si  tau(  45) = (   0.5939600   0.0647476   0.7218340  )
        46           Si  tau(  46) = (   0.0836803   0.0163832   0.5653270  )
        47           Si  tau(  47) = (   0.6830030   0.1826630   0.4917590  )
        48           Si  tau(  48) = (   0.8638290   0.9174790   0.7942760  )
        49           Si  tau(  49) = (   0.3252820   0.4003860   0.3792750  )
        50           Si  tau(  50) = (   0.6606290   0.2543510   0.8013840  )
        51           Si  tau(  51) = (   0.5719880   0.3935610   0.1742880  )
        52           Si  tau(  52) = (   0.2988680   0.8678780   0.6012940  )
        53           Si  tau(  53) = (   0.7495940   0.3503220   0.3406360  )
        54           Si  tau(  54) = (   0.1143440   0.1816820   0.7762750  )
        55           Si  tau(  55) = (   0.1244070   0.3691590   0.8996910  )
        56           Si  tau(  56) = (   0.5235280   0.7506210   0.6409560  )
        57           Si  tau(  57) = (   0.2809350   0.5785000   0.8788570  )
        58           Si  tau(  58) = (   0.1861200   0.9875280   0.8857240  )
        59           Si  tau(  59) = (   0.4599160   0.2046020   0.2666480  )
        60           Si  tau(  60) = (   0.9119360   0.2016980   0.5658420  )
        61           Si  tau(  61) = (   0.1134510   0.3602310   0.4471470  )
        62           Si  tau(  62) = (   0.7772400   0.6646830   0.8078280  )
        63           Si  tau(  63) = (   0.8461630   0.1650110   0.0401457  )
        64           Si  tau(  64) = (   0.8932300   0.0631582   0.2277830  )

     number of k points=     1  Fermi-Dirac smearing, width (Ry)=  0.0100
                       cart. coord. in units 2pi/alat
        k(    1) = (   0.0000000   0.0000000   0.0000000), wk =   2.0000000

     Dense  grid:    91866 G-vectors     FFT dimensions: (  72,  72,  72)

     Estimated max dynamical RAM per process >     147.34 MB

     Estimated total dynamical RAM >     566.93 MB

     Initial potential from superposition of free atoms

     starting charge     255.9608, renormalised to     256.0000
     Starting wfcs are  256 randomized atomic wfcs

     total cpu time spent up to now is        5.0 secs

     Self-consistent Calculation

     iteration #  1     ecut=    30.00 Ry     beta= 0.50
     Davidson diagonalization with overlap
     ethr =  1.00E-02,  avg # of iterations =  3.0

     Threshold (ethr) on eigenvalues was too large:
     Diagonalizing with lowered threshold

     Davidson diagonalization with overlap
     ethr =  4.17E-04,  avg # of iterations =  4.0

     total cpu time spent up to now is        5.3 secs

     total energy              =    -501.03164020 Ry
     estimated scf accuracy    <       1.28403681 Ry

     iteration #  2     ecut=    30.00 Ry     beta= 0.50
     Davidson diagonalization with overlap
     ethr =  5.02E-04,  avg # of iterations =  5.0

     total cpu time spent up to now is        5.4 secs

     total energy              =    -500.46365205 Ry
     estimated scf accuracy    <       7.06429138 Ry

     iteration #  3     ecut=    30.00 Ry     beta= 0.50
     Davidson diagonalization with overlap
     ethr =  5.02E-04,  avg # of iterations =  5.0

     total cpu time spent up to now is        5.6 secs

     total energy              =    -501.09987472 Ry
     estimated scf accuracy    <       2.37685799 Ry

     iteration #  4     ecut=    30.00 Ry     beta= 0.50
     Davidson diagonalization with overlap
     ethr =  5.02E-04,  avg # of iterations =  3.0

     total cpu time spent up to now is        5.6 secs

     total energy              =    -501.27508102 Ry
     estimated scf accuracy    <       0.47678173 Ry

     iteration #  5     ecut=    30.00 Ry     beta= 0.50
     Davidson diagonalization with overlap
     ethr =  1.86E-04,  avg # of iterations =  2.0

     total cpu time spent up to now is        5.7 secs

     total energy              =    -501.30952677 Ry
     estimated scf accuracy    <       0.15457757 Ry

     iteration #  6     ecut=    30.00 Ry     beta= 0.50
     Davidson diagonalization with overlap
     ethr =  6.04E-05,  avg # of iterations =  3.0

     total cpu time spent up to now is        5.8 secs

     total energy              =    -501.32247710 Ry
     estimated scf accuracy    <       0.20097133 Ry

     iteration #  7     ecut=    30.00 Ry     beta= 0.50
     Davidson diagonalization with overlap
     ethr =  6.04E-05,  avg # of iterations =  2.0

     total cpu time spent up to now is        5.9 secs

     total energy              =    -501.33813343 Ry
     estimated scf accuracy    <       0.00710397 Ry

     iteration #  8     ecut=    30.00 Ry     beta= 0.50
     Davidson diagonalization with overlap
     ethr =  2.77E-06,  avg # of iterations = 14.0

     total cpu time spent up to now is        6.1 secs

     total energy              =    -501.33927492 Ry
     estimated scf accuracy    <       0.01356239 Ry

     iteration #  9     ecut=    30.00 Ry     beta= 0.50
     Davidson diagonalization with overlap
     ethr =  2.77E-06,  avg # of iterations =  3.0

     total cpu time spent up to now is        6.2 secs

     total energy              =    -501.34032688 Ry
     estimated scf accuracy    <       0.00759918 Ry

     iteration # 10     ecut=    30.00 Ry     beta= 0.50
     Davidson diagonalization with overlap
     ethr =  2.77E-06,  avg # of iterations =  2.0

     total cpu time spent up to now is        6.3 secs

     total energy              =    -501.34080874 Ry
     estimated scf accuracy    <       0.00097348 Ry

     iteration # 11     ecut=    30.00 Ry     beta= 0.50
     Davidson diagonalization with overlap
     ethr =  3.80E-07,  avg # of iterations =  2.0

     total cpu time spent up to now is        6.4 secs

     total energy              =    -501.34087149 Ry
     estimated scf accuracy    <       0.00047228 Ry

     iteration # 12     ecut=    30.00 Ry     beta= 0.50
     Davidson diagonalization with overlap
     ethr =  1.84E-07,  avg # of iterations =  3.0

     total cpu time spent up to now is        6.5 secs

     total energy              =    -501.34091508 Ry
     estimated scf accuracy    <       0.00068311 Ry

     iteration # 13     ecut=    30.00 Ry     beta= 0.50
     Davidson diagonalization with overlap
     ethr =  1.84E-07,  avg # of iterations =  2.0

     total cpu time spent up to now is        6.6 secs

     total energy              =    -501.34096028 Ry
     estimated scf accuracy    <       0.00008048 Ry

     iteration # 14     ecut=    30.00 Ry     beta= 0.50
     Davidson diagonalization with overlap
     ethr =  3.14E-08,  avg # of iterations =  2.0

     total cpu time spent up to now is        6.7 secs

     total energy              =    -501.34096744 Ry
     estimated scf accuracy    <       0.00004283 Ry

     iteration # 15     ecut=    30.00 Ry     beta= 0.50
     Davidson diagonalization with overlap
     ethr =  1.67E-08,  avg # of iterations =  2.0

     total cpu time spent up to now is        6.8 secs

     total energy              =    -501.34096868 Ry
     estimated scf accuracy    <       0.00001107 Ry

     iteration # 16     ecut=    30.00 Ry     beta= 0.50
     Davidson diagonalization with overlap
     ethr =  4.33E-09,  avg # of iterations =  3.0

     total cpu time spent up to now is        6.9 secs

     total energy              =    -501.34097030 Ry
     estimated scf accuracy    <       0.00000647 Ry

     iteration # 17     ecut=    30.00 Ry     beta= 0.50
     Davidson diagonalization with overlap
     ethr =  2.53E-09,  avg # of iterations =  2.0

     total cpu time spent up to now is        7.0 secs

     total energy              =    -501.34097065 Ry
     estimated scf accuracy    <       0.00000486 Ry

     iteration # 18     ecut=    30.00 Ry     beta= 0.50
     Davidson diagonalization with overlap
     ethr =  1.90E-09,  avg # of iterations =  2.0

     total cpu time spent up to now is        7.1 secs

     total energy              =    -501.34097097 Ry
     estimated scf accuracy    <       0.00000107 Ry

     iteration # 19     ecut=    30.00 Ry     beta= 0.50
     Davidson diagonalization with overlap
     ethr =  4.19E-10,  avg # of iterations =  2.0

     total cpu time spent up to now is        7.2 secs

     End of self-consistent calculation

          k = 0.0000 0.0000 0.0000 ( 11492 PWs)   bands (ev):

    -5.4208  -4.5498  -4.3601  -4.2641  -4.2416  -4.0750  -4.0145  -3.5469
    -3.4489  -3.2720  -3.2244  -3.1041  -3.0686  -2.9454  -2.9129  -2.8448
    -2.7352  -2.6569  -2.5956  -2.1903  -2.1425  -1.9727  -1.9192  -1.7777
    -1.7337  -1.5699  -1.4504  -1.0488  -0.9716  -0.7906  -0.6777  -0.5991
    -0.4208  -0.2073  -0.1484  -0.0935  -0.0895  -0.0103   0.0770   0.1282
     0.2136   0.3213   0.4170   0.4634   0.5978   0.6577   0.7468   0.7810
     0.9109   1.0151   1.0727   1.1161   1.2105   1.2528   1.3361   1.4044
     1.6229   1.7606   1.8203   1.9475   2.0810   2.1740   2.2409   2.3336
     2.4237   2.4613   2.5281   2.6305   2.6573   2.7740   2.8652   2.8869
     2.9640   2.9960   3.1352   3.1731   3.2871   3.3858   3.4638   3.5032
     3.7477   3.9095   4.0375   4.1660   4.2375   4.3612   4.4766   4.4982
     4.5740   4.6999   4.7386   4.7558   4.8775   4.8939   4.9702   5.0202
     5.0884   5.1696   5.2746   5.3283   5.3721   5.4237   5.4646   5.5439
     5.5610   5.6170   5.7037   5.7948   5.9102   5.9244   5.9706   5.9951
     6.0402   6.0956   6.1608   6.2005   6.2606   6.2803   6.3824   6.4404
     6.5284   6.5607   6.5864   6.6604   6.6685   6.7637   6.7836   6.8921
     6.9176   7.0491   7.1187   7.1700   7.2296   7.2680   7.3266   7.3829
     7.4601   7.5294   7.5854   7.6264   7.7007   7.7313   7.9273   7.9843
     8.0065   8.0235   8.0977   8.1485   8.1968   8.2320   8.2775   8.3241
     8.3697   8.4229

     the Fermi energy is     6.9263 ev

!    total energy              =    -501.34097084 Ry
     estimated scf accuracy    <       0.00000024 Ry
     smearing contrib. (-TS)   =      -0.14248366 Ry
     internal energy E=F+TS    =    -501.19848717 Ry

     The total energy is F=E-TS. E is the sum of the following terms:
     one-electron contribution =     185.23021282 Ry
     hartree contribution      =      23.88221708 Ry
     xc contribution           =    -150.21243254 Ry
     ewald contribution        =    -560.09848453 Ry

     convergence has been achieved in  19 iterations

     Forces acting on atoms (cartesian axes, Ry/au):

     atom    1 type  1   force =    -0.00878759   -0.01630273    0.02352453
     atom    2 type  1   force =     0.02276645   -0.03498384    0.01022233
     atom    3 type  1   force =    -0.01721349   -0.00184182   -0.00001917
     atom    4 type  1   force =     0.01577838   -0.02455434   -0.01256517
     atom    5 type  1   force =     0.01395076   -0.02804591    0.00729043
     atom    6 type  1   force =     0.01264509   -0.02280984   -0.00638254
     atom    7 type  1   force =    -0.03657760    0.02952364   -0.05131218
     atom    8 type  1   force =    -0.00093147    0.04306414   -0.03408047
     atom    9 type  1   force =    -0.01586718    0.00478305   -0.00651846
     atom   10 type  1   force =    -0.05425569    0.01906273    0.02575612
     atom   11 type  1   force =     0.03234265   -0.00454542    0.00378666
     atom   12 type  1   force =    -0.06684083   -0.02542917    0.00134561
     atom   13 type  1   force =     0.00307744   -0.01300863    0.00035558
     atom   14 type  1   force =    -0.02661399   -0.00617974   -0.01723202
     atom   15 type  1   force =    -0.00053044    0.01685242    0.02414759
     atom   16 type  1   force =    -0.04065862    0.01742156    0.11705333
     atom   17 type  1   force =     0.01829406    0.00416774    0.00822676
     atom   18 type  1   force =     0.02910069    0.03255405    0.00457634
     atom   19 type  1   force =    -0.02867349   -0.02829731    0.02447617
     atom   20 type  1   force =    -0.03333315    0.00376590    0.00554545
     atom   21 type  1   force =    -0.01611602   -0.02099519   -0.06846068
     atom   22 type  1   force =    -0.01294245    0.00195802   -0.02659333
     atom   23 type  1   force =     0.00593153    0.02817919    0.04370386
     atom   24 type  1   force =    -0.02333938   -0.01345717    0.01490233
     atom   25 type  1   force =     0.02112654   -0.00097191   -0.00195238
     atom   26 type  1   force =    -0.00964410    0.05203383    0.01861560
     atom   27 type  1   force =    -0.02918869    0.04321735   -0.00176012
     atom   28 type  1   force =    -0.00418481   -0.01092538   -0.02805193
     atom   29 type  1   force =    -0.01895590    0.01759908   -0.02460244
     atom   30 type  1   force =     0.00052429   -0.00112144    0.02418111
     atom   31 type  1   force =    -0.00983056    0.00223340    0.02020775
     atom   32 type  1   force =     0.00131580   -0.03448937   -0.00921940
     atom   33 type  1   force =    -0.01829387    0.01024169    0.01620980
     atom   34 type  1   force =     0.02003564    0.02069002    0.00941338
     atom   35 type  1   force =     0.06478650   -0.05077070    0.01701326
     atom   36 type  1   force =    -0.00190092    0.02799900   -0.01596822
     atom   37 type  1   force =    -0.00989813    0.01638197    0.01585698
     atom   38 type  1   force =     0.00276651   -0.00231613   -0.01280784
     atom   39 type  1   force =    -0.00423398    0.00189136    0.02084788
     atom   40 type  1   force =    -0.03466290   -0.01771678   -0.00290238
     atom   41 type  1   force =     0.00850180    0.01238885    0.02699927
     atom   42 type  1   force =     0.06829604    0.06363451   -0.03284727
     atom   43 type  1   force =     0.00305458    0.02613888    0.00463854
     atom   44 type  1   force =     0.01948995    0.01846063    0.02071375
     atom   45 type  1   force =     0.01677445   -0.05078206   -0.02575962
     atom   46 type  1   force =     0.00131089    0.02048996   -0.01233361
     atom   47 type  1   force =    -0.01154128    0.04012380    0.01275667
     atom   48 type  1   force =     0.00157628   -0.06364748    0.02023930
     atom   49 type  1   force =     0.00507993   -0.00810065   -0.02110623
     atom   50 type  1   force =     0.02165144    0.03300032   -0.08548931
     atom   51 type  1   force =     0.01926380   -0.02122496   -0.00418671
     atom   52 type  1   force =     0.00671735    0.01441810   -0.00002717
     atom   53 type  1   force =     0.00528175    0.00515975   -0.03433370
     atom   54 type  1   force =    -0.00429110   -0.01669680   -0.03347077
     atom   55 type  1   force =     0.03806787    0.01177273   -0.00731155
     atom   56 type  1   force =    -0.07710884   -0.05599148    0.05606967
     atom   57 type  1   force =     0.03271879   -0.03024854    0.00015240
     atom   58 type  1   force =     0.03124817   -0.00279320    0.01030161
     atom   59 type  1   force =    -0.01462045   -0.00578234    0.00350177
     atom   60 type  1   force =     0.00441053   -0.01874623    0.01079751
     atom   61 type  1   force =     0.02085928    0.00788733   -0.02820738
     atom   62 type  1   force =    -0.01617583    0.02858923    0.01470357
     atom   63 type  1   force =     0.04608451    0.01152190   -0.03155375
     atom   64 type  1   force =     0.03238300   -0.05442959   -0.00107712

     Total force =     0.380443     Total SCF correction =     0.000972


     Computing stress (Cartesian axis) and pressure

          total   stress  (Ry/bohr**3)                   (kbar)     P=      -38.41
  -0.00028666   0.00006454  -0.00000667          -42.17        9.49       -0.98
   0.00006454  -0.00026982  -0.00000183            9.49      -39.69       -0.27
  -0.00000667  -0.00000183  -0.00022685           -0.98       -0.27      -33.37

 
     init_run     :      1.11s CPU      4.94s WALL (       1 calls)
     electrons    :      2.00s CPU      2.16s WALL (       1 calls)
     forces       :      0.03s CPU      0.04s WALL (       1 calls)
     stress       :      0.15s CPU      0.15s WALL (       1 calls)

     Called by init_run:
     wfcinit      :      0.57s CPU      4.22s WALL (       1 calls)
                                        4.22s GPU  (       1 calls)
     potinit      :      0.05s CPU      0.14s WALL (       1 calls)
     hinit0       :      0.47s CPU      0.50s WALL (       1 calls)

     Called by electrons:
     c_bands      :      1.18s CPU      1.25s WALL (      20 calls)
     sum_band     :      0.39s CPU      0.45s WALL (      20 calls)
     v_of_rho     :      0.19s CPU      0.29s WALL (      20 calls)
     mix_rho      :      0.19s CPU      0.20s WALL (      20 calls)

     Called by c_bands:
     init_us_2    :      0.07s CPU      0.08s WALL (      41 calls)
     init_us_2:gp :      0.07s CPU      0.08s WALL (      41 calls)
     regterg      :      1.01s CPU      1.08s WALL (      20 calls)

     Called by *egterg:
     rdiaghg      :      0.41s CPU      1.16s WALL (      85 calls)
                                        1.15s GPU  (      85 calls)
     h_psi        :      0.98s CPU      3.93s WALL (      87 calls)
                                        3.93s GPU  (      87 calls)
     g_psi        :      0.00s CPU      0.00s WALL (      66 calls)
                                        0.00s GPU  (      66 calls)

     Called by h_psi:
     h_psi:calbec :      0.54s CPU      3.40s WALL (      87 calls)
                                        3.40s GPU  (      87 calls)
     vloc_psi     :      0.39s CPU      0.47s WALL (      87 calls)
                                        0.46s GPU  (      87 calls)
     add_vuspsi   :      0.03s CPU      0.05s WALL (      87 calls)
                                        0.05s GPU  (      87 calls)

     General routines
     calbec       :      0.54s CPU      3.40s WALL (      92 calls)
     fft          :      0.63s CPU      0.76s WALL (     167 calls)
                                        0.13s GPU  (     106 calls)
     ffts         :      0.05s CPU      0.05s WALL (      20 calls)
     fftw         :      0.48s CPU      0.63s WALL (    2104 calls)
                                        0.55s GPU  (    2104 calls)
 
     Parallel routines
 
     PWSCF        :      3.33s CPU      7.38s WALL

 
   This run was terminated on:  11: 8:32  10May2023            

=------------------------------------------------------------------------------=
   JOB DONE.
=------------------------------------------------------------------------------=
