An instance of this daemon is already running
An instance of this daemon is already running

     Program PWSCF v.7.1 starts on 10May2023 at 11: 4: 2 

     This program is part of the open-source Quantum ESPRESSO suite
     for quantum simulation of materials; please cite
         "P. Giannozzi et al., J. Phys.:Condens. Matter 21 395502 (2009);
         "P. Giannozzi et al., J. Phys.:Condens. Matter 29 465901 (2017);
         "P. Giannozzi et al., J. Chem. Phys. 152 154105 (2020);
          URL http://www.quantum-espresso.org", 
     in publications or presentations arising from this work. More details at
     http://www.quantum-espresso.org/quote

     Parallel version (MPI & OpenMP), running on       4 processor cores
     Number of MPI processes:                 4
     Threads/MPI process:                     1

     MPI processes distributed on     1 nodes
     753560 MiB available memory on the printing compute node when the environment starts
 
     Reading input from pw-si-62.in
Warning: card &CELL ignored
Warning: card / ignored

     Current dimensions of program PWSCF are:
     Max number of different atomic species (ntypx) = 10
     Max number of k-points (npk) =  40000
     Max angular momentum in pseudopotentials (lmaxx) =  4

     IMPORTANT: XC functional enforced from input :
     Exchange-correlation= PBE
                           (   1   4   3   4   0   0   0)
     Any further DFT definition will be discarded
     Please, verify this is what you really want


     gamma-point specific algorithms are used
 
     K-points division:     npool     =       2
     R & G space division:  proc/nbgrp/npool/nimage =       2
     Subspace diagonalization in iterative solution of the eigenvalue problem:
     a serial algorithm will be used

     Message from routine divide_et_impera:
     suboptimal parallelization: some nodes have no k-points
 
     Parallelization info
     --------------------
     sticks:   dense  smooth     PW     G-vecs:    dense   smooth      PW
     Min        1991    1991    524                94089    94089   12836
     Max        1994    1994    525                94094    94094   12841
     Sum        3985    3985   1049               188183   188183   25677
 
     Using Slab Decomposition
 


     bravais-lattice index     =            0
     lattice parameter (alat)  =      20.3966  a.u.
     unit-cell volume          =    8485.3639 (a.u.)^3
     number of atoms/cell      =           64
     number of atomic types    =            1
     number of electrons       =       256.00
     number of Kohn-Sham states=          154
     kinetic-energy cutoff     =      30.0000  Ry
     charge density cutoff     =     120.0000  Ry
     scf convergence threshold =      1.0E-06
     mixing beta               =       0.5000
     number of iterations used =            8  plain     mixing
     Exchange-correlation= PBE
                           (   1   4   3   4   0   0   0)

     GPU acceleration is ACTIVE.
     GPU-aware MPI enabled

     Message from routine print_cuda_info:
     High GPU oversubscription detected. Are you sure this is what you want?

     celldm(1)=  20.396555  celldm(2)=   0.000000  celldm(3)=   0.000000
     celldm(4)=   0.000000  celldm(5)=   0.000000  celldm(6)=   0.000000

     crystal axes: (cart. coord. in units of alat)
               a(1) = (   1.000000   0.000000   0.000000 )  
               a(2) = (   0.000000   1.000000   0.000000 )  
               a(3) = (   0.000000   0.000000   1.000000 )  

     reciprocal axes: (cart. coord. in units 2 pi/alat)
               b(1) = (  1.000000  0.000000  0.000000 )  
               b(2) = (  0.000000  1.000000  0.000000 )  
               b(3) = (  0.000000  0.000000  1.000000 )  


     PseudoPot. # 1 for Si read from file:
     /home/ppiaggi/pseudos/Si_ONCV_PBE_sr.upf
     MD5 check sum: 8553c464762ac42b85b1eed164b4d029
     Pseudo is Norm-conserving, Zval =  4.0
     Generated using ONCVPSP code by D. R. Hamann
     Using radial grid of 1510 points,  4 beta functions with: 
                l(1) =   0
                l(2) =   0
                l(3) =   1
                l(4) =   1

     atomic species   valence    mass     pseudopotential
        Si             4.00    28.08500     Si( 1.00)

     No symmetry found



   Cartesian axes

     site n.     atom                  positions (alat units)
         1           Si  tau(   1) = (   0.0187227   0.5137420   0.8951040  )
         2           Si  tau(   2) = (   0.1016180   0.0260381   0.9867480  )
         3           Si  tau(   3) = (   0.4382900   0.4534120   0.7032720  )
         4           Si  tau(   4) = (   0.7713460   0.4124190   0.2709450  )
         5           Si  tau(   5) = (   0.0878302   0.6385750   0.5900540  )
         6           Si  tau(   6) = (   0.8778780   0.5984010   0.5125580  )
         7           Si  tau(   7) = (   0.9229910   0.1701710   0.9004720  )
         8           Si  tau(   8) = (   0.6692080   0.9027810   0.0813557  )
         9           Si  tau(   9) = (   0.1191890   0.2174860   0.4485070  )
        10           Si  tau(  10) = (   0.1651880   0.8570090   0.6115340  )
        11           Si  tau(  11) = (   0.4608610   0.6954020   0.6936790  )
        12           Si  tau(  12) = (   0.0262812   0.3345310   0.1784520  )
        13           Si  tau(  13) = (   0.5898480   0.5075900   0.3644030  )
        14           Si  tau(  14) = (   0.6670170   0.7263180   0.4054810  )
        15           Si  tau(  15) = (   0.9663000   0.7997330   0.9369150  )
        16           Si  tau(  16) = (   0.1672950   0.4199130   0.4242240  )
        17           Si  tau(  17) = (   0.0356315   0.7055130   0.1993100  )
        18           Si  tau(  18) = (   0.5314410   0.5753940   0.9400040  )
        19           Si  tau(  19) = (   0.0376641   0.0983330   0.2115070  )
        20           Si  tau(  20) = (   0.4645910   0.5628350   0.1745610  )
        21           Si  tau(  21) = (   0.2667420   0.4384560   0.2012370  )
        22           Si  tau(  22) = (   0.8221140   0.1923240   0.3694090  )
        23           Si  tau(  23) = (   0.0685869   0.9556560   0.4264060  )
        24           Si  tau(  24) = (   0.8437580   0.7447980   0.1294480  )
        25           Si  tau(  25) = (   0.2917010   0.1691720   0.2490680  )
        26           Si  tau(  26) = (   0.2277010   0.1866140   0.6506940  )
        27           Si  tau(  27) = (   0.6558520   0.8854080   0.5540180  )
        28           Si  tau(  28) = (   0.2598440   0.6681030   0.8097910  )
        29           Si  tau(  29) = (   0.2551010   0.3603680   0.9915730  )
        30           Si  tau(  30) = (   0.7142100   0.8173200   0.7538290  )
        31           Si  tau(  31) = (   0.8804550   0.8092760   0.3833690  )
        32           Si  tau(  32) = (   0.3547960   0.7614490   0.0722699  )
        33           Si  tau(  33) = (   0.1951680   0.8946110   0.2238720  )
        34           Si  tau(  34) = (   0.2198450   0.8797090   0.8643300  )
        35           Si  tau(  35) = (   0.0837812   0.3185460   0.8317980  )
        36           Si  tau(  36) = (   0.9991730   0.5339590   0.3298560  )
        37           Si  tau(  37) = (   0.7402390   0.4320630   0.5426970  )
        38           Si  tau(  38) = (   0.6288650   0.1168590   0.4509970  )
        39           Si  tau(  39) = (   0.8722660   0.9870140   0.5420970  )
        40           Si  tau(  40) = (   0.3033360   0.1419050   0.0308289  )
        41           Si  tau(  41) = (   0.3962660   0.9264490   0.3388810  )
        42           Si  tau(  42) = (   0.4194640   0.3705860   0.4096150  )
        43           Si  tau(  43) = (   0.7072760   0.5583750   0.0923006  )
        44           Si  tau(  44) = (   0.8987050   0.2492000   0.5629110  )
        45           Si  tau(  45) = (   0.8070800   0.4083020   0.9699060  )
        46           Si  tau(  46) = (   0.7172290   0.5335450   0.7553110  )
        47           Si  tau(  47) = (   0.6115080   0.1095350   0.0841500  )
        48           Si  tau(  48) = (   0.7690940   0.2686070   0.7712150  )
        49           Si  tau(  49) = (   0.5748030   0.1756420   0.8713220  )
        50           Si  tau(  50) = (   0.4308470   0.0788677   0.6405950  )
        51           Si  tau(  51) = (   0.1768620   0.6175370   0.0317856  )
        52           Si  tau(  52) = (   0.8257720   0.9987170   0.2386010  )
        53           Si  tau(  53) = (   0.4247210   0.0211638   0.8604440  )
        54           Si  tau(  54) = (   0.4431940   0.3704880   0.9000850  )
        55           Si  tau(  55) = (   0.5447320   0.7946490   0.2340420  )
        56           Si  tau(  56) = (   0.5221180   0.1448920   0.2836870  )
        57           Si  tau(  57) = (   0.8605840   0.9781190   0.8090890  )
        58           Si  tau(  58) = (   0.8973310   0.6662710   0.7558310  )
        59           Si  tau(  59) = (   0.5580520   0.2834140   0.5957080  )
        60           Si  tau(  60) = (   0.5096950   0.8293950   0.8820750  )
        61           Si  tau(  61) = (   0.2449680   0.4358170   0.6483860  )
        62           Si  tau(  62) = (   0.8020700   0.2279450   0.0905364  )
        63           Si  tau(  63) = (   0.3977150   0.8713420   0.5514040  )
        64           Si  tau(  64) = (   0.0894169   0.0308558   0.7033430  )

     number of k points=     1  Fermi-Dirac smearing, width (Ry)=  0.0100
                       cart. coord. in units 2pi/alat
        k(    1) = (   0.0000000   0.0000000   0.0000000), wk =   2.0000000

     Dense  grid:    94092 G-vectors     FFT dimensions: (  72,  72,  72)

     Estimated max dynamical RAM per process >     150.54 MB

     Estimated total dynamical RAM >     579.19 MB

     Initial potential from superposition of free atoms

     starting charge     255.9608, renormalised to     256.0000
     Starting wfcs are  256 randomized atomic wfcs

     total cpu time spent up to now is        5.0 secs

     Self-consistent Calculation

     iteration #  1     ecut=    30.00 Ry     beta= 0.50
     Davidson diagonalization with overlap
     ethr =  1.00E-02,  avg # of iterations =  3.0

     Threshold (ethr) on eigenvalues was too large:
     Diagonalizing with lowered threshold

     Davidson diagonalization with overlap
     ethr =  4.05E-04,  avg # of iterations =  4.0

     total cpu time spent up to now is        5.3 secs

     total energy              =    -501.35790921 Ry
     estimated scf accuracy    <       1.22502334 Ry

     iteration #  2     ecut=    30.00 Ry     beta= 0.50
     Davidson diagonalization with overlap
     ethr =  4.79E-04,  avg # of iterations =  3.0

     total cpu time spent up to now is        5.4 secs

     total energy              =    -501.02443945 Ry
     estimated scf accuracy    <       3.07506204 Ry

     iteration #  3     ecut=    30.00 Ry     beta= 0.50
     Davidson diagonalization with overlap
     ethr =  4.79E-04,  avg # of iterations =  4.0

     total cpu time spent up to now is        5.5 secs

     total energy              =    -501.32954131 Ry
     estimated scf accuracy    <       2.63515322 Ry

     iteration #  4     ecut=    30.00 Ry     beta= 0.50
     Davidson diagonalization with overlap
     ethr =  4.79E-04,  avg # of iterations =  2.0

     total cpu time spent up to now is        5.6 secs

     total energy              =    -501.49068172 Ry
     estimated scf accuracy    <       0.51528952 Ry

     iteration #  5     ecut=    30.00 Ry     beta= 0.50
     Davidson diagonalization with overlap
     ethr =  2.01E-04,  avg # of iterations =  2.0

     total cpu time spent up to now is        5.7 secs

     total energy              =    -501.52085114 Ry
     estimated scf accuracy    <       0.45643375 Ry

     iteration #  6     ecut=    30.00 Ry     beta= 0.50
     Davidson diagonalization with overlap
     ethr =  1.78E-04,  avg # of iterations =  2.0

     total cpu time spent up to now is        5.8 secs

     total energy              =    -501.56066306 Ry
     estimated scf accuracy    <       0.08272033 Ry

     iteration #  7     ecut=    30.00 Ry     beta= 0.50
     Davidson diagonalization with overlap
     ethr =  3.23E-05,  avg # of iterations = 10.0

     total cpu time spent up to now is        5.9 secs

     total energy              =    -501.56796407 Ry
     estimated scf accuracy    <       0.04208453 Ry

     iteration #  8     ecut=    30.00 Ry     beta= 0.50
     Davidson diagonalization with overlap
     ethr =  1.64E-05,  avg # of iterations = 11.0

     total cpu time spent up to now is        6.1 secs

     total energy              =    -501.57238287 Ry
     estimated scf accuracy    <       0.00976792 Ry

     iteration #  9     ecut=    30.00 Ry     beta= 0.50
     Davidson diagonalization with overlap
     ethr =  3.82E-06,  avg # of iterations =  8.0

     total cpu time spent up to now is        6.2 secs

     total energy              =    -501.57331471 Ry
     estimated scf accuracy    <       0.00173967 Ry

     iteration # 10     ecut=    30.00 Ry     beta= 0.50
     Davidson diagonalization with overlap
     ethr =  6.80E-07,  avg # of iterations =  3.0

     total cpu time spent up to now is        6.3 secs

     total energy              =    -501.57344424 Ry
     estimated scf accuracy    <       0.00235127 Ry

     iteration # 11     ecut=    30.00 Ry     beta= 0.50
     Davidson diagonalization with overlap
     ethr =  6.80E-07,  avg # of iterations =  2.0

     total cpu time spent up to now is        6.4 secs

     total energy              =    -501.57364165 Ry
     estimated scf accuracy    <       0.00025987 Ry

     iteration # 12     ecut=    30.00 Ry     beta= 0.50
     Davidson diagonalization with overlap
     ethr =  1.02E-07,  avg # of iterations =  3.0

     total cpu time spent up to now is        6.5 secs

     total energy              =    -501.57367281 Ry
     estimated scf accuracy    <       0.00014596 Ry

     iteration # 13     ecut=    30.00 Ry     beta= 0.50
     Davidson diagonalization with overlap
     ethr =  5.70E-08,  avg # of iterations =  3.0

     total cpu time spent up to now is        6.6 secs

     total energy              =    -501.57368278 Ry
     estimated scf accuracy    <       0.00017433 Ry

     iteration # 14     ecut=    30.00 Ry     beta= 0.50
     Davidson diagonalization with overlap
     ethr =  5.70E-08,  avg # of iterations =  2.0

     total cpu time spent up to now is        6.7 secs

     total energy              =    -501.57369520 Ry
     estimated scf accuracy    <       0.00001555 Ry

     iteration # 15     ecut=    30.00 Ry     beta= 0.50
     Davidson diagonalization with overlap
     ethr =  6.07E-09,  avg # of iterations =  4.0

     total cpu time spent up to now is        6.8 secs

     total energy              =    -501.57369648 Ry
     estimated scf accuracy    <       0.00002583 Ry

     iteration # 16     ecut=    30.00 Ry     beta= 0.50
     Davidson diagonalization with overlap
     ethr =  6.07E-09,  avg # of iterations =  2.0

     total cpu time spent up to now is        6.9 secs

     total energy              =    -501.57369845 Ry
     estimated scf accuracy    <       0.00000507 Ry

     iteration # 17     ecut=    30.00 Ry     beta= 0.50
     Davidson diagonalization with overlap
     ethr =  1.98E-09,  avg # of iterations =  3.0

     total cpu time spent up to now is        7.0 secs

     total energy              =    -501.57369877 Ry
     estimated scf accuracy    <       0.00000534 Ry

     iteration # 18     ecut=    30.00 Ry     beta= 0.50
     Davidson diagonalization with overlap
     ethr =  1.98E-09,  avg # of iterations =  2.0

     total cpu time spent up to now is        7.1 secs

     total energy              =    -501.57369913 Ry
     estimated scf accuracy    <       0.00000105 Ry

     iteration # 19     ecut=    30.00 Ry     beta= 0.50
     Davidson diagonalization with overlap
     ethr =  4.12E-10,  avg # of iterations =  2.0

     total cpu time spent up to now is        7.2 secs

     End of self-consistent calculation

          k = 0.0000 0.0000 0.0000 ( 11792 PWs)   bands (ev):

    -5.6085  -4.7329  -4.5889  -4.4994  -4.4518  -4.4016  -4.3383  -3.7529
    -3.7036  -3.6292  -3.5470  -3.4551  -3.4485  -3.2846  -3.2531  -3.1722
    -3.1000  -3.0255  -2.8417  -2.5906  -2.4359  -2.3455  -2.2119  -2.1471
    -2.0557  -1.7312  -1.5166  -1.4634  -1.3179  -1.2340  -1.1028  -0.8788
    -0.6926  -0.6130  -0.4852  -0.4689  -0.3366  -0.2827  -0.2003  -0.1753
    -0.0781  -0.0457   0.1358   0.2160   0.2867   0.3659   0.4164   0.4540
     0.5433   0.7669   0.8151   0.9399   0.9927   1.0506   1.1004   1.2195
     1.3432   1.3850   1.6168   1.7475   1.8711   1.9005   1.9554   2.0566
     2.1219   2.2643   2.2884   2.3098   2.3768   2.4712   2.5922   2.6259
     2.7699   2.8995   2.9319   3.0090   3.1669   3.1904   3.2827   3.3448
     3.4396   3.6726   3.7234   3.8487   3.8795   4.0492   4.1157   4.1549
     4.2983   4.3771   4.4133   4.4879   4.5974   4.6684   4.7068   4.7414
     4.8020   4.8075   4.8341   4.8881   4.9742   5.0514   5.1389   5.1727
     5.2406   5.3177   5.3747   5.4226   5.4697   5.5081   5.5501   5.6074
     5.6679   5.7029   5.7784   5.8714   5.9300   6.0418   6.0667   6.1098
     6.1935   6.2681   6.3139   6.3858   6.4511   6.4955   6.5542   6.6416
     6.6632   6.7313   6.7630   6.8697   7.0051   7.0398   7.1178   7.1867
     7.2332   7.2595   7.3036   7.4075   7.4451   7.5475   7.5976   7.6611
     7.7130   7.7975   7.8361   7.8984   7.9464   8.0082   8.0801   8.1690
     8.1928   8.2594

     the Fermi energy is     6.6551 ev

!    total energy              =    -501.57369878 Ry
     estimated scf accuracy    <       0.00000060 Ry
     smearing contrib. (-TS)   =      -0.14098646 Ry
     internal energy E=F+TS    =    -501.43271232 Ry

     The total energy is F=E-TS. E is the sum of the following terms:
     one-electron contribution =     166.08928746 Ry
     hartree contribution      =      30.81689036 Ry
     xc contribution           =    -150.45231267 Ry
     ewald contribution        =    -547.88657746 Ry

     convergence has been achieved in  19 iterations

     Forces acting on atoms (cartesian axes, Ry/au):

     atom    1 type  1   force =    -0.03414083    0.00535555    0.01528724
     atom    2 type  1   force =     0.00931816    0.00587505    0.02809227
     atom    3 type  1   force =     0.08144912    0.02131935   -0.01680132
     atom    4 type  1   force =     0.02893163   -0.02405376   -0.00427941
     atom    5 type  1   force =     0.00830489    0.00578398    0.03903797
     atom    6 type  1   force =     0.00762604    0.03386256   -0.02568088
     atom    7 type  1   force =     0.01097531   -0.01577662    0.02594552
     atom    8 type  1   force =    -0.00167048   -0.03265565    0.01485970
     atom    9 type  1   force =    -0.02177224   -0.05568885    0.00820804
     atom   10 type  1   force =     0.05050226   -0.05620229   -0.02539659
     atom   11 type  1   force =    -0.00376191   -0.00248003    0.01888892
     atom   12 type  1   force =    -0.02335136   -0.01107463   -0.00502566
     atom   13 type  1   force =     0.00862278    0.02582298    0.01547556
     atom   14 type  1   force =     0.01817638   -0.02422866   -0.01228777
     atom   15 type  1   force =     0.00088794    0.03091812   -0.00537845
     atom   16 type  1   force =     0.03359540    0.02838719   -0.01950825
     atom   17 type  1   force =     0.06546934    0.00281708    0.01641575
     atom   18 type  1   force =     0.02781285    0.00443896    0.02752954
     atom   19 type  1   force =    -0.01417580   -0.01190190    0.00505576
     atom   20 type  1   force =     0.01514948    0.03437997   -0.02410908
     atom   21 type  1   force =    -0.00435166   -0.00301046   -0.00390838
     atom   22 type  1   force =    -0.01581077   -0.00431720   -0.01970946
     atom   23 type  1   force =    -0.01998608    0.02012397   -0.01618950
     atom   24 type  1   force =    -0.05992241    0.01353456   -0.05199426
     atom   25 type  1   force =     0.02204869   -0.00188580    0.03388569
     atom   26 type  1   force =     0.01441386    0.02521764   -0.01398789
     atom   27 type  1   force =    -0.00090180    0.02078331   -0.01848525
     atom   28 type  1   force =    -0.00817003    0.00073542   -0.01139428
     atom   29 type  1   force =    -0.03907164   -0.02884448    0.00825914
     atom   30 type  1   force =    -0.02121788    0.00302893    0.00105709
     atom   31 type  1   force =    -0.00826323   -0.00215744   -0.02539167
     atom   32 type  1   force =     0.01117506   -0.01092269   -0.01334291
     atom   33 type  1   force =     0.00303734    0.00442561    0.00916611
     atom   34 type  1   force =    -0.00664145    0.02015442   -0.00671417
     atom   35 type  1   force =     0.03336595   -0.01399472    0.00170791
     atom   36 type  1   force =    -0.02891274   -0.02545619    0.00479035
     atom   37 type  1   force =    -0.00635584   -0.02353804    0.03818876
     atom   38 type  1   force =     0.05330023   -0.01142796    0.09176368
     atom   39 type  1   force =     0.00808351    0.03545781    0.02226169
     atom   40 type  1   force =    -0.02362161   -0.01221601   -0.03624147
     atom   41 type  1   force =    -0.00490816    0.02062857   -0.03415254
     atom   42 type  1   force =    -0.00386920   -0.04077928    0.02065881
     atom   43 type  1   force =    -0.00824583    0.03259843    0.01143807
     atom   44 type  1   force =     0.01814182   -0.00067319    0.01140472
     atom   45 type  1   force =     0.03768046    0.02086610   -0.03839241
     atom   46 type  1   force =    -0.02023157   -0.02870182    0.00174918
     atom   47 type  1   force =     0.02489154    0.01083494    0.00245035
     atom   48 type  1   force =    -0.03239610    0.00804643   -0.02801440
     atom   49 type  1   force =     0.02395078    0.06369330    0.00648755
     atom   50 type  1   force =    -0.02781901    0.01877322    0.02349667
     atom   51 type  1   force =    -0.01242558   -0.01143925   -0.00314150
     atom   52 type  1   force =     0.02608387   -0.00197450    0.02453582
     atom   53 type  1   force =    -0.06474545    0.02420344   -0.00728830
     atom   54 type  1   force =     0.05190932   -0.01381588    0.00091987
     atom   55 type  1   force =    -0.02286578    0.00594754   -0.01941448
     atom   56 type  1   force =    -0.10777882   -0.00385687   -0.05937957
     atom   57 type  1   force =     0.04411379   -0.00141821   -0.02434887
     atom   58 type  1   force =     0.02078408   -0.01134869   -0.00110885
     atom   59 type  1   force =    -0.00617470   -0.00057894   -0.02258445
     atom   60 type  1   force =     0.03546179   -0.06355534    0.03339015
     atom   61 type  1   force =    -0.09749855   -0.00557945   -0.03756686
     atom   62 type  1   force =     0.04714296    0.01163164   -0.00143432
     atom   63 type  1   force =    -0.02693355    0.00618246    0.01812308
     atom   64 type  1   force =    -0.06441458   -0.01027376    0.05212228

     Total force =     0.392831     Total SCF correction =     0.001550


     Computing stress (Cartesian axis) and pressure

          total   stress  (Ry/bohr**3)                   (kbar)     P=      -33.75
  -0.00023249  -0.00004679   0.00006877          -34.20       -6.88       10.12
  -0.00004679  -0.00030737  -0.00002603           -6.88      -45.22       -3.83
   0.00006877  -0.00002603  -0.00014833           10.12       -3.83      -21.82

 
     init_run     :      1.06s CPU      4.93s WALL (       1 calls)
     electrons    :      2.02s CPU      2.17s WALL (       1 calls)
     forces       :      0.04s CPU      0.04s WALL (       1 calls)
     stress       :      0.16s CPU      0.16s WALL (       1 calls)

     Called by init_run:
     wfcinit      :      0.52s CPU      4.21s WALL (       1 calls)
                                        4.21s GPU  (       1 calls)
     potinit      :      0.05s CPU      0.15s WALL (       1 calls)
     hinit0       :      0.47s CPU      0.50s WALL (       1 calls)

     Called by electrons:
     c_bands      :      1.18s CPU      1.25s WALL (      20 calls)
     sum_band     :      0.41s CPU      0.45s WALL (      20 calls)
     v_of_rho     :      0.19s CPU      0.30s WALL (      20 calls)
     mix_rho      :      0.20s CPU      0.21s WALL (      20 calls)

     Called by c_bands:
     init_us_2    :      0.07s CPU      0.08s WALL (      41 calls)
     init_us_2:gp :      0.07s CPU      0.08s WALL (      41 calls)
     regterg      :      1.01s CPU      1.07s WALL (      20 calls)

     Called by *egterg:
     rdiaghg      :      0.40s CPU      1.16s WALL (      94 calls)
                                        1.14s GPU  (      94 calls)
     h_psi        :      0.94s CPU      3.91s WALL (      96 calls)
                                        3.91s GPU  (      96 calls)
     g_psi        :      0.00s CPU      0.00s WALL (      75 calls)
                                        0.00s GPU  (      75 calls)

     Called by h_psi:
     h_psi:calbec :      0.49s CPU      3.38s WALL (      96 calls)
                                        3.38s GPU  (      96 calls)
     vloc_psi     :      0.39s CPU      0.46s WALL (      96 calls)
                                        0.46s GPU  (      96 calls)
     add_vuspsi   :      0.04s CPU      0.05s WALL (      96 calls)
                                        0.05s GPU  (      96 calls)

     General routines
     calbec       :      0.49s CPU      3.39s WALL (     101 calls)
     fft          :      0.63s CPU      0.77s WALL (     167 calls)
                                        0.14s GPU  (     106 calls)
     ffts         :      0.05s CPU      0.06s WALL (      20 calls)
     fftw         :      0.48s CPU      0.62s WALL (    2116 calls)
                                        0.55s GPU  (    2116 calls)
 
     Parallel routines
 
     PWSCF        :      3.32s CPU      7.39s WALL

 
   This run was terminated on:  11: 4: 9  10May2023            

=------------------------------------------------------------------------------=
   JOB DONE.
=------------------------------------------------------------------------------=
