An instance of this daemon is already running

     Program PWSCF v.7.1 starts on 10May2023 at 10:57:14 

     This program is part of the open-source Quantum ESPRESSO suite
     for quantum simulation of materials; please cite
         "P. Giannozzi et al., J. Phys.:Condens. Matter 21 395502 (2009);
         "P. Giannozzi et al., J. Phys.:Condens. Matter 29 465901 (2017);
         "P. Giannozzi et al., J. Chem. Phys. 152 154105 (2020);
          URL http://www.quantum-espresso.org", 
     in publications or presentations arising from this work. More details at
     http://www.quantum-espresso.org/quote

     Parallel version (MPI & OpenMP), running on       4 processor cores
     Number of MPI processes:                 4
     Threads/MPI process:                     1

     MPI processes distributed on     1 nodes
     753550 MiB available memory on the printing compute node when the environment starts
 
     Reading input from pw-si-20.in
Warning: card &CELL ignored
Warning: card / ignored

     Current dimensions of program PWSCF are:
     Max number of different atomic species (ntypx) = 10
     Max number of k-points (npk) =  40000
     Max angular momentum in pseudopotentials (lmaxx) =  4

     IMPORTANT: XC functional enforced from input :
     Exchange-correlation= PBE
                           (   1   4   3   4   0   0   0)
     Any further DFT definition will be discarded
     Please, verify this is what you really want


     gamma-point specific algorithms are used
 
     K-points division:     npool     =       2
     R & G space division:  proc/nbgrp/npool/nimage =       2
     Subspace diagonalization in iterative solution of the eigenvalue problem:
     a serial algorithm will be used

     Message from routine divide_et_impera:
     suboptimal parallelization: some nodes have no k-points
 
     Parallelization info
     --------------------
     sticks:   dense  smooth     PW     G-vecs:    dense   smooth      PW
     Min        1968    1968    520                92771    92771   12632
     Max        1969    1969    521                92772    92772   12637
     Sum        3937    3937   1041               185543   185543   25269
 
     Using Slab Decomposition
 


     bravais-lattice index     =            0
     lattice parameter (alat)  =      20.2876  a.u.
     unit-cell volume          =    8350.1549 (a.u.)^3
     number of atoms/cell      =           64
     number of atomic types    =            1
     number of electrons       =       256.00
     number of Kohn-Sham states=          154
     kinetic-energy cutoff     =      30.0000  Ry
     charge density cutoff     =     120.0000  Ry
     scf convergence threshold =      1.0E-06
     mixing beta               =       0.5000
     number of iterations used =            8  plain     mixing
     Exchange-correlation= PBE
                           (   1   4   3   4   0   0   0)

     GPU acceleration is ACTIVE.
     GPU-aware MPI enabled

     Message from routine print_cuda_info:
     High GPU oversubscription detected. Are you sure this is what you want?

     celldm(1)=  20.287639  celldm(2)=   0.000000  celldm(3)=   0.000000
     celldm(4)=   0.000000  celldm(5)=   0.000000  celldm(6)=   0.000000

     crystal axes: (cart. coord. in units of alat)
               a(1) = (   1.000000   0.000000   0.000000 )  
               a(2) = (   0.000000   1.000000   0.000000 )  
               a(3) = (   0.000000   0.000000   1.000000 )  

     reciprocal axes: (cart. coord. in units 2 pi/alat)
               b(1) = (  1.000000  0.000000  0.000000 )  
               b(2) = (  0.000000  1.000000  0.000000 )  
               b(3) = (  0.000000  0.000000  1.000000 )  


     PseudoPot. # 1 for Si read from file:
     /home/ppiaggi/pseudos/Si_ONCV_PBE_sr.upf
     MD5 check sum: 8553c464762ac42b85b1eed164b4d029
     Pseudo is Norm-conserving, Zval =  4.0
     Generated using ONCVPSP code by D. R. Hamann
     Using radial grid of 1510 points,  4 beta functions with: 
                l(1) =   0
                l(2) =   0
                l(3) =   1
                l(4) =   1

     atomic species   valence    mass     pseudopotential
        Si             4.00    28.08500     Si( 1.00)

     No symmetry found



   Cartesian axes

     site n.     atom                  positions (alat units)
         1           Si  tau(   1) = (   0.7986280   0.2205420   0.8105030  )
         2           Si  tau(   2) = (   0.0949344   0.3557200   0.6738460  )
         3           Si  tau(   3) = (   0.1397060   0.2434960   0.8719040  )
         4           Si  tau(   4) = (   0.3164160   0.4007500   0.9191220  )
         5           Si  tau(   5) = (   0.1141800   0.0187747   0.4191950  )
         6           Si  tau(   6) = (   0.7745880   0.3601420   0.0570976  )
         7           Si  tau(   7) = (   0.9250570   0.5917400   0.9668890  )
         8           Si  tau(   8) = (   0.2637420   0.2435870   0.4118140  )
         9           Si  tau(   9) = (   0.6155240   0.5875400   0.0622121  )
        10           Si  tau(  10) = (   0.4825450   0.7850260   0.9894010  )
        11           Si  tau(  11) = (   0.4614690   0.5918780   0.2211540  )
        12           Si  tau(  12) = (   0.7409980   0.6274710   0.7955530  )
        13           Si  tau(  13) = (   0.8665550   0.8366460   0.8819390  )
        14           Si  tau(  14) = (   0.2638660   0.9730110   0.9683420  )
        15           Si  tau(  15) = (   0.9018420   0.4137290   0.7641510  )
        16           Si  tau(  16) = (   0.4597930   0.5873840   0.8361380  )
        17           Si  tau(  17) = (   0.5778010   0.3969630   0.5965620  )
        18           Si  tau(  18) = (   0.0029392   0.5573610   0.3934700  )
        19           Si  tau(  19) = (   0.5757100   0.2981240   0.4030050  )
        20           Si  tau(  20) = (   0.5832650   0.9375880   0.3379480  )
        21           Si  tau(  21) = (   0.8395990   0.9865350   0.0486364  )
        22           Si  tau(  22) = (   0.6060760   0.1048780   0.6463840  )
        23           Si  tau(  23) = (   0.6261650   0.9637050   0.9042800  )
        24           Si  tau(  24) = (   0.7561220   0.2382020   0.2497150  )
        25           Si  tau(  25) = (   0.0099157   0.3779920   0.1718590  )
        26           Si  tau(  26) = (   0.9185070   0.3400780   0.3933770  )
        27           Si  tau(  27) = (   0.4009290   0.8202580   0.2229810  )
        28           Si  tau(  28) = (   0.3927640   0.3762300   0.2601960  )
        29           Si  tau(  29) = (   0.1874410   0.0471297   0.7751280  )
        30           Si  tau(  30) = (   0.3039220   0.2542020   0.0932472  )
        31           Si  tau(  31) = (   0.2806370   0.7643290   0.9838820  )
        32           Si  tau(  32) = (   0.4619960   0.1023780   0.9948070  )
        33           Si  tau(  33) = (   0.0393367   0.6046400   0.6190650  )
        34           Si  tau(  34) = (   0.7217310   0.6524530   0.4580650  )
        35           Si  tau(  35) = (   0.3052070   0.3037350   0.6393190  )
        36           Si  tau(  36) = (   0.1391250   0.5363130   0.8476170  )
        37           Si  tau(  37) = (   0.1097110   0.8090950   0.2207160  )
        38           Si  tau(  38) = (   0.3981700   0.5456530   0.5888210  )
        39           Si  tau(  39) = (   0.6461530   0.0735409   0.1641990  )
        40           Si  tau(  40) = (   0.7799730   0.9347250   0.4450270  )
        41           Si  tau(  41) = (   0.3131670   0.0613037   0.5952090  )
        42           Si  tau(  42) = (   0.2288140   0.4958490   0.4374690  )
        43           Si  tau(  43) = (   0.7477930   0.8369240   0.6536280  )
        44           Si  tau(  44) = (   0.6190550   0.4047150   0.8532230  )
        45           Si  tau(  45) = (   0.4956440   0.1019020   0.4545910  )
        46           Si  tau(  46) = (   0.0452517   0.6002470   0.1542600  )
        47           Si  tau(  47) = (   0.4813880   0.2035320   0.7998120  )
        48           Si  tau(  48) = (   0.2560720   0.5789020   0.1073440  )
        49           Si  tau(  49) = (   0.0595615   0.8999360   0.7172400  )
        50           Si  tau(  50) = (   0.4962260   0.6885530   0.4415410  )
        51           Si  tau(  51) = (   0.7831910   0.7225470   0.1216550  )
        52           Si  tau(  52) = (   0.0319877   0.8320930   0.5055210  )
        53           Si  tau(  53) = (   0.1531390   0.1878920   0.2135180  )
        54           Si  tau(  54) = (   0.9145050   0.0856391   0.2763270  )
        55           Si  tau(  55) = (   0.7722740   0.4847020   0.5837250  )
        56           Si  tau(  56) = (   0.0372656   0.2110860   0.5175010  )
        57           Si  tau(  57) = (   0.9263990   0.2013330   0.9841940  )
        58           Si  tau(  58) = (   0.3243020   0.8261900   0.5885450  )
        59           Si  tau(  59) = (   0.8962570   0.0596291   0.6383420  )
        60           Si  tau(  60) = (   0.2359730   0.7383650   0.3913740  )
        61           Si  tau(  61) = (   0.8864480   0.7553570   0.3171680  )
        62           Si  tau(  62) = (   0.0946892   0.9859830   0.1018540  )
        63           Si  tau(  63) = (   0.2294110   0.7317030   0.7616830  )
        64           Si  tau(  64) = (   0.5203730   0.9009900   0.6946050  )

     number of k points=     1  Fermi-Dirac smearing, width (Ry)=  0.0100
                       cart. coord. in units 2pi/alat
        k(    1) = (   0.0000000   0.0000000   0.0000000), wk =   2.0000000

     Dense  grid:    92772 G-vectors     FFT dimensions: (  72,  72,  72)

     Estimated max dynamical RAM per process >     148.43 MB

     Estimated total dynamical RAM >     571.06 MB

     Initial potential from superposition of free atoms

     starting charge     255.9608, renormalised to     256.0000
     Starting wfcs are  256 randomized atomic wfcs

     total cpu time spent up to now is        5.0 secs

     Self-consistent Calculation

     iteration #  1     ecut=    30.00 Ry     beta= 0.50
     Davidson diagonalization with overlap
     ethr =  1.00E-02,  avg # of iterations =  3.0

     Threshold (ethr) on eigenvalues was too large:
     Diagonalizing with lowered threshold

     Davidson diagonalization with overlap
     ethr =  4.65E-04,  avg # of iterations =  4.0

     total cpu time spent up to now is        5.3 secs

     total energy              =    -501.12031263 Ry
     estimated scf accuracy    <       1.43718211 Ry

     iteration #  2     ecut=    30.00 Ry     beta= 0.50
     Davidson diagonalization with overlap
     ethr =  5.61E-04,  avg # of iterations =  4.0

     total cpu time spent up to now is        5.4 secs

     total energy              =    -500.34154105 Ry
     estimated scf accuracy    <      10.48906411 Ry

     iteration #  3     ecut=    30.00 Ry     beta= 0.50
     Davidson diagonalization with overlap
     ethr =  5.61E-04,  avg # of iterations =  5.0

     total cpu time spent up to now is        5.5 secs

     total energy              =    -501.28770925 Ry
     estimated scf accuracy    <       2.03120039 Ry

     iteration #  4     ecut=    30.00 Ry     beta= 0.50
     Davidson diagonalization with overlap
     ethr =  5.61E-04,  avg # of iterations =  2.0

     total cpu time spent up to now is        5.6 secs

     total energy              =    -501.40097620 Ry
     estimated scf accuracy    <       0.51672635 Ry

     iteration #  5     ecut=    30.00 Ry     beta= 0.50
     Davidson diagonalization with overlap
     ethr =  2.02E-04,  avg # of iterations =  2.0

     total cpu time spent up to now is        5.7 secs

     total energy              =    -501.42831058 Ry
     estimated scf accuracy    <       0.48697168 Ry

     iteration #  6     ecut=    30.00 Ry     beta= 0.50
     Davidson diagonalization with overlap
     ethr =  1.90E-04,  avg # of iterations =  2.0

     total cpu time spent up to now is        5.8 secs

     total energy              =    -501.47150446 Ry
     estimated scf accuracy    <       0.07678478 Ry

     iteration #  7     ecut=    30.00 Ry     beta= 0.50
     Davidson diagonalization with overlap
     ethr =  3.00E-05,  avg # of iterations =  2.0

     total cpu time spent up to now is        5.9 secs

     total energy              =    -501.47947908 Ry
     estimated scf accuracy    <       0.03698660 Ry

     iteration #  8     ecut=    30.00 Ry     beta= 0.50
     Davidson diagonalization with overlap
     ethr =  1.44E-05,  avg # of iterations =  3.0

     total cpu time spent up to now is        6.0 secs

     total energy              =    -501.48346864 Ry
     estimated scf accuracy    <       0.01815776 Ry

     iteration #  9     ecut=    30.00 Ry     beta= 0.50
     Davidson diagonalization with overlap
     ethr =  7.09E-06,  avg # of iterations = 19.0

     total cpu time spent up to now is        6.2 secs

     total energy              =    -501.48498428 Ry
     estimated scf accuracy    <       0.00136440 Ry

     iteration # 10     ecut=    30.00 Ry     beta= 0.50
     Davidson diagonalization with overlap
     ethr =  5.33E-07,  avg # of iterations =  8.0

     total cpu time spent up to now is        6.3 secs

     total energy              =    -501.48508342 Ry
     estimated scf accuracy    <       0.00244153 Ry

     iteration # 11     ecut=    30.00 Ry     beta= 0.50
     Davidson diagonalization with overlap
     ethr =  5.33E-07,  avg # of iterations =  3.0

     total cpu time spent up to now is        6.5 secs

     total energy              =    -501.48527923 Ry
     estimated scf accuracy    <       0.00057550 Ry

     iteration # 12     ecut=    30.00 Ry     beta= 0.50
     Davidson diagonalization with overlap
     ethr =  2.25E-07,  avg # of iterations =  2.0

     total cpu time spent up to now is        6.5 secs

     total energy              =    -501.48533219 Ry
     estimated scf accuracy    <       0.00025934 Ry

     iteration # 13     ecut=    30.00 Ry     beta= 0.50
     Davidson diagonalization with overlap
     ethr =  1.01E-07,  avg # of iterations =  2.0

     total cpu time spent up to now is        6.6 secs

     total energy              =    -501.48535113 Ry
     estimated scf accuracy    <       0.00014462 Ry

     iteration # 14     ecut=    30.00 Ry     beta= 0.50
     Davidson diagonalization with overlap
     ethr =  5.65E-08,  avg # of iterations =  1.0

     total cpu time spent up to now is        6.7 secs

     total energy              =    -501.48536070 Ry
     estimated scf accuracy    <       0.00002611 Ry

     iteration # 15     ecut=    30.00 Ry     beta= 0.50
     Davidson diagonalization with overlap
     ethr =  1.02E-08,  avg # of iterations =  4.0

     total cpu time spent up to now is        6.8 secs

     total energy              =    -501.48536339 Ry
     estimated scf accuracy    <       0.00003799 Ry

     iteration # 16     ecut=    30.00 Ry     beta= 0.50
     Davidson diagonalization with overlap
     ethr =  1.02E-08,  avg # of iterations =  2.0

     total cpu time spent up to now is        6.9 secs

     total energy              =    -501.48536614 Ry
     estimated scf accuracy    <       0.00000515 Ry

     iteration # 17     ecut=    30.00 Ry     beta= 0.50
     Davidson diagonalization with overlap
     ethr =  2.01E-09,  avg # of iterations =  2.0

     total cpu time spent up to now is        7.0 secs

     total energy              =    -501.48536663 Ry
     estimated scf accuracy    <       0.00000158 Ry

     iteration # 18     ecut=    30.00 Ry     beta= 0.50
     Davidson diagonalization with overlap
     ethr =  6.16E-10,  avg # of iterations =  3.0

     total cpu time spent up to now is        7.1 secs

     total energy              =    -501.48536672 Ry
     estimated scf accuracy    <       0.00000334 Ry

     iteration # 19     ecut=    30.00 Ry     beta= 0.50
     Davidson diagonalization with overlap
     ethr =  6.16E-10,  avg # of iterations =  2.0

     total cpu time spent up to now is        7.2 secs

     End of self-consistent calculation

          k = 0.0000 0.0000 0.0000 ( 11516 PWs)   bands (ev):

    -5.6117  -4.7469  -4.5664  -4.4593  -4.3987  -4.3571  -4.2287  -3.7116
    -3.5299  -3.4842  -3.3874  -3.3288  -3.3198  -3.1701  -3.1021  -3.0158
    -2.9764  -2.7822  -2.6870  -2.5049  -2.2089  -2.1556  -2.0348  -1.8733
    -1.8057  -1.7339  -1.4323  -1.2448  -1.1913  -0.9544  -0.8300  -0.7224
    -0.5634  -0.5177  -0.3443  -0.3161  -0.2664  -0.2036  -0.0869   0.0376
     0.1063   0.1868   0.2375   0.3844   0.4470   0.4895   0.5523   0.6929
     0.7102   0.8212   0.8566   1.0239   1.0801   1.1393   1.2297   1.3600
     1.4346   1.5480   1.6527   1.7483   1.9672   2.0685   2.1255   2.2385
     2.3877   2.4372   2.5047   2.5799   2.6470   2.6803   2.7850   2.8339
     2.9379   2.9929   3.0588   3.2134   3.2708   3.3910   3.4662   3.5794
     3.6343   3.6983   3.8667   3.9055   4.1245   4.1773   4.1951   4.2779
     4.3903   4.4641   4.5343   4.5948   4.6694   4.7490   4.8282   4.9200
     4.9611   5.0695   5.0919   5.1137   5.1798   5.2024   5.2900   5.3904
     5.4449   5.4823   5.5080   5.5252   5.6662   5.7063   5.7417   5.8582
     5.9005   5.9348   5.9746   6.0641   6.1944   6.2199   6.2631   6.3537
     6.4022   6.4411   6.5219   6.5807   6.6097   6.7107   6.7449   6.7757
     6.8235   6.8860   6.9521   7.0193   7.1275   7.1768   7.1865   7.2634
     7.2798   7.3712   7.4149   7.4363   7.5951   7.7097   7.7690   7.8933
     7.9398   7.9604   7.9840   8.0137   8.1763   8.2093   8.2855   8.3202
     8.3829   8.4955

     the Fermi energy is     6.8212 ev

!    total energy              =    -501.48536683 Ry
     estimated scf accuracy    <       0.00000018 Ry
     smearing contrib. (-TS)   =      -0.15564341 Ry
     internal energy E=F+TS    =    -501.32972342 Ry

     The total energy is F=E-TS. E is the sum of the following terms:
     one-electron contribution =     169.15032876 Ry
     hartree contribution      =      30.89897106 Ry
     xc contribution           =    -150.69749990 Ry
     ewald contribution        =    -550.68152335 Ry

     convergence has been achieved in  19 iterations

     Forces acting on atoms (cartesian axes, Ry/au):

     atom    1 type  1   force =    -0.03381490   -0.01496144   -0.02264775
     atom    2 type  1   force =     0.01770191    0.01656190    0.02676524
     atom    3 type  1   force =    -0.03889593    0.00394297   -0.00647695
     atom    4 type  1   force =    -0.01653395    0.02265974    0.00546920
     atom    5 type  1   force =     0.00601990    0.03444470   -0.01216654
     atom    6 type  1   force =     0.02711507    0.01084709   -0.00241061
     atom    7 type  1   force =    -0.01322402    0.01214453   -0.01020558
     atom    8 type  1   force =    -0.00307367   -0.01216993    0.01004870
     atom    9 type  1   force =    -0.01014157    0.01679028   -0.02994455
     atom   10 type  1   force =     0.11694454   -0.00400456    0.00557300
     atom   11 type  1   force =    -0.02630135   -0.00094704    0.01175049
     atom   12 type  1   force =    -0.00949133   -0.02208841   -0.00533873
     atom   13 type  1   force =     0.00869474   -0.02419708   -0.02007327
     atom   14 type  1   force =     0.03040559    0.04152369   -0.01830645
     atom   15 type  1   force =    -0.01686751    0.03744837   -0.00306152
     atom   16 type  1   force =     0.00666232   -0.01095871   -0.00055190
     atom   17 type  1   force =    -0.03833753    0.00727320    0.02366283
     atom   18 type  1   force =     0.00926581   -0.01967494   -0.00652952
     atom   19 type  1   force =    -0.02098232    0.00066889   -0.05982174
     atom   20 type  1   force =    -0.00843302   -0.01071306   -0.02536165
     atom   21 type  1   force =     0.01458483    0.01872075    0.03281052
     atom   22 type  1   force =     0.01289348   -0.01327435    0.03171485
     atom   23 type  1   force =    -0.01567999   -0.03538353   -0.00569589
     atom   24 type  1   force =    -0.01067159    0.05715011    0.02479530
     atom   25 type  1   force =    -0.02642834   -0.03589171    0.01029682
     atom   26 type  1   force =    -0.03032565    0.04480493   -0.02970946
     atom   27 type  1   force =     0.01991223   -0.02397693    0.01274816
     atom   28 type  1   force =     0.01904414    0.00880208    0.04332436
     atom   29 type  1   force =     0.05370539    0.06489663    0.04525084
     atom   30 type  1   force =     0.10257159    0.03782758   -0.06194122
     atom   31 type  1   force =    -0.05819895   -0.04072484   -0.01348915
     atom   32 type  1   force =    -0.02468344    0.00226227    0.03443509
     atom   33 type  1   force =     0.00335948    0.00223297   -0.00505660
     atom   34 type  1   force =    -0.00088297    0.04777266    0.00329142
     atom   35 type  1   force =     0.02561512   -0.00964066   -0.00043187
     atom   36 type  1   force =    -0.00576331   -0.00421209   -0.01512577
     atom   37 type  1   force =    -0.02434688   -0.03748841    0.03518094
     atom   38 type  1   force =     0.00567927   -0.01792788    0.01477211
     atom   39 type  1   force =    -0.01338032   -0.04327632   -0.01924616
     atom   40 type  1   force =     0.03761788   -0.00589158   -0.02129575
     atom   41 type  1   force =     0.01227652    0.00578274   -0.03437133
     atom   42 type  1   force =     0.01060291    0.01219216   -0.00519482
     atom   43 type  1   force =    -0.03699018   -0.00909690    0.00192728
     atom   44 type  1   force =     0.00457169   -0.00547330   -0.00714702
     atom   45 type  1   force =    -0.03332241   -0.00437212    0.00861275
     atom   46 type  1   force =     0.00607361    0.00250333    0.02814919
     atom   47 type  1   force =    -0.00017663    0.04833238   -0.02737513
     atom   48 type  1   force =     0.02911761   -0.00652735   -0.02207127
     atom   49 type  1   force =    -0.07180459   -0.07114492    0.00269574
     atom   50 type  1   force =     0.01668122    0.00811780   -0.00535646
     atom   51 type  1   force =     0.01597866    0.01050189   -0.02754850
     atom   52 type  1   force =    -0.00335484   -0.01528680   -0.00610486
     atom   53 type  1   force =    -0.08318763   -0.03744802    0.04690653
     atom   54 type  1   force =     0.01102873   -0.04393501    0.01016160
     atom   55 type  1   force =     0.04445916    0.00334610    0.01721990
     atom   56 type  1   force =    -0.00507179   -0.02780734    0.00085198
     atom   57 type  1   force =     0.02879976   -0.00271287    0.01599059
     atom   58 type  1   force =     0.03078828    0.02397883   -0.01785492
     atom   59 type  1   force =    -0.01750698    0.00002395   -0.00728065
     atom   60 type  1   force =     0.00077485   -0.00459130   -0.00420758
     atom   61 type  1   force =     0.00343984    0.00205337    0.02762806
     atom   62 type  1   force =    -0.04227584    0.05467343    0.00886838
     atom   63 type  1   force =    -0.03707909   -0.03095474    0.00404765
     atom   64 type  1   force =     0.04484239   -0.01352720    0.01445167

     Total force =     0.388338     Total SCF correction =     0.000766


     Computing stress (Cartesian axis) and pressure

          total   stress  (Ry/bohr**3)                   (kbar)     P=      -28.53
  -0.00020394   0.00003166  -0.00003896          -30.00        4.66       -5.73
   0.00003166  -0.00015446  -0.00003659            4.66      -22.72       -5.38
  -0.00003896  -0.00003659  -0.00022339           -5.73       -5.38      -32.86

 
     init_run     :      1.10s CPU      4.95s WALL (       1 calls)
     electrons    :      2.04s CPU      2.21s WALL (       1 calls)
     forces       :      0.04s CPU      0.04s WALL (       1 calls)
     stress       :      0.16s CPU      0.16s WALL (       1 calls)

     Called by init_run:
     wfcinit      :      0.55s CPU      4.23s WALL (       1 calls)
                                        4.23s GPU  (       1 calls)
     potinit      :      0.06s CPU      0.15s WALL (       1 calls)
     hinit0       :      0.47s CPU      0.50s WALL (       1 calls)

     Called by electrons:
     c_bands      :      1.20s CPU      1.27s WALL (      20 calls)
     sum_band     :      0.41s CPU      0.46s WALL (      20 calls)
     v_of_rho     :      0.20s CPU      0.30s WALL (      20 calls)
     mix_rho      :      0.19s CPU      0.21s WALL (      20 calls)

     Called by c_bands:
     init_us_2    :      0.07s CPU      0.08s WALL (      41 calls)
     init_us_2:gp :      0.07s CPU      0.08s WALL (      41 calls)
     regterg      :      1.04s CPU      1.10s WALL (      20 calls)

     Called by *egterg:
     rdiaghg      :      0.43s CPU      1.18s WALL (      94 calls)
                                        1.17s GPU  (      94 calls)
     h_psi        :      0.97s CPU      3.93s WALL (      96 calls)
                                        3.93s GPU  (      96 calls)
     g_psi        :      0.00s CPU      0.00s WALL (      75 calls)
                                        0.00s GPU  (      75 calls)

     Called by h_psi:
     h_psi:calbec :      0.51s CPU      3.40s WALL (      96 calls)
                                        3.40s GPU  (      96 calls)
     vloc_psi     :      0.40s CPU      0.47s WALL (      96 calls)
                                        0.46s GPU  (      96 calls)
     add_vuspsi   :      0.04s CPU      0.05s WALL (      96 calls)
                                        0.05s GPU  (      96 calls)

     General routines
     calbec       :      0.52s CPU      3.41s WALL (     101 calls)
     fft          :      0.63s CPU      0.77s WALL (     167 calls)
                                        0.14s GPU  (     106 calls)
     ffts         :      0.05s CPU      0.05s WALL (      20 calls)
     fftw         :      0.49s CPU      0.63s WALL (    2118 calls)
                                        0.55s GPU  (    2118 calls)
 
     Parallel routines
 
     PWSCF        :      3.38s CPU      7.45s WALL

 
   This run was terminated on:  10:57:22  10May2023            

=------------------------------------------------------------------------------=
   JOB DONE.
=------------------------------------------------------------------------------=
