10.863523890352559 0.0 0.0 0.0 10.863523890352559 0.0 0.0 0.0 10.863523890352559
10.863191037888505 0.0 0.0 0.0 10.863191037888505 0.0 0.0 0.0 10.863191037888505
10.861882382652247 0.0 0.0 0.0 10.861882382652247 0.0 0.0 0.0 10.861882382652247
10.859324869204274 0.0 0.0 0.0 10.859324869204274 0.0 0.0 0.0 10.859324869204274
10.855528022734337 0.0 0.0 0.0 10.855528022734337 0.0 0.0 0.0 10.855528022734337
10.850511422799146 0.0 0.0 0.0 10.850511422799146 0.0 0.0 0.0 10.850511422799146
10.844506849015959 0.0 0.0 0.0 10.844506849015959 0.0 0.0 0.0 10.844506849015959
10.83807205416238 0.0 0.0 0.0 10.83807205416238 0.0 0.0 0.0 10.83807205416238
10.831462101652836 0.0 0.0 0.0 10.831462101652836 0.0 0.0 0.0 10.831462101652836
10.82433196794748 0.0 0.0 0.0 10.82433196794748 0.0 0.0 0.0 10.82433196794748
10.816356738240385 0.0 0.0 0.0 10.816356738240385 0.0 0.0 0.0 10.816356738240385
10.807623197593717 0.0 0.0 0.0 10.807623197593717 0.0 0.0 0.0 10.807623197593717
10.798290099169986 0.0 0.0 0.0 10.798290099169986 0.0 0.0 0.0 10.798290099169986
10.788369084867774 0.0 0.0 0.0 10.788369084867774 0.0 0.0 0.0 10.788369084867774
10.77783792924433 0.0 0.0 0.0 10.77783792924433 0.0 0.0 0.0 10.77783792924433
10.766960691726622 0.0 0.0 0.0 10.766960691726622 0.0 0.0 0.0 10.766960691726622
10.755971268640744 0.0 0.0 0.0 10.755971268640744 0.0 0.0 0.0 10.755971268640744
10.744646876381978 0.0 0.0 0.0 10.744646876381978 0.0 0.0 0.0 10.744646876381978
10.732583752740352 0.0 0.0 0.0 10.732583752740352 0.0 0.0 0.0 10.732583752740352
10.719612561009189 0.0 0.0 0.0 10.719612561009189 0.0 0.0 0.0 10.719612561009189
10.706237077890846 0.0 0.0 0.0 10.706237077890846 0.0 0.0 0.0 10.706237077890846
10.693513011915984 0.0 0.0 0.0 10.693513011915984 0.0 0.0 0.0 10.693513011915984
10.68241616585681 0.0 0.0 0.0 10.68241616585681 0.0 0.0 0.0 10.68241616585681
10.673597956856806 0.0 0.0 0.0 10.673597956856806 0.0 0.0 0.0 10.673597956856806
10.667434629911114 0.0 0.0 0.0 10.667434629911114 0.0 0.0 0.0 10.667434629911114
10.664239987104283 0.0 0.0 0.0 10.664239987104283 0.0 0.0 0.0 10.664239987104283
10.664477058493624 0.0 0.0 0.0 10.664477058493624 0.0 0.0 0.0 10.664477058493624
10.66805006300443 0.0 0.0 0.0 10.66805006300443 0.0 0.0 0.0 10.66805006300443
10.674400189504672 0.0 0.0 0.0 10.674400189504672 0.0 0.0 0.0 10.674400189504672
10.683686720334068 0.0 0.0 0.0 10.683686720334068 0.0 0.0 0.0 10.683686720334068
10.696073171249997 0.0 0.0 0.0 10.696073171249997 0.0 0.0 0.0 10.696073171249997
10.711675961238303 0.0 0.0 0.0 10.711675961238303 0.0 0.0 0.0 10.711675961238303
10.730430001502352 0.0 0.0 0.0 10.730430001502352 0.0 0.0 0.0 10.730430001502352
10.751730442492999 0.0 0.0 0.0 10.751730442492999 0.0 0.0 0.0 10.751730442492999
10.774799922891171 0.0 0.0 0.0 10.774799922891171 0.0 0.0 0.0 10.774799922891171
10.798817159669506 0.0 0.0 0.0 10.798817159669506 0.0 0.0 0.0 10.798817159669506
10.823222283341563 0.0 0.0 0.0 10.823222283341563 0.0 0.0 0.0 10.823222283341563
10.847843840491835 0.0 0.0 0.0 10.847843840491835 0.0 0.0 0.0 10.847843840491835
10.87230135270752 0.0 0.0 0.0 10.87230135270752 0.0 0.0 0.0 10.87230135270752
10.895781474619376 0.0 0.0 0.0 10.895781474619376 0.0 0.0 0.0 10.895781474619376
10.917735978639547 0.0 0.0 0.0 10.917735978639547 0.0 0.0 0.0 10.917735978639547
10.938080725591906 0.0 0.0 0.0 10.938080725591906 0.0 0.0 0.0 10.938080725591906
10.957157563953052 0.0 0.0 0.0 10.957157563953052 0.0 0.0 0.0 10.957157563953052
10.975335859414413 0.0 0.0 0.0 10.975335859414413 0.0 0.0 0.0 10.975335859414413
10.992688109253534 0.0 0.0 0.0 10.992688109253534 0.0 0.0 0.0 10.992688109253534
11.009159808217953 0.0 0.0 0.0 11.009159808217953 0.0 0.0 0.0 11.009159808217953
11.02485573339493 0.0 0.0 0.0 11.02485573339493 0.0 0.0 0.0 11.02485573339493
11.040153717311222 0.0 0.0 0.0 11.040153717311222 0.0 0.0 0.0 11.040153717311222
11.055427888253138 0.0 0.0 0.0 11.055427888253138 0.0 0.0 0.0 11.055427888253138
11.070675600334637 0.0 0.0 0.0 11.070675600334637 0.0 0.0 0.0 11.070675600334637
11.085887328365967 0.0 0.0 0.0 11.085887328365967 0.0 0.0 0.0 11.085887328365967
11.101409683418602 0.0 0.0 0.0 11.101409683418602 0.0 0.0 0.0 11.101409683418602
11.117215677454915 0.0 0.0 0.0 11.117215677454915 0.0 0.0 0.0 11.117215677454915
11.13290419415097 0.0 0.0 0.0 11.13290419415097 0.0 0.0 0.0 11.13290419415097
11.148308542686143 0.0 0.0 0.0 11.148308542686143 0.0 0.0 0.0 11.148308542686143
11.163538791919766 0.0 0.0 0.0 11.163538791919766 0.0 0.0 0.0 11.163538791919766
11.178770099507807 0.0 0.0 0.0 11.178770099507807 0.0 0.0 0.0 11.178770099507807
11.194083958740348 0.0 0.0 0.0 11.194083958740348 0.0 0.0 0.0 11.194083958740348
11.209605784615775 0.0 0.0 0.0 11.209605784615775 0.0 0.0 0.0 11.209605784615775
11.225445645993423 0.0 0.0 0.0 11.225445645993423 0.0 0.0 0.0 11.225445645993423
11.24174112894746 0.0 0.0 0.0 11.24174112894746 0.0 0.0 0.0 11.24174112894746
11.258349884808846 0.0 0.0 0.0 11.258349884808846 0.0 0.0 0.0 11.258349884808846
11.274578162257423 0.0 0.0 0.0 11.274578162257423 0.0 0.0 0.0 11.274578162257423
11.289549114658953 0.0 0.0 0.0 11.289549114658953 0.0 0.0 0.0 11.289549114658953
11.302861096512295 0.0 0.0 0.0 11.302861096512295 0.0 0.0 0.0 11.302861096512295
11.31469085300504 0.0 0.0 0.0 11.31469085300504 0.0 0.0 0.0 11.31469085300504
11.325555919446954 0.0 0.0 0.0 11.325555919446954 0.0 0.0 0.0 11.325555919446954
11.335804494441136 0.0 0.0 0.0 11.335804494441136 0.0 0.0 0.0 11.335804494441136
11.345370960013753 0.0 0.0 0.0 11.345370960013753 0.0 0.0 0.0 11.345370960013753
11.354320934138636 0.0 0.0 0.0 11.354320934138636 0.0 0.0 0.0 11.354320934138636
11.362730089156582 0.0 0.0 0.0 11.362730089156582 0.0 0.0 0.0 11.362730089156582
11.370396279373999 0.0 0.0 0.0 11.370396279373999 0.0 0.0 0.0 11.370396279373999
11.376948022390625 0.0 0.0 0.0 11.376948022390625 0.0 0.0 0.0 11.376948022390625
11.382258844853661 0.0 0.0 0.0 11.382258844853661 0.0 0.0 0.0 11.382258844853661
11.386630906949076 0.0 0.0 0.0 11.386630906949076 0.0 0.0 0.0 11.386630906949076
11.390476966899392 0.0 0.0 0.0 11.390476966899392 0.0 0.0 0.0 11.390476966899392
11.39391979381694 0.0 0.0 0.0 11.39391979381694 0.0 0.0 0.0 11.39391979381694
11.396786875931799 0.0 0.0 0.0 11.396786875931799 0.0 0.0 0.0 11.396786875931799
11.398899880524754 0.0 0.0 0.0 11.398899880524754 0.0 0.0 0.0 11.398899880524754
11.400387397657436 0.0 0.0 0.0 11.400387397657436 0.0 0.0 0.0 11.400387397657436
11.401521953592146 0.0 0.0 0.0 11.401521953592146 0.0 0.0 0.0 11.401521953592146
11.402270739341967 0.0 0.0 0.0 11.402270739341967 0.0 0.0 0.0 11.402270739341967
11.402184483457004 0.0 0.0 0.0 11.402184483457004 0.0 0.0 0.0 11.402184483457004
11.40076258429816 0.0 0.0 0.0 11.40076258429816 0.0 0.0 0.0 11.40076258429816
11.397902910664216 0.0 0.0 0.0 11.397902910664216 0.0 0.0 0.0 11.397902910664216
11.393756278059557 0.0 0.0 0.0 11.393756278059557 0.0 0.0 0.0 11.393756278059557
11.388363433129227 0.0 0.0 0.0 11.388363433129227 0.0 0.0 0.0 11.388363433129227
11.381811160935394 0.0 0.0 0.0 11.381811160935394 0.0 0.0 0.0 11.381811160935394
11.373911074391883 0.0 0.0 0.0 11.373911074391883 0.0 0.0 0.0 11.373911074391883
11.36421601875764 0.0 0.0 0.0 11.36421601875764 0.0 0.0 0.0 11.36421601875764
11.35281172074041 0.0 0.0 0.0 11.35281172074041 0.0 0.0 0.0 11.35281172074041
11.340212011409513 0.0 0.0 0.0 11.340212011409513 0.0 0.0 0.0 11.340212011409513
11.326969351770465 0.0 0.0 0.0 11.326969351770465 0.0 0.0 0.0 11.326969351770465
11.31362350257579 0.0 0.0 0.0 11.31362350257579 0.0 0.0 0.0 11.31362350257579
11.300346975595408 0.0 0.0 0.0 11.300346975595408 0.0 0.0 0.0 11.300346975595408
11.287305932472742 0.0 0.0 0.0 11.287305932472742 0.0 0.0 0.0 11.287305932472742
11.275152848705696 0.0 0.0 0.0 11.275152848705696 0.0 0.0 0.0 11.275152848705696
11.26471906168859 0.0 0.0 0.0 11.26471906168859 0.0 0.0 0.0 11.26471906168859
11.256209363001057 0.0 0.0 0.0 11.256209363001057 0.0 0.0 0.0 11.256209363001057
11.249059120561782 0.0 0.0 0.0 11.249059120561782 0.0 0.0 0.0 11.249059120561782
11.24269576463133 0.0 0.0 0.0 11.24269576463133 0.0 0.0 0.0 11.24269576463133
