An instance of this daemon is already running
An instance of this daemon is already running

     Program PWSCF v.7.1 starts on 11May2023 at 12:34:15 

     This program is part of the open-source Quantum ESPRESSO suite
     for quantum simulation of materials; please cite
         "P. Giannozzi et al., J. Phys.:Condens. Matter 21 395502 (2009);
         "P. Giannozzi et al., J. Phys.:Condens. Matter 29 465901 (2017);
         "P. Giannozzi et al., J. Chem. Phys. 152 154105 (2020);
          URL http://www.quantum-espresso.org", 
     in publications or presentations arising from this work. More details at
     http://www.quantum-espresso.org/quote

     Parallel version (MPI & OpenMP), running on       4 processor cores
     Number of MPI processes:                 4
     Threads/MPI process:                     1

     MPI processes distributed on     1 nodes
     696770 MiB available memory on the printing compute node when the environment starts
 
     Reading input from pw-si-93.in
Warning: card &CELL ignored
Warning: card / ignored

     Current dimensions of program PWSCF are:
     Max number of different atomic species (ntypx) = 10
     Max number of k-points (npk) =  40000
     Max angular momentum in pseudopotentials (lmaxx) =  4

     IMPORTANT: XC functional enforced from input :
     Exchange-correlation= PBE
                           (   1   4   3   4   0   0   0)
     Any further DFT definition will be discarded
     Please, verify this is what you really want


     gamma-point specific algorithms are used
 
     K-points division:     npool     =       2
     R & G space division:  proc/nbgrp/npool/nimage =       2
     Subspace diagonalization in iterative solution of the eigenvalue problem:
     a serial algorithm will be used

     Message from routine divide_et_impera:
     suboptimal parallelization: some nodes have no k-points
 
     Parallelization info
     --------------------
     sticks:   dense  smooth     PW     G-vecs:    dense   smooth      PW
     Min        2185    2185    575               108611   108611   14709
     Max        2188    2188    578               108620   108620   14714
     Sum        4373    4373   1153               217231   217231   29423
 
     Using Slab Decomposition
 


     bravais-lattice index     =            0
     lattice parameter (alat)  =      21.3797  a.u.
     unit-cell volume          =    9772.4126 (a.u.)^3
     number of atoms/cell      =           64
     number of atomic types    =            1
     number of electrons       =       256.00
     number of Kohn-Sham states=          154
     kinetic-energy cutoff     =      30.0000  Ry
     charge density cutoff     =     120.0000  Ry
     scf convergence threshold =      1.0E-06
     mixing beta               =       0.5000
     number of iterations used =            8  plain     mixing
     Exchange-correlation= PBE
                           (   1   4   3   4   0   0   0)

     GPU acceleration is ACTIVE.
     GPU-aware MPI enabled

     Message from routine print_cuda_info:
     High GPU oversubscription detected. Are you sure this is what you want?

     celldm(1)=  21.379650  celldm(2)=   0.000000  celldm(3)=   0.000000
     celldm(4)=   0.000000  celldm(5)=   0.000000  celldm(6)=   0.000000

     crystal axes: (cart. coord. in units of alat)
               a(1) = (   1.000000   0.000000   0.000000 )  
               a(2) = (   0.000000   1.000000   0.000000 )  
               a(3) = (   0.000000   0.000000   1.000000 )  

     reciprocal axes: (cart. coord. in units 2 pi/alat)
               b(1) = (  1.000000  0.000000  0.000000 )  
               b(2) = (  0.000000  1.000000  0.000000 )  
               b(3) = (  0.000000  0.000000  1.000000 )  


     PseudoPot. # 1 for Si read from file:
     /home/ppiaggi/pseudos/Si_ONCV_PBE_sr.upf
     MD5 check sum: 8553c464762ac42b85b1eed164b4d029
     Pseudo is Norm-conserving, Zval =  4.0
     Generated using ONCVPSP code by D. R. Hamann
     Using radial grid of 1510 points,  4 beta functions with: 
                l(1) =   0
                l(2) =   0
                l(3) =   1
                l(4) =   1

     atomic species   valence    mass     pseudopotential
        Si             4.00    28.08500     Si( 1.00)

     No symmetry found



   Cartesian axes

     site n.     atom                  positions (alat units)
         1           Si  tau(   1) = (   0.9397770   0.4234170   0.6412260  )
         2           Si  tau(   2) = (   0.7700330   0.5351790   0.1214440  )
         3           Si  tau(   3) = (   0.7473360   0.9095150   0.3915060  )
         4           Si  tau(   4) = (   0.7155580   0.4820500   0.3497890  )
         5           Si  tau(   5) = (   0.9095110   0.1876070   0.5431230  )
         6           Si  tau(   6) = (   0.2165320   0.4614830   0.8524100  )
         7           Si  tau(   7) = (   0.9265300   0.2012060   0.0802754  )
         8           Si  tau(   8) = (   0.2663650   0.8411510   0.9887790  )
         9           Si  tau(   9) = (   0.5930760   0.8598980   0.2496960  )
        10           Si  tau(  10) = (   0.3066870   0.0555904   0.0332657  )
        11           Si  tau(  11) = (   0.9874900   0.1125200   0.8347630  )
        12           Si  tau(  12) = (   0.0868163   0.6621310   0.9810830  )
        13           Si  tau(  13) = (   0.5519030   0.3474480   0.6838230  )
        14           Si  tau(  14) = (   0.9423920   0.2174200   0.3362330  )
        15           Si  tau(  15) = (   0.6368920   0.2155470   0.9375030  )
        16           Si  tau(  16) = (   0.7396200   0.4365410   0.5543840  )
        17           Si  tau(  17) = (   0.4728350   0.1704530   0.1077010  )
        18           Si  tau(  18) = (   0.7909100   0.2683300   0.8058130  )
        19           Si  tau(  19) = (   0.6572910   0.8054780   0.5692070  )
        20           Si  tau(  20) = (   0.2662650   0.1508870   0.8118030  )
        21           Si  tau(  21) = (   0.4525930   0.1055650   0.7139340  )
        22           Si  tau(  22) = (   0.8414930   0.6200670   0.5871340  )
        23           Si  tau(  23) = (   0.4240400   0.8993390   0.5375290  )
        24           Si  tau(  24) = (   0.2907390   0.4027930   0.0949426  )
        25           Si  tau(  25) = (   0.1401140   0.5975580   0.2011420  )
        26           Si  tau(  26) = (   0.2378510   0.2006720   0.1390770  )
        27           Si  tau(  27) = (   0.9487900   0.9251160   0.9497140  )
        28           Si  tau(  28) = (   0.6526880   0.1141490   0.2602370  )
        29           Si  tau(  29) = (   0.4442230   0.7500440   0.0861210  )
        30           Si  tau(  30) = (   0.7350300   0.2609540   0.4133360  )
        31           Si  tau(  31) = (   0.2880250   0.3246250   0.5816620  )
        32           Si  tau(  32) = (   0.3288900   0.2648520   0.3140950  )
        33           Si  tau(  33) = (   0.1265910   0.7940850   0.5950310  )
        34           Si  tau(  34) = (   0.4847350   0.3317710   0.0098147  )
        35           Si  tau(  35) = (   0.9298100   0.7671760   0.0880219  )
        36           Si  tau(  36) = (   0.3969730   0.3313410   0.8191980  )
        37           Si  tau(  37) = (   0.3158190   0.6205750   0.9446330  )
        38           Si  tau(  38) = (   0.9423930   0.8435760   0.2818130  )
        39           Si  tau(  39) = (   0.5219560   0.9079990   0.7295520  )
        40           Si  tau(  40) = (   0.1184640   0.4563280   0.3815210  )
        41           Si  tau(  41) = (   0.2567610   0.9432900   0.3641790  )
        42           Si  tau(  42) = (   0.8203600   0.3977570   0.9713960  )
        43           Si  tau(  43) = (   0.1576830   0.8189030   0.1837120  )
        44           Si  tau(  44) = (   0.2852260   0.6458310   0.4025140  )
        45           Si  tau(  45) = (   0.1358720   0.4760530   0.6587590  )
        46           Si  tau(  46) = (   0.3395520   0.7263140   0.7159830  )
        47           Si  tau(  47) = (   0.4460640   0.5507690   0.8066470  )
        48           Si  tau(  48) = (   0.1544930   0.2612980   0.4526570  )
        49           Si  tau(  49) = (   0.7674220   0.2704220   0.1644530  )
        50           Si  tau(  50) = (   0.6468480   0.6759890   0.3708970  )
        51           Si  tau(  51) = (   0.9248350   0.4795120   0.4075060  )
        52           Si  tau(  52) = (   0.0662238   0.0544959   0.4977870  )
        53           Si  tau(  53) = (   0.3873410   0.4491500   0.4318330  )
        54           Si  tau(  54) = (   0.0959381   0.3480460   0.1512950  )
        55           Si  tau(  55) = (   0.5553150   0.3238070   0.2720330  )
        56           Si  tau(  56) = (   0.1026920   0.3078000   0.9279120  )
        57           Si  tau(  57) = (   0.3666250   0.5841820   0.2116110  )
        58           Si  tau(  58) = (   0.0116765   0.6563210   0.7462990  )
        59           Si  tau(  59) = (   0.7010210   0.6931650   0.9747640  )
        60           Si  tau(  60) = (   0.0027240   0.6888770   0.4713540  )
        61           Si  tau(  61) = (   0.8663260   0.9885300   0.1520280  )
        62           Si  tau(  62) = (   0.1292920   0.9582280   0.8642960  )
        63           Si  tau(  63) = (   0.6492030   0.5172290   0.8820910  )
        64           Si  tau(  64) = (   0.4176980   0.7805070   0.3335530  )

     number of k points=     1  Fermi-Dirac smearing, width (Ry)=  0.0100
                       cart. coord. in units 2pi/alat
        k(    1) = (   0.0000000   0.0000000   0.0000000), wk =   2.0000000

     Dense  grid:   108616 G-vectors     FFT dimensions: (  75,  75,  75)

     Estimated max dynamical RAM per process >     172.89 MB

     Estimated total dynamical RAM >     665.05 MB

     Initial potential from superposition of free atoms

     starting charge     255.9608, renormalised to     256.0000
     Starting wfcs are  256 randomized atomic wfcs

     total cpu time spent up to now is        4.6 secs

     Self-consistent Calculation

     iteration #  1     ecut=    30.00 Ry     beta= 0.50
     Davidson diagonalization with overlap
     ethr =  1.00E-02,  avg # of iterations =  3.0

     Threshold (ethr) on eigenvalues was too large:
     Diagonalizing with lowered threshold

     Davidson diagonalization with overlap
     ethr =  7.59E-04,  avg # of iterations =  4.0

     total cpu time spent up to now is        4.9 secs

     total energy              =    -499.60980717 Ry
     estimated scf accuracy    <       2.47780741 Ry

     iteration #  2     ecut=    30.00 Ry     beta= 0.50
     Davidson diagonalization with overlap
     ethr =  9.68E-04,  avg # of iterations =  6.0

     total cpu time spent up to now is        5.1 secs

     total energy              =    -497.66219409 Ry
     estimated scf accuracy    <      32.95935287 Ry

     iteration #  3     ecut=    30.00 Ry     beta= 0.50
     Davidson diagonalization with overlap
     ethr =  9.68E-04,  avg # of iterations =  5.0

     total cpu time spent up to now is        5.2 secs

     total energy              =    -500.24350295 Ry
     estimated scf accuracy    <       2.18598238 Ry

     iteration #  4     ecut=    30.00 Ry     beta= 0.50
     Davidson diagonalization with overlap
     ethr =  8.54E-04,  avg # of iterations =  3.0

     total cpu time spent up to now is        5.4 secs

     total energy              =    -500.36739309 Ry
     estimated scf accuracy    <       2.08094811 Ry

     iteration #  5     ecut=    30.00 Ry     beta= 0.50
     Davidson diagonalization with overlap
     ethr =  8.13E-04,  avg # of iterations =  2.0

     total cpu time spent up to now is        5.5 secs

     total energy              =    -500.50433897 Ry
     estimated scf accuracy    <       0.63334519 Ry

     iteration #  6     ecut=    30.00 Ry     beta= 0.50
     Davidson diagonalization with overlap
     ethr =  2.47E-04,  avg # of iterations =  2.0

     total cpu time spent up to now is        5.6 secs

     total energy              =    -500.55483327 Ry
     estimated scf accuracy    <       0.18869835 Ry

     iteration #  7     ecut=    30.00 Ry     beta= 0.50
     Davidson diagonalization with overlap
     ethr =  7.37E-05,  avg # of iterations =  2.0

     total cpu time spent up to now is        5.7 secs

     total energy              =    -500.56778715 Ry
     estimated scf accuracy    <       0.14391012 Ry

     iteration #  8     ecut=    30.00 Ry     beta= 0.50
     Davidson diagonalization with overlap
     ethr =  5.62E-05,  avg # of iterations =  2.0

     total cpu time spent up to now is        5.8 secs

     total energy              =    -500.57948464 Ry
     estimated scf accuracy    <       0.02745676 Ry

     iteration #  9     ecut=    30.00 Ry     beta= 0.50
     Davidson diagonalization with overlap
     ethr =  1.07E-05,  avg # of iterations =  2.0

     total cpu time spent up to now is        6.0 secs

     total energy              =    -500.58251031 Ry
     estimated scf accuracy    <       0.00959182 Ry

     iteration # 10     ecut=    30.00 Ry     beta= 0.50
     Davidson diagonalization with overlap
     c_bands:  1 eigenvalues not converged
     ethr =  3.75E-06,  avg # of iterations = 20.0

     total cpu time spent up to now is        6.2 secs

     total energy              =    -500.58317790 Ry
     estimated scf accuracy    <       0.01021969 Ry

     iteration # 11     ecut=    30.00 Ry     beta= 0.50
     Davidson diagonalization with overlap
     ethr =  3.75E-06,  avg # of iterations =  2.0

     total cpu time spent up to now is        6.3 secs

     total energy              =    -500.58372924 Ry
     estimated scf accuracy    <       0.00144053 Ry

     iteration # 12     ecut=    30.00 Ry     beta= 0.50
     Davidson diagonalization with overlap
     ethr =  5.63E-07,  avg # of iterations =  5.0

     total cpu time spent up to now is        6.5 secs

     total energy              =    -500.58389305 Ry
     estimated scf accuracy    <       0.00201308 Ry

     iteration # 13     ecut=    30.00 Ry     beta= 0.50
     Davidson diagonalization with overlap
     ethr =  5.63E-07,  avg # of iterations =  2.0

     total cpu time spent up to now is        6.6 secs

     total energy              =    -500.58400275 Ry
     estimated scf accuracy    <       0.00090591 Ry

     iteration # 14     ecut=    30.00 Ry     beta= 0.50
     Davidson diagonalization with overlap
     ethr =  3.54E-07,  avg # of iterations =  2.0

     total cpu time spent up to now is        6.7 secs

     total energy              =    -500.58407522 Ry
     estimated scf accuracy    <       0.00012791 Ry

     iteration # 15     ecut=    30.00 Ry     beta= 0.50
     Davidson diagonalization with overlap
     ethr =  5.00E-08,  avg # of iterations =  2.0

     total cpu time spent up to now is        6.8 secs

     total energy              =    -500.58409156 Ry
     estimated scf accuracy    <       0.00005996 Ry

     iteration # 16     ecut=    30.00 Ry     beta= 0.50
     Davidson diagonalization with overlap
     ethr =  2.34E-08,  avg # of iterations =  3.0

     total cpu time spent up to now is        7.0 secs

     total energy              =    -500.58409299 Ry
     estimated scf accuracy    <       0.00004285 Ry

     iteration # 17     ecut=    30.00 Ry     beta= 0.50
     Davidson diagonalization with overlap
     ethr =  1.67E-08,  avg # of iterations =  3.0

     total cpu time spent up to now is        7.1 secs

     total energy              =    -500.58409472 Ry
     estimated scf accuracy    <       0.00006884 Ry

     iteration # 18     ecut=    30.00 Ry     beta= 0.50
     Davidson diagonalization with overlap
     ethr =  1.67E-08,  avg # of iterations =  2.0

     total cpu time spent up to now is        7.2 secs

     total energy              =    -500.58409906 Ry
     estimated scf accuracy    <       0.00000863 Ry

     iteration # 19     ecut=    30.00 Ry     beta= 0.50
     Davidson diagonalization with overlap
     ethr =  3.37E-09,  avg # of iterations =  2.0

     total cpu time spent up to now is        7.3 secs

     total energy              =    -500.58409992 Ry
     estimated scf accuracy    <       0.00000310 Ry

     iteration # 20     ecut=    30.00 Ry     beta= 0.50
     Davidson diagonalization with overlap
     ethr =  1.21E-09,  avg # of iterations =  2.0

     total cpu time spent up to now is        7.4 secs

     End of self-consistent calculation

          k = 0.0000 0.0000 0.0000 ( 13601 PWs)   bands (ev):

    -7.2440  -6.7904  -6.3974  -6.1890  -6.1450  -5.8622  -5.6812  -5.4969
    -5.3863  -5.2513  -5.0939  -4.9568  -4.8213  -4.7726  -4.5800  -4.3190
    -4.2849  -4.1749  -4.1096  -3.8833  -3.8203  -3.6076  -3.5344  -3.3489
    -3.2074  -2.9811  -2.8184  -2.7049  -2.6336  -2.5194  -2.3950  -2.2877
    -2.2472  -1.9717  -1.9492  -1.8866  -1.8060  -1.6774  -1.6179  -1.5768
    -1.5243  -1.4817  -1.2461  -1.1361  -1.0887  -0.9979  -0.9246  -0.8648
    -0.6401  -0.6086  -0.4716  -0.3882  -0.2808  -0.1857  -0.0892  -0.0065
     0.1441   0.2495   0.3706   0.4212   0.4916   0.7059   0.7668   0.9329
     1.0444   1.1003   1.1750   1.2719   1.3606   1.4621   1.5306   1.6068
     1.6787   1.7609   1.7979   1.8705   1.9374   2.0524   2.1326   2.1773
     2.2110   2.3256   2.4053   2.5334   2.5520   2.6364   2.6844   2.7136
     2.8572   2.9351   2.9546   3.0792   3.1089   3.1797   3.2016   3.2372
     3.3329   3.3706   3.4108   3.4616   3.5946   3.6671   3.7183   3.7805
     3.7961   3.8336   3.9206   3.9237   3.9997   4.0868   4.1259   4.1884
     4.2265   4.3450   4.4173   4.4925   4.5374   4.6115   4.6374   4.7123
     4.7150   4.8202   4.8418   4.9200   4.9959   5.0185   5.0548   5.0772
     5.1264   5.2055   5.2547   5.2971   5.3651   5.4309   5.5362   5.6185
     5.6574   5.6821   5.7112   5.7896   5.8886   5.9219   6.0819   6.1820
     6.1934   6.2300   6.2556   6.2727   6.3449   6.4087   6.4445   6.5199
     6.5909   6.6434

     the Fermi energy is     5.1362 ev

!    total energy              =    -500.58410005 Ry
     estimated scf accuracy    <       0.00000032 Ry
     smearing contrib. (-TS)   =      -0.16701881 Ry
     internal energy E=F+TS    =    -500.41708125 Ry

     The total energy is F=E-TS. E is the sum of the following terms:
     one-electron contribution =      21.67230113 Ry
     hartree contribution      =      89.01073006 Ry
     xc contribution           =    -148.63183749 Ry
     ewald contribution        =    -462.46827494 Ry

     convergence has been achieved in  20 iterations

     Forces acting on atoms (cartesian axes, Ry/au):

     atom    1 type  1   force =    -0.03709922   -0.03670290   -0.00530665
     atom    2 type  1   force =    -0.00539743    0.00454961   -0.00954326
     atom    3 type  1   force =    -0.00808453   -0.01292008    0.00049841
     atom    4 type  1   force =     0.00551694   -0.01350057   -0.04522760
     atom    5 type  1   force =    -0.01093477    0.02363630    0.01833147
     atom    6 type  1   force =     0.01239164   -0.01097583    0.00695921
     atom    7 type  1   force =     0.07563319   -0.02186109   -0.02861831
     atom    8 type  1   force =    -0.01149971    0.00183656    0.02042788
     atom    9 type  1   force =     0.00374295   -0.00548650    0.00066724
     atom   10 type  1   force =     0.02045340   -0.05057148   -0.06611357
     atom   11 type  1   force =    -0.02548938    0.03228038    0.01914917
     atom   12 type  1   force =     0.02206938   -0.00898593   -0.00610946
     atom   13 type  1   force =     0.03474874   -0.00926517   -0.01313908
     atom   14 type  1   force =     0.01432346    0.01691121   -0.02340218
     atom   15 type  1   force =     0.02359433   -0.00507022    0.02308982
     atom   16 type  1   force =    -0.01902695   -0.02841622    0.02263182
     atom   17 type  1   force =     0.00982253   -0.10801261    0.06524235
     atom   18 type  1   force =     0.02299276    0.01613005   -0.02078911
     atom   19 type  1   force =     0.00054202   -0.01419286   -0.03567592
     atom   20 type  1   force =    -0.00061386   -0.00011007    0.03054950
     atom   21 type  1   force =     0.00003446    0.02637869   -0.00983081
     atom   22 type  1   force =    -0.00615439    0.03037179    0.02626587
     atom   23 type  1   force =    -0.00662335   -0.02138046   -0.01137294
     atom   24 type  1   force =     0.03472294    0.04825860   -0.01019238
     atom   25 type  1   force =     0.02860070    0.00564461    0.00001318
     atom   26 type  1   force =    -0.02349422    0.03153193    0.02407103
     atom   27 type  1   force =    -0.03565665    0.02545314    0.01656361
     atom   28 type  1   force =     0.00750779   -0.01734003   -0.02165728
     atom   29 type  1   force =     0.01296576   -0.01944677    0.00253957
     atom   30 type  1   force =     0.01258318   -0.01076103   -0.00034985
     atom   31 type  1   force =     0.03806379    0.03864314    0.06407339
     atom   32 type  1   force =     0.00338371    0.02785574    0.01331805
     atom   33 type  1   force =     0.03172783    0.01566230    0.04180772
     atom   34 type  1   force =    -0.00156172    0.12029819   -0.04050591
     atom   35 type  1   force =    -0.01192069   -0.01936767   -0.00133557
     atom   36 type  1   force =    -0.03441423   -0.00595026    0.00908480
     atom   37 type  1   force =    -0.02885261    0.04149823    0.02975668
     atom   38 type  1   force =     0.01517378   -0.00781870    0.03137012
     atom   39 type  1   force =    -0.00940436   -0.03134153   -0.01712568
     atom   40 type  1   force =     0.05085988    0.00716285   -0.03339664
     atom   41 type  1   force =    -0.00392945   -0.00779513    0.01102181
     atom   42 type  1   force =    -0.00819004   -0.02245937    0.00777168
     atom   43 type  1   force =    -0.01726151    0.00107349    0.01110595
     atom   44 type  1   force =    -0.04908105   -0.04639125    0.01857951
     atom   45 type  1   force =     0.01717817    0.01803298    0.00242522
     atom   46 type  1   force =     0.00922140    0.02689207    0.00597328
     atom   47 type  1   force =     0.03438806   -0.00744429   -0.03093418
     atom   48 type  1   force =    -0.04241074   -0.06280914   -0.05566381
     atom   49 type  1   force =    -0.08181239    0.03515442    0.01194761
     atom   50 type  1   force =    -0.03462098    0.06896774    0.02786329
     atom   51 type  1   force =    -0.05312013    0.01132662    0.02075824
     atom   52 type  1   force =     0.02131661   -0.00407463   -0.02377992
     atom   53 type  1   force =     0.00215362   -0.01301334   -0.01595136
     atom   54 type  1   force =    -0.06126566   -0.00916475    0.01040616
     atom   55 type  1   force =    -0.00552085    0.01265195    0.00461640
     atom   56 type  1   force =    -0.01060230   -0.04752883    0.00925556
     atom   57 type  1   force =     0.00021606   -0.02448272   -0.01745802
     atom   58 type  1   force =     0.02087674   -0.01844649   -0.02191069
     atom   59 type  1   force =    -0.00081761   -0.00763914    0.03003270
     atom   60 type  1   force =    -0.00603101   -0.00857292   -0.05538706
     atom   61 type  1   force =    -0.00762598    0.03419287   -0.01002334
     atom   62 type  1   force =     0.04467218    0.00112095   -0.02108095
     atom   63 type  1   force =    -0.00310556   -0.02072215    0.00795283
     atom   64 type  1   force =     0.03014531    0.03650571    0.00576041

     Total force =     0.399231     Total SCF correction =     0.000978


     Computing stress (Cartesian axis) and pressure

          total   stress  (Ry/bohr**3)                   (kbar)     P=      -32.05
  -0.00019419   0.00000291  -0.00006091          -28.57        0.43       -8.96
   0.00000291  -0.00022152   0.00001246            0.43      -32.59        1.83
  -0.00006091   0.00001246  -0.00023790           -8.96        1.83      -35.00

 
     init_run     :      0.86s CPU      4.54s WALL (       1 calls)
     electrons    :      2.70s CPU      2.83s WALL (       1 calls)
     forces       :      0.04s CPU      0.05s WALL (       1 calls)
     stress       :      0.18s CPU      0.18s WALL (       1 calls)

     Called by init_run:
     wfcinit      :      0.63s CPU      4.15s WALL (       1 calls)
                                        4.15s GPU  (       1 calls)
     potinit      :      0.06s CPU      0.13s WALL (       1 calls)
     hinit0       :      0.14s CPU      0.17s WALL (       1 calls)

     Called by electrons:
     c_bands      :      1.59s CPU      1.63s WALL (      21 calls)
     sum_band     :      0.55s CPU      0.59s WALL (      21 calls)
     v_of_rho     :      0.25s CPU      0.34s WALL (      21 calls)
     mix_rho      :      0.26s CPU      0.27s WALL (      21 calls)

     Called by c_bands:
     init_us_2    :      0.08s CPU      0.08s WALL (      43 calls)
     init_us_2:gp :      0.08s CPU      0.08s WALL (      43 calls)
     regterg      :      1.40s CPU      1.44s WALL (      21 calls)

     Called by *egterg:
     rdiaghg      :      0.44s CPU      1.17s WALL (      96 calls)
                                        1.15s GPU  (      96 calls)
     h_psi        :      1.37s CPU      4.19s WALL (      98 calls)
                                        4.19s GPU  (      98 calls)
     g_psi        :      0.00s CPU      0.00s WALL (      76 calls)
                                        0.00s GPU  (      76 calls)

     Called by h_psi:
     h_psi:calbec :      0.59s CPU      3.33s WALL (      98 calls)
                                        3.33s GPU  (      98 calls)
     vloc_psi     :      0.72s CPU      0.78s WALL (      98 calls)
                                        0.78s GPU  (      98 calls)
     add_vuspsi   :      0.04s CPU      0.06s WALL (      98 calls)
                                        0.06s GPU  (      98 calls)

     General routines
     calbec       :      0.60s CPU      3.34s WALL (     103 calls)
     fft          :      0.40s CPU      0.51s WALL (     175 calls)
                                        0.12s GPU  (     111 calls)
     ffts         :      0.08s CPU      0.09s WALL (      21 calls)
     fftw         :      0.78s CPU      0.99s WALL (    2213 calls)
                                        0.90s GPU  (    2213 calls)
 
     Parallel routines
 
     PWSCF        :      3.83s CPU      7.69s WALL

 
   This run was terminated on:  12:34:22  11May2023            

=------------------------------------------------------------------------------=
   JOB DONE.
=------------------------------------------------------------------------------=
