An instance of this daemon is already running

     Program PWSCF v.7.1 starts on 11May2023 at 12:26:26 

     This program is part of the open-source Quantum ESPRESSO suite
     for quantum simulation of materials; please cite
         "P. Giannozzi et al., J. Phys.:Condens. Matter 21 395502 (2009);
         "P. Giannozzi et al., J. Phys.:Condens. Matter 29 465901 (2017);
         "P. Giannozzi et al., J. Chem. Phys. 152 154105 (2020);
          URL http://www.quantum-espresso.org", 
     in publications or presentations arising from this work. More details at
     http://www.quantum-espresso.org/quote

     Parallel version (MPI & OpenMP), running on       4 processor cores
     Number of MPI processes:                 4
     Threads/MPI process:                     1

     MPI processes distributed on     1 nodes
     696771 MiB available memory on the printing compute node when the environment starts
 
     Reading input from pw-si-47.in
Warning: card &CELL ignored
Warning: card / ignored

     Current dimensions of program PWSCF are:
     Max number of different atomic species (ntypx) = 10
     Max number of k-points (npk) =  40000
     Max angular momentum in pseudopotentials (lmaxx) =  4

     IMPORTANT: XC functional enforced from input :
     Exchange-correlation= PBE
                           (   1   4   3   4   0   0   0)
     Any further DFT definition will be discarded
     Please, verify this is what you really want


     gamma-point specific algorithms are used
 
     K-points division:     npool     =       2
     R & G space division:  proc/nbgrp/npool/nimage =       2
     Subspace diagonalization in iterative solution of the eigenvalue problem:
     a serial algorithm will be used

     Message from routine divide_et_impera:
     suboptimal parallelization: some nodes have no k-points
 
     Parallelization info
     --------------------
     sticks:   dense  smooth     PW     G-vecs:    dense   smooth      PW
     Min        2082    2082    549               100854   100854   13684
     Max        2083    2083    552               100855   100855   13685
     Sum        4165    4165   1101               201709   201709   27369
 
     Using Slab Decomposition
 


     bravais-lattice index     =            0
     lattice parameter (alat)  =      20.8629  a.u.
     unit-cell volume          =    9080.7550 (a.u.)^3
     number of atoms/cell      =           64
     number of atomic types    =            1
     number of electrons       =       256.00
     number of Kohn-Sham states=          154
     kinetic-energy cutoff     =      30.0000  Ry
     charge density cutoff     =     120.0000  Ry
     scf convergence threshold =      1.0E-06
     mixing beta               =       0.5000
     number of iterations used =            8  plain     mixing
     Exchange-correlation= PBE
                           (   1   4   3   4   0   0   0)

     GPU acceleration is ACTIVE.
     GPU-aware MPI enabled

     Message from routine print_cuda_info:
     High GPU oversubscription detected. Are you sure this is what you want?

     celldm(1)=  20.862867  celldm(2)=   0.000000  celldm(3)=   0.000000
     celldm(4)=   0.000000  celldm(5)=   0.000000  celldm(6)=   0.000000

     crystal axes: (cart. coord. in units of alat)
               a(1) = (   1.000000   0.000000   0.000000 )  
               a(2) = (   0.000000   1.000000   0.000000 )  
               a(3) = (   0.000000   0.000000   1.000000 )  

     reciprocal axes: (cart. coord. in units 2 pi/alat)
               b(1) = (  1.000000  0.000000  0.000000 )  
               b(2) = (  0.000000  1.000000  0.000000 )  
               b(3) = (  0.000000  0.000000  1.000000 )  


     PseudoPot. # 1 for Si read from file:
     /home/ppiaggi/pseudos/Si_ONCV_PBE_sr.upf
     MD5 check sum: 8553c464762ac42b85b1eed164b4d029
     Pseudo is Norm-conserving, Zval =  4.0
     Generated using ONCVPSP code by D. R. Hamann
     Using radial grid of 1510 points,  4 beta functions with: 
                l(1) =   0
                l(2) =   0
                l(3) =   1
                l(4) =   1

     atomic species   valence    mass     pseudopotential
        Si             4.00    28.08500     Si( 1.00)

     No symmetry found



   Cartesian axes

     site n.     atom                  positions (alat units)
         1           Si  tau(   1) = (   0.5678840   0.7019790   0.5119570  )
         2           Si  tau(   2) = (   0.8287320   0.3251440   0.1880500  )
         3           Si  tau(   3) = (   0.7886790   0.8483770   0.4977900  )
         4           Si  tau(   4) = (   0.8521660   0.4685990   0.3266770  )
         5           Si  tau(   5) = (   0.2159870   0.1316670   0.5749640  )
         6           Si  tau(   6) = (   0.3317330   0.5016950   0.8534790  )
         7           Si  tau(   7) = (   0.8858720   0.2497260   0.4319710  )
         8           Si  tau(   8) = (   0.2832790   0.8290110   0.0200030  )
         9           Si  tau(   9) = (   0.5403780   0.8474690   0.9578930  )
        10           Si  tau(  10) = (   0.3062300   0.9239190   0.8316080  )
        11           Si  tau(  11) = (   0.9617510   0.1107300   0.6954970  )
        12           Si  tau(  12) = (   0.1134590   0.6806250   0.0063910  )
        13           Si  tau(  13) = (   0.7217610   0.4896950   0.8245130  )
        14           Si  tau(  14) = (   0.7833910   0.4003380   0.5348490  )
        15           Si  tau(  15) = (   0.6459820   0.1110800   0.8446460  )
        16           Si  tau(  16) = (   0.5248610   0.9594080   0.4174420  )
        17           Si  tau(  17) = (   0.4228150   0.9579860   0.1447110  )
        18           Si  tau(  18) = (   0.6466670   0.3181910   0.6988510  )
        19           Si  tau(  19) = (   0.5740790   0.8386660   0.7001250  )
        20           Si  tau(  20) = (   0.3922970   0.1496170   0.7553000  )
        21           Si  tau(  21) = (   0.3890370   0.1825110   0.4581860  )
        22           Si  tau(  22) = (   0.7673130   0.9568920   0.7627210  )
        23           Si  tau(  23) = (   0.4713630   0.8326520   0.2778790  )
        24           Si  tau(  24) = (   0.4778420   0.3615280   0.0207141  )
        25           Si  tau(  25) = (   0.3352360   0.3961120   0.3488480  )
        26           Si  tau(  26) = (   0.0221047   0.1914550   0.1431900  )
        27           Si  tau(  27) = (   0.0776771   0.0528404   0.8871920  )
        28           Si  tau(  28) = (   0.6367130   0.0474463   0.2054410  )
        29           Si  tau(  29) = (   0.6629930   0.5783080   0.1602330  )
        30           Si  tau(  30) = (   0.6166110   0.1987180   0.3347540  )
        31           Si  tau(  31) = (   0.3876840   0.4619110   0.6194230  )
        32           Si  tau(  32) = (   0.0895645   0.3182580   0.3382460  )
        33           Si  tau(  33) = (   0.4132090   0.9485000   0.6268790  )
        34           Si  tau(  34) = (   0.5027100   0.1362730   0.0587274  )
        35           Si  tau(  35) = (   0.9817190   0.8538620   0.9347680  )
        36           Si  tau(  36) = (   0.4515610   0.3511720   0.7735330  )
        37           Si  tau(  37) = (   0.4440480   0.6734040   0.0083269  )
        38           Si  tau(  38) = (   0.0407481   0.9519110   0.2937280  )
        39           Si  tau(  39) = (   0.3378520   0.7342680   0.7079140  )
        40           Si  tau(  40) = (   0.9845350   0.3831660   0.5633650  )
        41           Si  tau(  41) = (   0.0940979   0.9042570   0.4843370  )
        42           Si  tau(  42) = (   0.7878480   0.4683700   0.0211446  )
        43           Si  tau(  43) = (   0.1346580   0.9883000   0.0827457  )
        44           Si  tau(  44) = (   0.1239100   0.6696490   0.4436350  )
        45           Si  tau(  45) = (   0.1324010   0.5395820   0.8338340  )
        46           Si  tau(  46) = (   0.1421510   0.6526140   0.6568080  )
        47           Si  tau(  47) = (   0.5556480   0.6257700   0.8323480  )
        48           Si  tau(  48) = (   0.2080530   0.3653670   0.5329560  )
        49           Si  tau(  49) = (   0.7579810   0.1575690   0.0278370  )
        50           Si  tau(  50) = (   0.7103160   0.7316740   0.2955320  )
        51           Si  tau(  51) = (   0.9591920   0.5576330   0.7014600  )
        52           Si  tau(  52) = (   0.9272090   0.0383529   0.4860680  )
        53           Si  tau(  53) = (   0.3378540   0.1345520   0.2251900  )
        54           Si  tau(  54) = (   0.1433610   0.6722300   0.2235500  )
        55           Si  tau(  55) = (   0.5441260   0.4046160   0.2072490  )
        56           Si  tau(  56) = (   0.9351170   0.2210880   0.9135680  )
        57           Si  tau(  57) = (   0.5512330   0.5138150   0.4042120  )
        58           Si  tau(  58) = (   0.9345170   0.7680240   0.5965960  )
        59           Si  tau(  59) = (   0.7722640   0.8012760   0.1089130  )
        60           Si  tau(  60) = (   0.9181480   0.6739450   0.3773320  )
        61           Si  tau(  61) = (   0.8515860   0.9927090   0.1855210  )
        62           Si  tau(  62) = (   0.1031130   0.8848480   0.7250980  )
        63           Si  tau(  63) = (   0.9163500   0.6249720   0.0896405  )
        64           Si  tau(  64) = (   0.4125680   0.6125970   0.2215350  )

     number of k points=     1  Fermi-Dirac smearing, width (Ry)=  0.0100
                       cart. coord. in units 2pi/alat
        k(    1) = (   0.0000000   0.0000000   0.0000000), wk =   2.0000000

     Dense  grid:   100855 G-vectors     FFT dimensions: (  75,  75,  75)

     Estimated max dynamical RAM per process >     161.89 MB

     Estimated total dynamical RAM >     622.93 MB

     Initial potential from superposition of free atoms

     starting charge     255.9608, renormalised to     256.0000
     Starting wfcs are  256 randomized atomic wfcs

     total cpu time spent up to now is        4.7 secs

     Self-consistent Calculation

     iteration #  1     ecut=    30.00 Ry     beta= 0.50
     Davidson diagonalization with overlap
     ethr =  1.00E-02,  avg # of iterations =  3.0

     Threshold (ethr) on eigenvalues was too large:
     Diagonalizing with lowered threshold

     Davidson diagonalization with overlap
     ethr =  5.69E-04,  avg # of iterations =  4.0

     total cpu time spent up to now is        5.0 secs

     total energy              =    -500.26670982 Ry
     estimated scf accuracy    <       1.88525777 Ry

     iteration #  2     ecut=    30.00 Ry     beta= 0.50
     Davidson diagonalization with overlap
     ethr =  7.36E-04,  avg # of iterations =  4.0

     total cpu time spent up to now is        5.2 secs

     total energy              =    -499.81107560 Ry
     estimated scf accuracy    <       6.30201513 Ry

     iteration #  3     ecut=    30.00 Ry     beta= 0.50
     Davidson diagonalization with overlap
     ethr =  7.36E-04,  avg # of iterations =  4.0

     total cpu time spent up to now is        5.3 secs

     total energy              =    -500.41229396 Ry
     estimated scf accuracy    <       3.72950928 Ry

     iteration #  4     ecut=    30.00 Ry     beta= 0.50
     Davidson diagonalization with overlap
     ethr =  7.36E-04,  avg # of iterations =  2.0

     total cpu time spent up to now is        5.4 secs

     total energy              =    -500.70171439 Ry
     estimated scf accuracy    <       0.84289515 Ry

     iteration #  5     ecut=    30.00 Ry     beta= 0.50
     Davidson diagonalization with overlap
     ethr =  3.29E-04,  avg # of iterations =  2.0

     total cpu time spent up to now is        5.6 secs

     total energy              =    -500.76054592 Ry
     estimated scf accuracy    <       0.24752736 Ry

     iteration #  6     ecut=    30.00 Ry     beta= 0.50
     Davidson diagonalization with overlap
     ethr =  9.67E-05,  avg # of iterations =  3.0

     total cpu time spent up to now is        5.7 secs

     total energy              =    -500.78227834 Ry
     estimated scf accuracy    <       0.27116644 Ry

     iteration #  7     ecut=    30.00 Ry     beta= 0.50
     Davidson diagonalization with overlap
     ethr =  9.67E-05,  avg # of iterations =  2.0

     total cpu time spent up to now is        5.8 secs

     total energy              =    -500.80096588 Ry
     estimated scf accuracy    <       0.03413655 Ry

     iteration #  8     ecut=    30.00 Ry     beta= 0.50
     Davidson diagonalization with overlap
     ethr =  1.33E-05,  avg # of iterations = 11.0

     total cpu time spent up to now is        6.0 secs

     total energy              =    -500.80476367 Ry
     estimated scf accuracy    <       0.03094593 Ry

     iteration #  9     ecut=    30.00 Ry     beta= 0.50
     Davidson diagonalization with overlap
     ethr =  1.21E-05,  avg # of iterations =  2.0

     total cpu time spent up to now is        6.1 secs

     total energy              =    -500.80731585 Ry
     estimated scf accuracy    <       0.00556314 Ry

     iteration # 10     ecut=    30.00 Ry     beta= 0.50
     Davidson diagonalization with overlap
     ethr =  2.17E-06,  avg # of iterations =  9.0

     total cpu time spent up to now is        6.3 secs

     total energy              =    -500.80795573 Ry
     estimated scf accuracy    <       0.00132727 Ry

     iteration # 11     ecut=    30.00 Ry     beta= 0.50
     Davidson diagonalization with overlap
     ethr =  5.18E-07,  avg # of iterations =  3.0

     total cpu time spent up to now is        6.4 secs

     total energy              =    -500.80796073 Ry
     estimated scf accuracy    <       0.00268652 Ry

     iteration # 12     ecut=    30.00 Ry     beta= 0.50
     Davidson diagonalization with overlap
     ethr =  5.18E-07,  avg # of iterations =  2.0

     total cpu time spent up to now is        6.5 secs

     total energy              =    -500.80815734 Ry
     estimated scf accuracy    <       0.00047188 Ry

     iteration # 13     ecut=    30.00 Ry     beta= 0.50
     Davidson diagonalization with overlap
     ethr =  1.84E-07,  avg # of iterations =  2.0

     total cpu time spent up to now is        6.6 secs

     total energy              =    -500.80818801 Ry
     estimated scf accuracy    <       0.00031127 Ry

     iteration # 14     ecut=    30.00 Ry     beta= 0.50
     Davidson diagonalization with overlap
     ethr =  1.22E-07,  avg # of iterations =  2.0

     total cpu time spent up to now is        6.8 secs

     total energy              =    -500.80821443 Ry
     estimated scf accuracy    <       0.00006777 Ry

     iteration # 15     ecut=    30.00 Ry     beta= 0.50
     Davidson diagonalization with overlap
     ethr =  2.65E-08,  avg # of iterations =  2.0

     total cpu time spent up to now is        6.9 secs

     total energy              =    -500.80821539 Ry
     estimated scf accuracy    <       0.00007985 Ry

     iteration # 16     ecut=    30.00 Ry     beta= 0.50
     Davidson diagonalization with overlap
     ethr =  2.65E-08,  avg # of iterations =  2.0

     total cpu time spent up to now is        7.0 secs

     total energy              =    -500.80822221 Ry
     estimated scf accuracy    <       0.00003261 Ry

     iteration # 17     ecut=    30.00 Ry     beta= 0.50
     Davidson diagonalization with overlap
     ethr =  1.27E-08,  avg # of iterations =  2.0

     total cpu time spent up to now is        7.1 secs

     total energy              =    -500.80822418 Ry
     estimated scf accuracy    <       0.00000884 Ry

     iteration # 18     ecut=    30.00 Ry     beta= 0.50
     Davidson diagonalization with overlap
     ethr =  3.45E-09,  avg # of iterations =  2.0

     total cpu time spent up to now is        7.2 secs

     total energy              =    -500.80822504 Ry
     estimated scf accuracy    <       0.00000361 Ry

     iteration # 19     ecut=    30.00 Ry     beta= 0.50
     Davidson diagonalization with overlap
     ethr =  1.41E-09,  avg # of iterations =  2.0

     total cpu time spent up to now is        7.4 secs

     total energy              =    -500.80822530 Ry
     estimated scf accuracy    <       0.00000280 Ry

     iteration # 20     ecut=    30.00 Ry     beta= 0.50
     Davidson diagonalization with overlap
     ethr =  1.10E-09,  avg # of iterations =  2.0

     total cpu time spent up to now is        7.5 secs

     End of self-consistent calculation

          k = 0.0000 0.0000 0.0000 ( 12635 PWs)   bands (ev):

    -6.5935  -6.1041  -5.9317  -5.7051  -5.5298  -5.3162  -5.1200  -5.0456
    -4.7551  -4.6954  -4.5196  -4.2804  -4.1815  -4.0031  -3.9872  -3.8379
    -3.7678  -3.6391  -3.5071  -3.4213  -3.2605  -3.1000  -2.8648  -2.7638
    -2.5208  -2.3876  -2.3284  -2.2808  -2.1053  -1.9089  -1.8024  -1.6814
    -1.5872  -1.5142  -1.4396  -1.3422  -1.1721  -1.0518  -1.0128  -0.9144
    -0.8618  -0.7756  -0.6609  -0.5109  -0.4917  -0.4416  -0.2939  -0.1712
    -0.1618   0.0041   0.0855   0.1547   0.2768   0.3780   0.5475   0.6042
     0.6482   0.7309   0.9085   0.9337   1.0383   1.2133   1.3213   1.3669
     1.4790   1.5695   1.7292   1.8556   1.8875   1.9377   2.0048   2.2341
     2.3348   2.3791   2.4128   2.5138   2.5864   2.6964   2.7248   2.8494
     2.9306   3.0176   3.0533   3.1550   3.2508   3.3031   3.3560   3.4416
     3.4571   3.5444   3.5880   3.7150   3.8094   3.8760   3.9189   3.9510
     4.0271   4.1015   4.1301   4.1655   4.2755   4.3640   4.3788   4.4640
     4.5241   4.5547   4.5950   4.6677   4.7041   4.7596   4.8313   4.8491
     4.9525   5.0044   5.0744   5.1298   5.1879   5.2789   5.3196   5.3354
     5.4490   5.4796   5.5380   5.5922   5.6551   5.7121   5.7927   5.8192
     5.8981   5.9470   5.9896   6.0426   6.1329   6.1568   6.2396   6.2746
     6.3589   6.4117   6.4838   6.5332   6.6245   6.6723   6.7245   6.7535
     6.8685   6.9051   6.9776   7.0835   7.1270   7.1690   7.2104   7.3666
     7.4065   7.4799

     the Fermi energy is     5.8582 ev

!    total energy              =    -500.80822510 Ry
     estimated scf accuracy    <       0.00000070 Ry
     smearing contrib. (-TS)   =      -0.15534176 Ry
     internal energy E=F+TS    =    -500.65288334 Ry

     The total energy is F=E-TS. E is the sum of the following terms:
     one-electron contribution =      96.47906679 Ry
     hartree contribution      =      58.27394870 Ry
     xc contribution           =    -149.93708196 Ry
     ewald contribution        =    -505.46881687 Ry

     convergence has been achieved in  20 iterations

     Forces acting on atoms (cartesian axes, Ry/au):

     atom    1 type  1   force =     0.01032433    0.04450830    0.00322461
     atom    2 type  1   force =    -0.01818684   -0.07174363   -0.07213390
     atom    3 type  1   force =    -0.10137966    0.05286301   -0.05415740
     atom    4 type  1   force =     0.02312201    0.05830615    0.05878874
     atom    5 type  1   force =     0.00351562   -0.00356193    0.02770003
     atom    6 type  1   force =     0.05284599    0.03505617    0.03543166
     atom    7 type  1   force =    -0.00040023   -0.06710987   -0.03802618
     atom    8 type  1   force =     0.00330975   -0.00723682    0.01971769
     atom    9 type  1   force =     0.03053944    0.04473156   -0.01787734
     atom   10 type  1   force =    -0.00526012    0.01810561   -0.02377085
     atom   11 type  1   force =    -0.00074463   -0.01254285    0.01333202
     atom   12 type  1   force =    -0.01337145    0.00962346   -0.02026975
     atom   13 type  1   force =     0.01402507   -0.01502309   -0.02816435
     atom   14 type  1   force =    -0.09113815    0.02488702   -0.01407864
     atom   15 type  1   force =    -0.03522408    0.04034311    0.00406296
     atom   16 type  1   force =     0.01520317    0.06733049    0.08230764
     atom   17 type  1   force =    -0.03913475    0.03549944   -0.11251068
     atom   18 type  1   force =     0.04078336   -0.00445671    0.03419203
     atom   19 type  1   force =     0.05210757   -0.03358058    0.02348778
     atom   20 type  1   force =    -0.01232406   -0.06937040   -0.01241945
     atom   21 type  1   force =     0.02390253   -0.00566767   -0.05084125
     atom   22 type  1   force =     0.02504967   -0.02274656   -0.00521012
     atom   23 type  1   force =     0.02557719   -0.16459237    0.03377500
     atom   24 type  1   force =    -0.00912207   -0.03646090   -0.05948146
     atom   25 type  1   force =     0.01491163    0.00543554   -0.00008643
     atom   26 type  1   force =    -0.01375120   -0.00516555    0.00220959
     atom   27 type  1   force =     0.00337963    0.00424868   -0.02195463
     atom   28 type  1   force =     0.03498451   -0.05704715   -0.01937335
     atom   29 type  1   force =    -0.02596590   -0.02963625   -0.01690351
     atom   30 type  1   force =    -0.01707820    0.06742107    0.04106066
     atom   31 type  1   force =    -0.02323063    0.07328153   -0.07557617
     atom   32 type  1   force =    -0.00284629   -0.00564972   -0.00770319
     atom   33 type  1   force =    -0.01834075    0.02194083   -0.02722816
     atom   34 type  1   force =     0.01323358    0.04067588   -0.02673742
     atom   35 type  1   force =    -0.00321055   -0.00254398   -0.02199965
     atom   36 type  1   force =     0.02466728   -0.05416878    0.04677961
     atom   37 type  1   force =    -0.03807955   -0.05620016    0.02451808
     atom   38 type  1   force =    -0.03054011    0.00830048   -0.07648636
     atom   39 type  1   force =     0.00613210    0.01042356   -0.00241534
     atom   40 type  1   force =     0.08268843    0.02868568    0.03234785
     atom   41 type  1   force =     0.02899809   -0.01587242    0.06582834
     atom   42 type  1   force =     0.00773027   -0.01336569    0.02105153
     atom   43 type  1   force =     0.00554666    0.01669734    0.04947105
     atom   44 type  1   force =    -0.00815401    0.01615591    0.00267754
     atom   45 type  1   force =    -0.04410906    0.00428453    0.04039310
     atom   46 type  1   force =     0.05905339    0.04123052   -0.01620526
     atom   47 type  1   force =    -0.01348114    0.02455123   -0.02221869
     atom   48 type  1   force =    -0.01367865   -0.02874303   -0.00810934
     atom   49 type  1   force =     0.00974164   -0.00337739    0.01164439
     atom   50 type  1   force =    -0.01752567    0.01845066    0.05752565
     atom   51 type  1   force =    -0.06765602   -0.03255847   -0.00038564
     atom   52 type  1   force =    -0.03596092   -0.00455268    0.00135312
     atom   53 type  1   force =    -0.01325130    0.02341174    0.01286663
     atom   54 type  1   force =     0.00069125    0.01826172   -0.00826596
     atom   55 type  1   force =     0.02466681   -0.01914754    0.05917529
     atom   56 type  1   force =    -0.00007176   -0.00132236   -0.00259170
     atom   57 type  1   force =    -0.01686885   -0.01476884    0.01143540
     atom   58 type  1   force =     0.09918537   -0.04969393    0.06901710
     atom   59 type  1   force =     0.01169921    0.02437113   -0.03705459
     atom   60 type  1   force =    -0.00417296   -0.00639768   -0.02678016
     atom   61 type  1   force =    -0.01375810   -0.00176495   -0.00803716
     atom   62 type  1   force =    -0.00854176   -0.01147362    0.02511718
     atom   63 type  1   force =     0.00732322    0.03225823    0.01487858
     atom   64 type  1   force =     0.00162066    0.01620298    0.00968323

     Total force =     0.512514     Total SCF correction =     0.001485


     Computing stress (Cartesian axis) and pressure

          total   stress  (Ry/bohr**3)                   (kbar)     P=      -18.56
  -0.00026732  -0.00004343   0.00004599          -39.32       -6.39        6.77
  -0.00004343  -0.00010834  -0.00001770           -6.39      -15.94       -2.60
   0.00004599  -0.00001770  -0.00000291            6.77       -2.60       -0.43

 
     init_run     :      0.78s CPU      4.64s WALL (       1 calls)
     electrons    :      2.56s CPU      2.75s WALL (       1 calls)
     forces       :      0.04s CPU      0.04s WALL (       1 calls)
     stress       :      0.17s CPU      0.17s WALL (       1 calls)

     Called by init_run:
     wfcinit      :      0.56s CPU      4.26s WALL (       1 calls)
                                        4.26s GPU  (       1 calls)
     potinit      :      0.05s CPU      0.13s WALL (       1 calls)
     hinit0       :      0.14s CPU      0.17s WALL (       1 calls)

     Called by electrons:
     c_bands      :      1.49s CPU      1.58s WALL (      21 calls)
     sum_band     :      0.54s CPU      0.60s WALL (      21 calls)
     v_of_rho     :      0.23s CPU      0.32s WALL (      21 calls)
     mix_rho      :      0.23s CPU      0.25s WALL (      21 calls)

     Called by c_bands:
     init_us_2    :      0.08s CPU      0.08s WALL (      43 calls)
     init_us_2:gp :      0.08s CPU      0.08s WALL (      43 calls)
     regterg      :      1.31s CPU      1.39s WALL (      21 calls)

     Called by *egterg:
     rdiaghg      :      0.40s CPU      1.17s WALL (      87 calls)
                                        1.15s GPU  (      87 calls)
     h_psi        :      1.26s CPU      4.25s WALL (      89 calls)
                                        4.24s GPU  (      89 calls)
     g_psi        :      0.00s CPU      0.00s WALL (      67 calls)
                                        0.00s GPU  (      67 calls)

     Called by h_psi:
     h_psi:calbec :      0.52s CPU      3.40s WALL (      89 calls)
                                        3.40s GPU  (      89 calls)
     vloc_psi     :      0.69s CPU      0.78s WALL (      89 calls)
                                        0.78s GPU  (      89 calls)
     add_vuspsi   :      0.03s CPU      0.05s WALL (      89 calls)
                                        0.05s GPU  (      89 calls)

     General routines
     calbec       :      0.53s CPU      3.41s WALL (      94 calls)
     fft          :      0.38s CPU      0.50s WALL (     175 calls)
                                        0.12s GPU  (     111 calls)
     ffts         :      0.08s CPU      0.09s WALL (      21 calls)
     fftw         :      0.76s CPU      1.00s WALL (    2189 calls)
                                        0.90s GPU  (    2189 calls)
 
     Parallel routines
 
     PWSCF        :      3.60s CPU      7.70s WALL

 
   This run was terminated on:  12:26:33  11May2023            

=------------------------------------------------------------------------------=
   JOB DONE.
=------------------------------------------------------------------------------=
