An instance of this daemon is already running
An instance of this daemon is already running

     Program PWSCF v.7.1 starts on 11May2023 at 12:25:46 

     This program is part of the open-source Quantum ESPRESSO suite
     for quantum simulation of materials; please cite
         "P. Giannozzi et al., J. Phys.:Condens. Matter 21 395502 (2009);
         "P. Giannozzi et al., J. Phys.:Condens. Matter 29 465901 (2017);
         "P. Giannozzi et al., J. Chem. Phys. 152 154105 (2020);
          URL http://www.quantum-espresso.org", 
     in publications or presentations arising from this work. More details at
     http://www.quantum-espresso.org/quote

     Parallel version (MPI & OpenMP), running on       4 processor cores
     Number of MPI processes:                 4
     Threads/MPI process:                     1

     MPI processes distributed on     1 nodes
     696764 MiB available memory on the printing compute node when the environment starts
 
     Reading input from pw-si-43.in
Warning: card &CELL ignored
Warning: card / ignored

     Current dimensions of program PWSCF are:
     Max number of different atomic species (ntypx) = 10
     Max number of k-points (npk) =  40000
     Max angular momentum in pseudopotentials (lmaxx) =  4

     IMPORTANT: XC functional enforced from input :
     Exchange-correlation= PBE
                           (   1   4   3   4   0   0   0)
     Any further DFT definition will be discarded
     Please, verify this is what you really want


     gamma-point specific algorithms are used
 
     K-points division:     npool     =       2
     R & G space division:  proc/nbgrp/npool/nimage =       2
     Subspace diagonalization in iterative solution of the eigenvalue problem:
     a serial algorithm will be used

     Message from routine divide_et_impera:
     suboptimal parallelization: some nodes have no k-points
 
     Parallelization info
     --------------------
     sticks:   dense  smooth     PW     G-vecs:    dense   smooth      PW
     Min        2057    2057    541                99085    99085   13477
     Max        2060    2060    544                99088    99088   13484
     Sum        4117    4117   1085               198173   198173   26961
 
     Using Slab Decomposition
 


     bravais-lattice index     =            0
     lattice parameter (alat)  =      20.7404  a.u.
     unit-cell volume          =    8921.7508 (a.u.)^3
     number of atoms/cell      =           64
     number of atomic types    =            1
     number of electrons       =       256.00
     number of Kohn-Sham states=          154
     kinetic-energy cutoff     =      30.0000  Ry
     charge density cutoff     =     120.0000  Ry
     scf convergence threshold =      1.0E-06
     mixing beta               =       0.5000
     number of iterations used =            8  plain     mixing
     Exchange-correlation= PBE
                           (   1   4   3   4   0   0   0)

     GPU acceleration is ACTIVE.
     GPU-aware MPI enabled

     Message from routine print_cuda_info:
     High GPU oversubscription detected. Are you sure this is what you want?

     celldm(1)=  20.740379  celldm(2)=   0.000000  celldm(3)=   0.000000
     celldm(4)=   0.000000  celldm(5)=   0.000000  celldm(6)=   0.000000

     crystal axes: (cart. coord. in units of alat)
               a(1) = (   1.000000   0.000000   0.000000 )  
               a(2) = (   0.000000   1.000000   0.000000 )  
               a(3) = (   0.000000   0.000000   1.000000 )  

     reciprocal axes: (cart. coord. in units 2 pi/alat)
               b(1) = (  1.000000  0.000000  0.000000 )  
               b(2) = (  0.000000  1.000000  0.000000 )  
               b(3) = (  0.000000  0.000000  1.000000 )  


     PseudoPot. # 1 for Si read from file:
     /home/ppiaggi/pseudos/Si_ONCV_PBE_sr.upf
     MD5 check sum: 8553c464762ac42b85b1eed164b4d029
     Pseudo is Norm-conserving, Zval =  4.0
     Generated using ONCVPSP code by D. R. Hamann
     Using radial grid of 1510 points,  4 beta functions with: 
                l(1) =   0
                l(2) =   0
                l(3) =   1
                l(4) =   1

     atomic species   valence    mass     pseudopotential
        Si             4.00    28.08500     Si( 1.00)

     No symmetry found



   Cartesian axes

     site n.     atom                  positions (alat units)
         1           Si  tau(   1) = (   0.5738140   0.7185420   0.5315320  )
         2           Si  tau(   2) = (   0.7955640   0.2953710   0.1937720  )
         3           Si  tau(   3) = (   0.7510660   0.8551840   0.4665560  )
         4           Si  tau(   4) = (   0.8688280   0.4794120   0.3564180  )
         5           Si  tau(   5) = (   0.2270310   0.1502460   0.5832070  )
         6           Si  tau(   6) = (   0.3653220   0.5251530   0.8540310  )
         7           Si  tau(   7) = (   0.8581250   0.2255580   0.4608200  )
         8           Si  tau(   8) = (   0.2708720   0.8418620   0.0290519  )
         9           Si  tau(   9) = (   0.5279540   0.8617870   0.9138400  )
        10           Si  tau(  10) = (   0.2967380   0.9429360   0.8199260  )
        11           Si  tau(  11) = (   0.9711740   0.0996329   0.6757790  )
        12           Si  tau(  12) = (   0.1144870   0.6987450   0.0198676  )
        13           Si  tau(  13) = (   0.7578840   0.5262660   0.8053390  )
        14           Si  tau(  14) = (   0.7176050   0.4253820   0.5225580  )
        15           Si  tau(  15) = (   0.6519630   0.1450670   0.8342490  )
        16           Si  tau(  16) = (   0.4976330   0.9728460   0.4315990  )
        17           Si  tau(  17) = (   0.4127500   0.9513540   0.1273650  )
        18           Si  tau(  18) = (   0.6568160   0.3516850   0.7190420  )
        19           Si  tau(  19) = (   0.6289370   0.7983170   0.7354620  )
        20           Si  tau(  20) = (   0.3522450   0.1195190   0.7440910  )
        21           Si  tau(  21) = (   0.3746640   0.1931770   0.4063190  )
        22           Si  tau(  22) = (   0.7706010   0.9555520   0.7518910  )
        23           Si  tau(  23) = (   0.4862880   0.7731740   0.2731650  )
        24           Si  tau(  24) = (   0.4539970   0.3334260   0.9713370  )
        25           Si  tau(  25) = (   0.2929310   0.3605780   0.3272050  )
        26           Si  tau(  26) = (   0.0381780   0.2232530   0.1495760  )
        27           Si  tau(  27) = (   0.1054840   0.0486336   0.8611400  )
        28           Si  tau(  28) = (   0.6452720   0.0052923   0.2190700  )
        29           Si  tau(  29) = (   0.6799640   0.5869700   0.1415620  )
        30           Si  tau(  30) = (   0.6406610   0.2160960   0.3548650  )
        31           Si  tau(  31) = (   0.3893710   0.5033720   0.5590130  )
        32           Si  tau(  32) = (   0.0853379   0.3143050   0.3580460  )
        33           Si  tau(  33) = (   0.4462750   0.9242660   0.6361120  )
        34           Si  tau(  34) = (   0.5043670   0.1439700   0.0529016  )
        35           Si  tau(  35) = (   0.9527440   0.8772320   0.9519540  )
        36           Si  tau(  36) = (   0.4463370   0.3312960   0.7658830  )
        37           Si  tau(  37) = (   0.4466860   0.6608830   0.0192945  )
        38           Si  tau(  38) = (   0.0378463   0.0000888   0.2716280  )
        39           Si  tau(  39) = (   0.3627900   0.6959930   0.6832030  )
        40           Si  tau(  40) = (   0.9664130   0.3680820   0.6145250  )
        41           Si  tau(  41) = (   0.1070760   0.9124060   0.5104160  )
        42           Si  tau(  42) = (   0.8034010   0.4493980   0.0308594  )
        43           Si  tau(  43) = (   0.1881860   0.0575562   0.1085360  )
        44           Si  tau(  44) = (   0.0978460   0.6856620   0.4394800  )
        45           Si  tau(  45) = (   0.1403560   0.5503200   0.8698030  )
        46           Si  tau(  46) = (   0.1482020   0.6472170   0.6401040  )
        47           Si  tau(  47) = (   0.5511170   0.6399580   0.8286030  )
        48           Si  tau(  48) = (   0.1877040   0.3755060   0.5644650  )
        49           Si  tau(  49) = (   0.7720330   0.1530010   0.0477977  )
        50           Si  tau(  50) = (   0.6926600   0.7314080   0.2917870  )
        51           Si  tau(  51) = (   0.9547080   0.5191080   0.7587390  )
        52           Si  tau(  52) = (   0.9050130   0.0149070   0.4623490  )
        53           Si  tau(  53) = (   0.3097050   0.1344660   0.2324040  )
        54           Si  tau(  54) = (   0.1931070   0.6928680   0.2393380  )
        55           Si  tau(  55) = (   0.5274820   0.4128900   0.2059340  )
        56           Si  tau(  56) = (   0.9639100   0.2220620   0.9131260  )
        57           Si  tau(  57) = (   0.5705930   0.4988680   0.4190770  )
        58           Si  tau(  58) = (   0.9492470   0.7384710   0.5954410  )
        59           Si  tau(  59) = (   0.7659300   0.8118650   0.0418125  )
        60           Si  tau(  60) = (   0.8888350   0.6922830   0.3713920  )
        61           Si  tau(  61) = (   0.8584560   0.9561180   0.1744930  )
        62           Si  tau(  62) = (   0.0756890   0.8522290   0.7376930  )
        63           Si  tau(  63) = (   0.9440580   0.6173420   0.1278210  )
        64           Si  tau(  64) = (   0.4138990   0.5925010   0.2132310  )

     number of k points=     1  Fermi-Dirac smearing, width (Ry)=  0.0100
                       cart. coord. in units 2pi/alat
        k(    1) = (   0.0000000   0.0000000   0.0000000), wk =   2.0000000

     Dense  grid:    99087 G-vectors     FFT dimensions: (  75,  75,  75)

     Estimated max dynamical RAM per process >     159.37 MB

     Estimated total dynamical RAM >     613.29 MB

     Initial potential from superposition of free atoms

     starting charge     255.9608, renormalised to     256.0000
     Starting wfcs are  256 randomized atomic wfcs

     total cpu time spent up to now is        4.7 secs

     Self-consistent Calculation

     iteration #  1     ecut=    30.00 Ry     beta= 0.50
     Davidson diagonalization with overlap
     ethr =  1.00E-02,  avg # of iterations =  3.0

     Threshold (ethr) on eigenvalues was too large:
     Diagonalizing with lowered threshold

     Davidson diagonalization with overlap
     ethr =  5.52E-04,  avg # of iterations =  4.0

     total cpu time spent up to now is        5.0 secs

     total energy              =    -500.41964338 Ry
     estimated scf accuracy    <       1.78299793 Ry

     iteration #  2     ecut=    30.00 Ry     beta= 0.50
     Davidson diagonalization with overlap
     ethr =  6.96E-04,  avg # of iterations =  4.0

     total cpu time spent up to now is        5.2 secs

     total energy              =    -499.71238093 Ry
     estimated scf accuracy    <       9.30681690 Ry

     iteration #  3     ecut=    30.00 Ry     beta= 0.50
     Davidson diagonalization with overlap
     ethr =  6.96E-04,  avg # of iterations =  4.0

     total cpu time spent up to now is        5.3 secs

     total energy              =    -500.56969764 Ry
     estimated scf accuracy    <       3.34227321 Ry

     iteration #  4     ecut=    30.00 Ry     beta= 0.50
     Davidson diagonalization with overlap
     ethr =  6.96E-04,  avg # of iterations =  2.0

     total cpu time spent up to now is        5.4 secs

     total energy              =    -500.80994230 Ry
     estimated scf accuracy    <       0.67614998 Ry

     iteration #  5     ecut=    30.00 Ry     beta= 0.50
     Davidson diagonalization with overlap
     ethr =  2.64E-04,  avg # of iterations =  2.0

     total cpu time spent up to now is        5.5 secs

     total energy              =    -500.84593331 Ry
     estimated scf accuracy    <       0.49202576 Ry

     iteration #  6     ecut=    30.00 Ry     beta= 0.50
     Davidson diagonalization with overlap
     ethr =  1.92E-04,  avg # of iterations =  2.0

     total cpu time spent up to now is        5.6 secs

     total energy              =    -500.89127933 Ry
     estimated scf accuracy    <       0.15126767 Ry

     iteration #  7     ecut=    30.00 Ry     beta= 0.50
     Davidson diagonalization with overlap
     ethr =  5.91E-05,  avg # of iterations =  2.0

     total cpu time spent up to now is        5.8 secs

     total energy              =    -500.90093744 Ry
     estimated scf accuracy    <       0.05151325 Ry

     iteration #  8     ecut=    30.00 Ry     beta= 0.50
     Davidson diagonalization with overlap
     ethr =  2.01E-05,  avg # of iterations =  9.0

     total cpu time spent up to now is        5.9 secs

     total energy              =    -500.90700648 Ry
     estimated scf accuracy    <       0.02408583 Ry

     iteration #  9     ecut=    30.00 Ry     beta= 0.50
     Davidson diagonalization with overlap
     ethr =  9.41E-06,  avg # of iterations =  2.0

     total cpu time spent up to now is        6.0 secs

     total energy              =    -500.90877025 Ry
     estimated scf accuracy    <       0.00321266 Ry

     iteration # 10     ecut=    30.00 Ry     beta= 0.50
     Davidson diagonalization with overlap
     ethr =  1.25E-06,  avg # of iterations =  8.0

     total cpu time spent up to now is        6.2 secs

     total energy              =    -500.90907596 Ry
     estimated scf accuracy    <       0.00434017 Ry

     iteration # 11     ecut=    30.00 Ry     beta= 0.50
     Davidson diagonalization with overlap
     ethr =  1.25E-06,  avg # of iterations =  2.0

     total cpu time spent up to now is        6.3 secs

     total energy              =    -500.90942955 Ry
     estimated scf accuracy    <       0.00063271 Ry

     iteration # 12     ecut=    30.00 Ry     beta= 0.50
     Davidson diagonalization with overlap
     ethr =  2.47E-07,  avg # of iterations =  4.0

     total cpu time spent up to now is        6.5 secs

     total energy              =    -500.90946653 Ry
     estimated scf accuracy    <       0.00070871 Ry

     iteration # 13     ecut=    30.00 Ry     beta= 0.50
     Davidson diagonalization with overlap
     ethr =  2.47E-07,  avg # of iterations =  2.0

     total cpu time spent up to now is        6.6 secs

     total energy              =    -500.90952460 Ry
     estimated scf accuracy    <       0.00030844 Ry

     iteration # 14     ecut=    30.00 Ry     beta= 0.50
     Davidson diagonalization with overlap
     ethr =  1.20E-07,  avg # of iterations =  1.0

     total cpu time spent up to now is        6.7 secs

     total energy              =    -500.90954799 Ry
     estimated scf accuracy    <       0.00004361 Ry

     iteration # 15     ecut=    30.00 Ry     beta= 0.50
     Davidson diagonalization with overlap
     ethr =  1.70E-08,  avg # of iterations =  3.0

     total cpu time spent up to now is        6.8 secs

     total energy              =    -500.90955237 Ry
     estimated scf accuracy    <       0.00004277 Ry

     iteration # 16     ecut=    30.00 Ry     beta= 0.50
     Davidson diagonalization with overlap
     ethr =  1.67E-08,  avg # of iterations =  2.0

     total cpu time spent up to now is        6.9 secs

     total energy              =    -500.90955639 Ry
     estimated scf accuracy    <       0.00001037 Ry

     iteration # 17     ecut=    30.00 Ry     beta= 0.50
     Davidson diagonalization with overlap
     ethr =  4.05E-09,  avg # of iterations =  2.0

     total cpu time spent up to now is        7.0 secs

     total energy              =    -500.90955702 Ry
     estimated scf accuracy    <       0.00000422 Ry

     iteration # 18     ecut=    30.00 Ry     beta= 0.50
     Davidson diagonalization with overlap
     ethr =  1.65E-09,  avg # of iterations =  3.0

     total cpu time spent up to now is        7.2 secs

     total energy              =    -500.90955748 Ry
     estimated scf accuracy    <       0.00000497 Ry

     iteration # 19     ecut=    30.00 Ry     beta= 0.50
     Davidson diagonalization with overlap
     ethr =  1.65E-09,  avg # of iterations =  2.0

     total cpu time spent up to now is        7.3 secs

     End of self-consistent calculation

          k = 0.0000 0.0000 0.0000 ( 12419 PWs)   bands (ev):

    -6.3594  -5.7661  -5.5732  -5.4715  -5.1342  -4.9700  -4.8518  -4.7249
    -4.4672  -4.3331  -4.2401  -4.1486  -4.0099  -3.9606  -3.8717  -3.7411
    -3.5895  -3.4720  -3.3671  -3.1058  -2.9956  -2.8707  -2.6511  -2.4935
    -2.3827  -2.2201  -2.1031  -1.8971  -1.8513  -1.7280  -1.7005  -1.4611
    -1.3607  -1.3078  -1.2767  -1.1257  -1.0798  -0.8825  -0.8045  -0.7454
    -0.5940  -0.5619  -0.5096  -0.3867  -0.3573  -0.2789  -0.1641  -0.0892
     0.1380   0.1976   0.2714   0.3701   0.5392   0.6231   0.7095   0.8323
     0.9049   1.0520   1.0689   1.1424   1.2364   1.4103   1.4487   1.6190
     1.7552   1.8018   1.9055   1.9307   1.9569   2.0639   2.1428   2.3187
     2.3671   2.4708   2.5365   2.6400   2.7156   2.8037   2.9163   2.9838
     3.0618   3.1585   3.2509   3.2865   3.3341   3.4350   3.5060   3.5849
     3.6585   3.7180   3.7856   3.8860   3.9967   4.0419   4.1025   4.1357
     4.2008   4.2906   4.3623   4.3743   4.5050   4.5328   4.6369   4.7378
     4.7486   4.7661   4.8195   4.8804   4.9505   5.0047   5.0217   5.0804
     5.1679   5.1778   5.3028   5.3404   5.3930   5.4601   5.4858   5.5060
     5.6233   5.6855   5.7464   5.8038   5.9079   5.9457   6.0161   6.0633
     6.1426   6.1700   6.2419   6.3326   6.3720   6.4007   6.4281   6.5471
     6.6411   6.6972   6.7071   6.7638   6.8053   6.8893   6.9616   6.9648
     7.0234   7.0584   7.1786   7.2451   7.2769   7.4517   7.4573   7.5163
     7.6092   7.6772

     the Fermi energy is     6.0943 ev

!    total energy              =    -500.90955754 Ry
     estimated scf accuracy    <       0.00000041 Ry
     smearing contrib. (-TS)   =      -0.14810754 Ry
     internal energy E=F+TS    =    -500.76145000 Ry

     The total energy is F=E-TS. E is the sum of the following terms:
     one-electron contribution =     121.07247710 Ry
     hartree contribution      =      47.83822025 Ry
     xc contribution           =    -149.94939782 Ry
     ewald contribution        =    -519.72274952 Ry

     convergence has been achieved in  19 iterations

     Forces acting on atoms (cartesian axes, Ry/au):

     atom    1 type  1   force =    -0.00769882    0.00562820   -0.01313130
     atom    2 type  1   force =     0.02388987    0.04055094    0.03523166
     atom    3 type  1   force =    -0.00013875    0.00462563    0.01993756
     atom    4 type  1   force =     0.01756245   -0.02259073   -0.01180132
     atom    5 type  1   force =    -0.02947587    0.01187433   -0.05274977
     atom    6 type  1   force =    -0.03273404    0.00748610    0.01277743
     atom    7 type  1   force =     0.00316915    0.01794904    0.00393765
     atom    8 type  1   force =    -0.00852147   -0.01092419   -0.03507615
     atom    9 type  1   force =    -0.01939157   -0.00078135    0.04495702
     atom   10 type  1   force =    -0.02512846   -0.09397599    0.04760643
     atom   11 type  1   force =    -0.00993215   -0.00348593   -0.00124790
     atom   12 type  1   force =    -0.04000003    0.00925542    0.01459396
     atom   13 type  1   force =    -0.07201140   -0.02936837    0.05856931
     atom   14 type  1   force =     0.09857943   -0.06300614    0.03705050
     atom   15 type  1   force =     0.01522422   -0.00719469    0.02824001
     atom   16 type  1   force =     0.01888522   -0.02085766   -0.03252647
     atom   17 type  1   force =     0.06670180    0.01679452    0.04748441
     atom   18 type  1   force =     0.01906668   -0.01494291    0.00922560
     atom   19 type  1   force =     0.01170243    0.05989861   -0.08659121
     atom   20 type  1   force =     0.06445473    0.06621850   -0.00158376
     atom   21 type  1   force =     0.06835610   -0.04563149    0.12679667
     atom   22 type  1   force =     0.03739931    0.03897081    0.01226129
     atom   23 type  1   force =    -0.00531528    0.09621090    0.03191664
     atom   24 type  1   force =     0.00099501    0.00846034    0.05734414
     atom   25 type  1   force =    -0.00265374    0.07126858   -0.01718644
     atom   26 type  1   force =    -0.04255956   -0.00787436    0.01826512
     atom   27 type  1   force =    -0.04118616    0.02155964    0.03298561
     atom   28 type  1   force =    -0.01652140    0.01623271    0.01645363
     atom   29 type  1   force =    -0.03701915   -0.01847138   -0.02936149
     atom   30 type  1   force =     0.00303795   -0.00351071   -0.01807107
     atom   31 type  1   force =    -0.01917893   -0.01401796   -0.00944358
     atom   32 type  1   force =    -0.03182769    0.01312194   -0.00132700
     atom   33 type  1   force =     0.00535340   -0.03043332    0.01512224
     atom   34 type  1   force =     0.03028310   -0.03228823    0.00787954
     atom   35 type  1   force =     0.03488138    0.00285755   -0.03566638
     atom   36 type  1   force =    -0.01357767   -0.00225905   -0.04629080
     atom   37 type  1   force =    -0.00227955    0.02964892   -0.03611810
     atom   38 type  1   force =     0.01574521    0.02769553    0.01990458
     atom   39 type  1   force =     0.01790929   -0.01282714   -0.01308673
     atom   40 type  1   force =     0.00983519   -0.04150500   -0.03545955
     atom   41 type  1   force =    -0.02120588    0.01277557    0.00898148
     atom   42 type  1   force =     0.02599570    0.02935310   -0.01341253
     atom   43 type  1   force =    -0.10341396   -0.05220780   -0.09137761
     atom   44 type  1   force =     0.00261713    0.02406227   -0.04221296
     atom   45 type  1   force =     0.00664647    0.00146865   -0.03026649
     atom   46 type  1   force =     0.03458647   -0.03446813    0.06130924
     atom   47 type  1   force =     0.00910545   -0.04448740    0.02688043
     atom   48 type  1   force =     0.00432264   -0.01480724   -0.02010525
     atom   49 type  1   force =     0.00204957   -0.05552688   -0.05444696
     atom   50 type  1   force =    -0.01047578    0.00981273   -0.00608701
     atom   51 type  1   force =     0.04362797    0.01739855   -0.01512334
     atom   52 type  1   force =     0.02823304   -0.01232132    0.00834470
     atom   53 type  1   force =     0.07666889    0.01600173   -0.02267513
     atom   54 type  1   force =     0.03862352   -0.00585733   -0.02712662
     atom   55 type  1   force =     0.02488116   -0.00458312   -0.00709633
     atom   56 type  1   force =    -0.00651204   -0.01122592    0.01461657
     atom   57 type  1   force =    -0.10031694    0.07003460   -0.03742074
     atom   58 type  1   force =    -0.05095808    0.00793536    0.00551101
     atom   59 type  1   force =    -0.02554315   -0.03212776    0.01003448
     atom   60 type  1   force =     0.03073201   -0.01596518   -0.01454065
     atom   61 type  1   force =    -0.04089150    0.02201355   -0.02497227
     atom   62 type  1   force =     0.01422535    0.01173683    0.00699157
     atom   63 type  1   force =    -0.02501772   -0.00536849    0.01293035
     atom   64 type  1   force =    -0.06386050   -0.02400799    0.02944207

     Total force =     0.492848     Total SCF correction =     0.001178


     Computing stress (Cartesian axis) and pressure

          total   stress  (Ry/bohr**3)                   (kbar)     P=      -22.21
  -0.00012556   0.00005469   0.00006610          -18.47        8.05        9.72
   0.00005469  -0.00019960   0.00003147            8.05      -29.36        4.63
   0.00006610   0.00003147  -0.00012780            9.72        4.63      -18.80

 
     init_run     :      0.79s CPU      4.63s WALL (       1 calls)
     electrons    :      2.39s CPU      2.57s WALL (       1 calls)
     forces       :      0.04s CPU      0.04s WALL (       1 calls)
     stress       :      0.17s CPU      0.17s WALL (       1 calls)

     Called by init_run:
     wfcinit      :      0.57s CPU      4.25s WALL (       1 calls)
                                        4.25s GPU  (       1 calls)
     potinit      :      0.06s CPU      0.14s WALL (       1 calls)
     hinit0       :      0.14s CPU      0.17s WALL (       1 calls)

     Called by electrons:
     c_bands      :      1.40s CPU      1.48s WALL (      20 calls)
     sum_band     :      0.50s CPU      0.55s WALL (      20 calls)
     v_of_rho     :      0.23s CPU      0.32s WALL (      20 calls)
     mix_rho      :      0.22s CPU      0.24s WALL (      20 calls)

     Called by c_bands:
     init_us_2    :      0.07s CPU      0.08s WALL (      41 calls)
     init_us_2:gp :      0.07s CPU      0.08s WALL (      41 calls)
     regterg      :      1.23s CPU      1.30s WALL (      20 calls)

     Called by *egterg:
     rdiaghg      :      0.38s CPU      1.13s WALL (      82 calls)
                                        1.12s GPU  (      82 calls)
     h_psi        :      1.22s CPU      4.19s WALL (      84 calls)
                                        4.19s GPU  (      84 calls)
     g_psi        :      0.00s CPU      0.00s WALL (      63 calls)
                                        0.00s GPU  (      63 calls)

     Called by h_psi:
     h_psi:calbec :      0.52s CPU      3.39s WALL (      84 calls)
                                        3.39s GPU  (      84 calls)
     vloc_psi     :      0.66s CPU      0.74s WALL (      84 calls)
                                        0.74s GPU  (      84 calls)
     add_vuspsi   :      0.03s CPU      0.05s WALL (      84 calls)
                                        0.05s GPU  (      84 calls)

     General routines
     calbec       :      0.52s CPU      3.40s WALL (      89 calls)
     fft          :      0.36s CPU      0.49s WALL (     167 calls)
                                        0.13s GPU  (     106 calls)
     ffts         :      0.07s CPU      0.08s WALL (      20 calls)
     fftw         :      0.71s CPU      0.93s WALL (    2086 calls)
                                        0.84s GPU  (    2086 calls)
 
     Parallel routines
 
     PWSCF        :      3.43s CPU      7.50s WALL

 
   This run was terminated on:  12:25:53  11May2023            

=------------------------------------------------------------------------------=
   JOB DONE.
=------------------------------------------------------------------------------=
