An instance of this daemon is already running
An instance of this daemon is already running

     Program PWSCF v.7.1 starts on 11May2023 at 12:34:25 

     This program is part of the open-source Quantum ESPRESSO suite
     for quantum simulation of materials; please cite
         "P. Giannozzi et al., J. Phys.:Condens. Matter 21 395502 (2009);
         "P. Giannozzi et al., J. Phys.:Condens. Matter 29 465901 (2017);
         "P. Giannozzi et al., J. Chem. Phys. 152 154105 (2020);
          URL http://www.quantum-espresso.org", 
     in publications or presentations arising from this work. More details at
     http://www.quantum-espresso.org/quote

     Parallel version (MPI & OpenMP), running on       4 processor cores
     Number of MPI processes:                 4
     Threads/MPI process:                     1

     MPI processes distributed on     1 nodes
     696756 MiB available memory on the printing compute node when the environment starts
 
     Reading input from pw-si-94.in
Warning: card &CELL ignored
Warning: card / ignored

     Current dimensions of program PWSCF are:
     Max number of different atomic species (ntypx) = 10
     Max number of k-points (npk) =  40000
     Max angular momentum in pseudopotentials (lmaxx) =  4

     IMPORTANT: XC functional enforced from input :
     Exchange-correlation= PBE
                           (   1   4   3   4   0   0   0)
     Any further DFT definition will be discarded
     Please, verify this is what you really want


     gamma-point specific algorithms are used
 
     K-points division:     npool     =       2
     R & G space division:  proc/nbgrp/npool/nimage =       2
     Subspace diagonalization in iterative solution of the eigenvalue problem:
     a serial algorithm will be used

     Message from routine divide_et_impera:
     suboptimal parallelization: some nodes have no k-points
 
     Parallelization info
     --------------------
     sticks:   dense  smooth     PW     G-vecs:    dense   smooth      PW
     Min        2186    2186    576               108338   108338   14639
     Max        2187    2187    577               108341   108341   14640
     Sum        4373    4373   1153               216679   216679   29279
 
     Using Slab Decomposition
 


     bravais-lattice index     =            0
     lattice parameter (alat)  =      21.3546  a.u.
     unit-cell volume          =    9738.0487 (a.u.)^3
     number of atoms/cell      =           64
     number of atomic types    =            1
     number of electrons       =       256.00
     number of Kohn-Sham states=          154
     kinetic-energy cutoff     =      30.0000  Ry
     charge density cutoff     =     120.0000  Ry
     scf convergence threshold =      1.0E-06
     mixing beta               =       0.5000
     number of iterations used =            8  plain     mixing
     Exchange-correlation= PBE
                           (   1   4   3   4   0   0   0)

     GPU acceleration is ACTIVE.
     GPU-aware MPI enabled

     Message from routine print_cuda_info:
     High GPU oversubscription detected. Are you sure this is what you want?

     celldm(1)=  21.354561  celldm(2)=   0.000000  celldm(3)=   0.000000
     celldm(4)=   0.000000  celldm(5)=   0.000000  celldm(6)=   0.000000

     crystal axes: (cart. coord. in units of alat)
               a(1) = (   1.000000   0.000000   0.000000 )  
               a(2) = (   0.000000   1.000000   0.000000 )  
               a(3) = (   0.000000   0.000000   1.000000 )  

     reciprocal axes: (cart. coord. in units 2 pi/alat)
               b(1) = (  1.000000  0.000000  0.000000 )  
               b(2) = (  0.000000  1.000000  0.000000 )  
               b(3) = (  0.000000  0.000000  1.000000 )  


     PseudoPot. # 1 for Si read from file:
     /home/ppiaggi/pseudos/Si_ONCV_PBE_sr.upf
     MD5 check sum: 8553c464762ac42b85b1eed164b4d029
     Pseudo is Norm-conserving, Zval =  4.0
     Generated using ONCVPSP code by D. R. Hamann
     Using radial grid of 1510 points,  4 beta functions with: 
                l(1) =   0
                l(2) =   0
                l(3) =   1
                l(4) =   1

     atomic species   valence    mass     pseudopotential
        Si             4.00    28.08500     Si( 1.00)

     No symmetry found



   Cartesian axes

     site n.     atom                  positions (alat units)
         1           Si  tau(   1) = (   0.9372470   0.4189030   0.6349820  )
         2           Si  tau(   2) = (   0.7663110   0.5438750   0.1176370  )
         3           Si  tau(   3) = (   0.7415650   0.9000870   0.3876250  )
         4           Si  tau(   4) = (   0.7177270   0.4684740   0.3492510  )
         5           Si  tau(   5) = (   0.8997990   0.1834200   0.5341700  )
         6           Si  tau(   6) = (   0.2103110   0.4601980   0.8648900  )
         7           Si  tau(   7) = (   0.9338810   0.2045170   0.0730955  )
         8           Si  tau(   8) = (   0.2603330   0.8480410   0.9877240  )
         9           Si  tau(   9) = (   0.5910160   0.8663460   0.2538310  )
        10           Si  tau(  10) = (   0.3084740   0.0491652   0.0289775  )
        11           Si  tau(  11) = (   0.9916930   0.1171070   0.8403420  )
        12           Si  tau(  12) = (   0.0800848   0.6603720   0.9911660  )
        13           Si  tau(  13) = (   0.5515500   0.3391060   0.6762620  )
        14           Si  tau(  14) = (   0.9349910   0.2120140   0.3310410  )
        15           Si  tau(  15) = (   0.6339830   0.2256340   0.9403370  )
        16           Si  tau(  16) = (   0.7332120   0.4405410   0.5526780  )
        17           Si  tau(  17) = (   0.4598870   0.1809910   0.1067610  )
        18           Si  tau(  18) = (   0.7974210   0.2712210   0.8047860  )
        19           Si  tau(  19) = (   0.6566940   0.8096390   0.5784930  )
        20           Si  tau(  20) = (   0.2609460   0.1506920   0.8187210  )
        21           Si  tau(  21) = (   0.4542520   0.1133380   0.7160520  )
        22           Si  tau(  22) = (   0.8418420   0.6191170   0.6002680  )
        23           Si  tau(  23) = (   0.4121740   0.9007060   0.5300640  )
        24           Si  tau(  24) = (   0.3021390   0.4017940   0.0951439  )
        25           Si  tau(  25) = (   0.1299480   0.6079560   0.1979020  )
        26           Si  tau(  26) = (   0.2367190   0.2038370   0.1467730  )
        27           Si  tau(  27) = (   0.9480100   0.9187090   0.9524430  )
        28           Si  tau(  28) = (   0.6594590   0.1181080   0.2632840  )
        29           Si  tau(  29) = (   0.4478050   0.7499670   0.0966305  )
        30           Si  tau(  30) = (   0.7384010   0.2598080   0.4067280  )
        31           Si  tau(  31) = (   0.2939910   0.3293100   0.5894830  )
        32           Si  tau(  32) = (   0.3328730   0.2672010   0.3223780  )
        33           Si  tau(  33) = (   0.1315870   0.7925900   0.6005770  )
        34           Si  tau(  34) = (   0.4949460   0.3352400   0.0068015  )
        35           Si  tau(  35) = (   0.9231930   0.7678490   0.0825126  )
        36           Si  tau(  36) = (   0.3951320   0.3322060   0.8189200  )
        37           Si  tau(  37) = (   0.3055000   0.6283900   0.9419730  )
        38           Si  tau(  38) = (   0.9446100   0.8361400   0.2966940  )
        39           Si  tau(  39) = (   0.5262010   0.9164560   0.7286980  )
        40           Si  tau(  40) = (   0.1353140   0.4539460   0.3769320  )
        41           Si  tau(  41) = (   0.2582620   0.9486150   0.3715210  )
        42           Si  tau(  42) = (   0.8225290   0.3855220   0.9729650  )
        43           Si  tau(  43) = (   0.1636590   0.8230840   0.1875470  )
        44           Si  tau(  44) = (   0.2780990   0.6405680   0.3983710  )
        45           Si  tau(  45) = (   0.1378910   0.4574850   0.6597420  )
        46           Si  tau(  46) = (   0.3513090   0.7245510   0.7159620  )
        47           Si  tau(  47) = (   0.4520400   0.5483360   0.8029610  )
        48           Si  tau(  48) = (   0.1603800   0.2585480   0.4486950  )
        49           Si  tau(  49) = (   0.7730110   0.2738460   0.1740950  )
        50           Si  tau(  50) = (   0.6456650   0.6783960   0.3648250  )
        51           Si  tau(  51) = (   0.9211910   0.4719830   0.4036390  )
        52           Si  tau(  52) = (   0.0747270   0.0516492   0.4895390  )
        53           Si  tau(  53) = (   0.3866520   0.4523040   0.4233560  )
        54           Si  tau(  54) = (   0.0996393   0.3431720   0.1520140  )
        55           Si  tau(  55) = (   0.5421360   0.3157110   0.2762430  )
        56           Si  tau(  56) = (   0.1082720   0.2999300   0.9184820  )
        57           Si  tau(  57) = (   0.3620170   0.5801630   0.2037850  )
        58           Si  tau(  58) = (   0.0050272   0.6500000   0.7441200  )
        59           Si  tau(  59) = (   0.7015210   0.7012880   0.9692670  )
        60           Si  tau(  60) = (   0.9951920   0.6876610   0.4687300  )
        61           Si  tau(  61) = (   0.8704040   0.9939090   0.1470630  )
        62           Si  tau(  62) = (   0.1300330   0.9597120   0.8705060  )
        63           Si  tau(  63) = (   0.6480370   0.5174710   0.8768120  )
        64           Si  tau(  64) = (   0.4233080   0.7920060   0.3346250  )

     number of k points=     1  Fermi-Dirac smearing, width (Ry)=  0.0100
                       cart. coord. in units 2pi/alat
        k(    1) = (   0.0000000   0.0000000   0.0000000), wk =   2.0000000

     Dense  grid:   108340 G-vectors     FFT dimensions: (  75,  75,  75)

     Estimated max dynamical RAM per process >     172.37 MB

     Estimated total dynamical RAM >     663.01 MB

     Initial potential from superposition of free atoms

     starting charge     255.9608, renormalised to     256.0000
     Starting wfcs are  256 randomized atomic wfcs

     total cpu time spent up to now is        4.7 secs

     Self-consistent Calculation

     iteration #  1     ecut=    30.00 Ry     beta= 0.50
     Davidson diagonalization with overlap
     ethr =  1.00E-02,  avg # of iterations =  2.0

     Threshold (ethr) on eigenvalues was too large:
     Diagonalizing with lowered threshold

     Davidson diagonalization with overlap
     ethr =  8.23E-04,  avg # of iterations =  4.0

     total cpu time spent up to now is        5.0 secs

     total energy              =    -499.51217504 Ry
     estimated scf accuracy    <       2.65678490 Ry

     iteration #  2     ecut=    30.00 Ry     beta= 0.50
     Davidson diagonalization with overlap
     ethr =  1.04E-03,  avg # of iterations =  9.0

     total cpu time spent up to now is        5.2 secs

     total energy              =    -497.14312430 Ry
     estimated scf accuracy    <      41.28877893 Ry

     iteration #  3     ecut=    30.00 Ry     beta= 0.50
     Davidson diagonalization with overlap
     ethr =  1.04E-03,  avg # of iterations =  5.0

     total cpu time spent up to now is        5.4 secs

     total energy              =    -500.25839664 Ry
     estimated scf accuracy    <       2.28818284 Ry

     iteration #  4     ecut=    30.00 Ry     beta= 0.50
     Davidson diagonalization with overlap
     ethr =  8.94E-04,  avg # of iterations =  2.0

     total cpu time spent up to now is        5.5 secs

     total energy              =    -500.39290104 Ry
     estimated scf accuracy    <       2.15703743 Ry

     iteration #  5     ecut=    30.00 Ry     beta= 0.50
     Davidson diagonalization with overlap
     ethr =  8.43E-04,  avg # of iterations =  2.0

     total cpu time spent up to now is        5.6 secs

     total energy              =    -500.53174557 Ry
     estimated scf accuracy    <       0.62462506 Ry

     iteration #  6     ecut=    30.00 Ry     beta= 0.50
     Davidson diagonalization with overlap
     ethr =  2.44E-04,  avg # of iterations =  2.0

     total cpu time spent up to now is        5.7 secs

     total energy              =    -500.58446141 Ry
     estimated scf accuracy    <       0.18979008 Ry

     iteration #  7     ecut=    30.00 Ry     beta= 0.50
     Davidson diagonalization with overlap
     ethr =  7.41E-05,  avg # of iterations =  3.0

     total cpu time spent up to now is        5.8 secs

     total energy              =    -500.59640420 Ry
     estimated scf accuracy    <       0.14382440 Ry

     iteration #  8     ecut=    30.00 Ry     beta= 0.50
     Davidson diagonalization with overlap
     ethr =  5.62E-05,  avg # of iterations =  2.0

     total cpu time spent up to now is        6.0 secs

     total energy              =    -500.60863882 Ry
     estimated scf accuracy    <       0.02690322 Ry

     iteration #  9     ecut=    30.00 Ry     beta= 0.50
     Davidson diagonalization with overlap
     ethr =  1.05E-05,  avg # of iterations = 17.0

     total cpu time spent up to now is        6.2 secs

     total energy              =    -500.61131688 Ry
     estimated scf accuracy    <       0.01118959 Ry

     iteration # 10     ecut=    30.00 Ry     beta= 0.50
     Davidson diagonalization with overlap
     ethr =  4.37E-06,  avg # of iterations =  2.0

     total cpu time spent up to now is        6.3 secs

     total energy              =    -500.61217802 Ry
     estimated scf accuracy    <       0.00897080 Ry

     iteration # 11     ecut=    30.00 Ry     beta= 0.50
     Davidson diagonalization with overlap
     ethr =  3.50E-06,  avg # of iterations =  1.0

     total cpu time spent up to now is        6.4 secs

     total energy              =    -500.61265383 Ry
     estimated scf accuracy    <       0.00139406 Ry

     iteration # 12     ecut=    30.00 Ry     beta= 0.50
     Davidson diagonalization with overlap
     ethr =  5.45E-07,  avg # of iterations =  4.0

     total cpu time spent up to now is        6.6 secs

     total energy              =    -500.61282010 Ry
     estimated scf accuracy    <       0.00185627 Ry

     iteration # 13     ecut=    30.00 Ry     beta= 0.50
     Davidson diagonalization with overlap
     ethr =  5.45E-07,  avg # of iterations =  2.0

     total cpu time spent up to now is        6.7 secs

     total energy              =    -500.61291954 Ry
     estimated scf accuracy    <       0.00087047 Ry

     iteration # 14     ecut=    30.00 Ry     beta= 0.50
     Davidson diagonalization with overlap
     ethr =  3.40E-07,  avg # of iterations =  2.0

     total cpu time spent up to now is        6.8 secs

     total energy              =    -500.61298957 Ry
     estimated scf accuracy    <       0.00017186 Ry

     iteration # 15     ecut=    30.00 Ry     beta= 0.50
     Davidson diagonalization with overlap
     ethr =  6.71E-08,  avg # of iterations =  2.0

     total cpu time spent up to now is        6.9 secs

     total energy              =    -500.61300882 Ry
     estimated scf accuracy    <       0.00006649 Ry

     iteration # 16     ecut=    30.00 Ry     beta= 0.50
     Davidson diagonalization with overlap
     ethr =  2.60E-08,  avg # of iterations =  2.0

     total cpu time spent up to now is        7.0 secs

     total energy              =    -500.61300943 Ry
     estimated scf accuracy    <       0.00004644 Ry

     iteration # 17     ecut=    30.00 Ry     beta= 0.50
     Davidson diagonalization with overlap
     ethr =  1.81E-08,  avg # of iterations =  3.0

     total cpu time spent up to now is        7.2 secs

     total energy              =    -500.61301167 Ry
     estimated scf accuracy    <       0.00008497 Ry

     iteration # 18     ecut=    30.00 Ry     beta= 0.50
     Davidson diagonalization with overlap
     ethr =  1.81E-08,  avg # of iterations =  2.0

     total cpu time spent up to now is        7.3 secs

     total energy              =    -500.61301664 Ry
     estimated scf accuracy    <       0.00000787 Ry

     iteration # 19     ecut=    30.00 Ry     beta= 0.50
     Davidson diagonalization with overlap
     ethr =  3.08E-09,  avg # of iterations =  3.0

     total cpu time spent up to now is        7.4 secs

     total energy              =    -500.61301745 Ry
     estimated scf accuracy    <       0.00000471 Ry

     iteration # 20     ecut=    30.00 Ry     beta= 0.50
     Davidson diagonalization with overlap
     ethr =  1.84E-09,  avg # of iterations =  2.0

     total cpu time spent up to now is        7.5 secs

     End of self-consistent calculation

          k = 0.0000 0.0000 0.0000 ( 13541 PWs)   bands (ev):

    -7.2998  -6.8252  -6.3869  -6.1878  -6.1193  -5.8766  -5.6872  -5.4917
    -5.4285  -5.3753  -5.0474  -4.8645  -4.8053  -4.7077  -4.5083  -4.2797
    -4.2319  -4.0965  -4.0036  -3.9152  -3.7807  -3.5555  -3.5360  -3.2743
    -3.1342  -3.0564  -2.8393  -2.8076  -2.6510  -2.5151  -2.4148  -2.3051
    -2.2062  -2.0081  -1.9382  -1.8383  -1.7461  -1.6509  -1.6358  -1.5783
    -1.5363  -1.4456  -1.2985  -1.1670  -1.1298  -0.9701  -0.9044  -0.7464
    -0.6542  -0.5953  -0.5075  -0.3357  -0.2599  -0.2008  -0.0999   0.0981
     0.1567   0.2452   0.3176   0.4441   0.5140   0.7073   0.8311   1.0063
     1.0682   1.1386   1.2526   1.2944   1.3982   1.4474   1.5476   1.6359
     1.6990   1.8121   1.8413   1.8923   1.9791   2.0703   2.1556   2.2193
     2.2589   2.2723   2.4369   2.5628   2.5840   2.6426   2.7463   2.8208
     2.9197   2.9446   2.9660   3.0669   3.1528   3.2012   3.2179   3.2744
     3.3618   3.4097   3.4292   3.5305   3.5727   3.6333   3.6919   3.7585
     3.8250   3.8458   3.9543   4.0138   4.0591   4.1155   4.1621   4.1816
     4.2798   4.3952   4.4618   4.5135   4.5638   4.6149   4.6706   4.7118
     4.7647   4.8373   4.8928   4.9297   5.0045   5.0912   5.1280   5.1450
     5.1560   5.2179   5.2409   5.3501   5.3962   5.4625   5.5279   5.6324
     5.6728   5.7370   5.7624   5.8299   5.9228   5.9728   6.0541   6.1283
     6.1734   6.1822   6.2713   6.3172   6.4053   6.4547   6.5049   6.6084
     6.6895   6.7230

     the Fermi energy is     5.1703 ev

!    total energy              =    -500.61301765 Ry
     estimated scf accuracy    <       0.00000038 Ry
     smearing contrib. (-TS)   =      -0.16891552 Ry
     internal energy E=F+TS    =    -500.44410213 Ry

     The total energy is F=E-TS. E is the sum of the following terms:
     one-electron contribution =      20.81979614 Ry
     hartree contribution      =      89.72157429 Ry
     xc contribution           =    -148.77775567 Ry
     ewald contribution        =    -462.20771688 Ry

     convergence has been achieved in  20 iterations

     Forces acting on atoms (cartesian axes, Ry/au):

     atom    1 type  1   force =    -0.03259128   -0.03361119   -0.00944462
     atom    2 type  1   force =     0.00280252   -0.01245163   -0.02037327
     atom    3 type  1   force =     0.02540340   -0.01059875    0.02549287
     atom    4 type  1   force =    -0.01747168    0.02237133   -0.06266162
     atom    5 type  1   force =    -0.00065232    0.01490829    0.02632423
     atom    6 type  1   force =     0.02763534    0.01632154   -0.01156372
     atom    7 type  1   force =     0.04296182   -0.00137017   -0.02293243
     atom    8 type  1   force =     0.01428076   -0.03144311    0.03866049
     atom    9 type  1   force =     0.00955275    0.01253530   -0.03631029
     atom   10 type  1   force =    -0.00043359    0.01749723   -0.02699015
     atom   11 type  1   force =    -0.03123132    0.02940570    0.02222883
     atom   12 type  1   force =     0.02858927   -0.02548704   -0.02516208
     atom   13 type  1   force =     0.01953839   -0.01335495   -0.00515175
     atom   14 type  1   force =     0.03946750    0.01850884   -0.03685237
     atom   15 type  1   force =     0.09437862   -0.04746033   -0.02112047
     atom   16 type  1   force =    -0.01053395   -0.02590160    0.03519580
     atom   17 type  1   force =    -0.00221085   -0.11543175    0.07477062
     atom   18 type  1   force =     0.00814221    0.00861559   -0.03045293
     atom   19 type  1   force =     0.00688469   -0.01968287   -0.04440203
     atom   20 type  1   force =     0.01384965    0.00135277    0.02794717
     atom   21 type  1   force =    -0.01137656    0.03178785   -0.00809260
     atom   22 type  1   force =    -0.01079477    0.03147015    0.01254582
     atom   23 type  1   force =     0.00185037   -0.02072253    0.01161710
     atom   24 type  1   force =     0.01286927    0.03546632   -0.01255979
     atom   25 type  1   force =     0.03289328   -0.00096975    0.01434808
     atom   26 type  1   force =     0.02342799   -0.03805537   -0.00262277
     atom   27 type  1   force =    -0.03067175    0.05147021   -0.01078337
     atom   28 type  1   force =    -0.00872403   -0.03296179   -0.02485115
     atom   29 type  1   force =     0.00090638   -0.00810216   -0.00491223
     atom   30 type  1   force =    -0.00231516   -0.01091949    0.01680213
     atom   31 type  1   force =     0.02840170    0.01037834    0.02339388
     atom   32 type  1   force =    -0.00193846    0.01000813   -0.00685495
     atom   33 type  1   force =     0.00749982   -0.00747667    0.01922098
     atom   34 type  1   force =    -0.04924514    0.17580791   -0.03327767
     atom   35 type  1   force =    -0.03066651   -0.03195920    0.05256260
     atom   36 type  1   force =    -0.02506942    0.00478200    0.01060738
     atom   37 type  1   force =    -0.00138219    0.03792468    0.00090086
     atom   38 type  1   force =    -0.00188321    0.00689258   -0.01806454
     atom   39 type  1   force =    -0.01889301   -0.03489900   -0.03353484
     atom   40 type  1   force =    -0.00422556    0.00959110   -0.02642576
     atom   41 type  1   force =    -0.01024346    0.00561968    0.00961914
     atom   42 type  1   force =    -0.01353373   -0.00125060    0.03613925
     atom   43 type  1   force =    -0.01922945    0.00561078    0.01265843
     atom   44 type  1   force =    -0.01405746   -0.01427942   -0.00654973
     atom   45 type  1   force =     0.00414350    0.03199408    0.02250529
     atom   46 type  1   force =     0.00198509    0.02719575    0.00548768
     atom   47 type  1   force =    -0.00028459    0.00128467   -0.00237924
     atom   48 type  1   force =    -0.02595891   -0.05409624   -0.01375694
     atom   49 type  1   force =    -0.04254782    0.02840288   -0.00729402
     atom   50 type  1   force =    -0.02594290    0.03433499    0.03581279
     atom   51 type  1   force =     0.02729883    0.00443508    0.02352763
     atom   52 type  1   force =     0.01080713    0.00716413   -0.02523461
     atom   53 type  1   force =    -0.00000003   -0.00858742   -0.00644230
     atom   54 type  1   force =    -0.07644575    0.01757982    0.00629802
     atom   55 type  1   force =     0.00193653    0.00689955    0.00738235
     atom   56 type  1   force =    -0.01714411   -0.07376106    0.02498265
     atom   57 type  1   force =    -0.01067082   -0.01257861   -0.00263028
     atom   58 type  1   force =     0.03063244   -0.02067099   -0.01428015
     atom   59 type  1   force =    -0.00220898   -0.01892888    0.02060121
     atom   60 type  1   force =     0.00332319    0.00564569   -0.02704673
     atom   61 type  1   force =     0.00630179    0.01465725    0.01406190
     atom   62 type  1   force =     0.02833834    0.01038672   -0.03539923
     atom   63 type  1   force =     0.01465521   -0.00579650    0.01692097
     atom   64 type  1   force =    -0.02017897   -0.01549786    0.02779446

     Total force =     0.403468     Total SCF correction =     0.001031


     Computing stress (Cartesian axis) and pressure

          total   stress  (Ry/bohr**3)                   (kbar)     P=      -31.00
  -0.00018638  -0.00000188  -0.00004301          -27.42       -0.28       -6.33
  -0.00000188  -0.00019206  -0.00002560           -0.28      -28.25       -3.77
  -0.00004301  -0.00002560  -0.00025385           -6.33       -3.77      -37.34

 
     init_run     :      0.97s CPU      4.65s WALL (       1 calls)
     electrons    :      2.65s CPU      2.81s WALL (       1 calls)
     forces       :      0.04s CPU      0.04s WALL (       1 calls)
     stress       :      0.18s CPU      0.18s WALL (       1 calls)

     Called by init_run:
     wfcinit      :      0.75s CPU      4.26s WALL (       1 calls)
                                        4.26s GPU  (       1 calls)
     potinit      :      0.05s CPU      0.14s WALL (       1 calls)
     hinit0       :      0.14s CPU      0.17s WALL (       1 calls)

     Called by electrons:
     c_bands      :      1.56s CPU      1.61s WALL (      21 calls)
     sum_band     :      0.53s CPU      0.59s WALL (      21 calls)
     v_of_rho     :      0.25s CPU      0.34s WALL (      21 calls)
     mix_rho      :      0.25s CPU      0.27s WALL (      21 calls)

     Called by c_bands:
     init_us_2    :      0.07s CPU      0.08s WALL (      43 calls)
     init_us_2:gp :      0.07s CPU      0.08s WALL (      43 calls)
     regterg      :      1.38s CPU      1.42s WALL (      21 calls)

     Called by *egterg:
     rdiaghg      :      0.43s CPU      1.16s WALL (      93 calls)
                                        1.15s GPU  (      93 calls)
     h_psi        :      1.47s CPU      4.28s WALL (      95 calls)
                                        4.27s GPU  (      95 calls)
     g_psi        :      0.00s CPU      0.00s WALL (      73 calls)
                                        0.00s GPU  (      73 calls)

     Called by h_psi:
     h_psi:calbec :      0.71s CPU      3.43s WALL (      95 calls)
                                        3.43s GPU  (      95 calls)
     vloc_psi     :      0.70s CPU      0.78s WALL (      95 calls)
                                        0.77s GPU  (      95 calls)
     add_vuspsi   :      0.04s CPU      0.05s WALL (      95 calls)
                                        0.05s GPU  (      95 calls)

     General routines
     calbec       :      0.71s CPU      3.44s WALL (     100 calls)
     fft          :      0.39s CPU      0.52s WALL (     175 calls)
                                        0.13s GPU  (     111 calls)
     ffts         :      0.07s CPU      0.09s WALL (      21 calls)
     fftw         :      0.76s CPU      0.98s WALL (    2207 calls)
                                        0.89s GPU  (    2207 calls)
 
     Parallel routines
 
     PWSCF        :      3.89s CPU      7.77s WALL

 
   This run was terminated on:  12:34:32  11May2023            

=------------------------------------------------------------------------------=
   JOB DONE.
=------------------------------------------------------------------------------=
