An instance of this daemon is already running
An instance of this daemon is already running

     Program PWSCF v.7.1 starts on 11May2023 at 12:25:56 

     This program is part of the open-source Quantum ESPRESSO suite
     for quantum simulation of materials; please cite
         "P. Giannozzi et al., J. Phys.:Condens. Matter 21 395502 (2009);
         "P. Giannozzi et al., J. Phys.:Condens. Matter 29 465901 (2017);
         "P. Giannozzi et al., J. Chem. Phys. 152 154105 (2020);
          URL http://www.quantum-espresso.org", 
     in publications or presentations arising from this work. More details at
     http://www.quantum-espresso.org/quote

     Parallel version (MPI & OpenMP), running on       4 processor cores
     Number of MPI processes:                 4
     Threads/MPI process:                     1

     MPI processes distributed on     1 nodes
     696755 MiB available memory on the printing compute node when the environment starts
 
     Reading input from pw-si-44.in
Warning: card &CELL ignored
Warning: card / ignored

     Current dimensions of program PWSCF are:
     Max number of different atomic species (ntypx) = 10
     Max number of k-points (npk) =  40000
     Max angular momentum in pseudopotentials (lmaxx) =  4

     IMPORTANT: XC functional enforced from input :
     Exchange-correlation= PBE
                           (   1   4   3   4   0   0   0)
     Any further DFT definition will be discarded
     Please, verify this is what you really want


     gamma-point specific algorithms are used
 
     K-points division:     npool     =       2
     R & G space division:  proc/nbgrp/npool/nimage =       2
     Subspace diagonalization in iterative solution of the eigenvalue problem:
     a serial algorithm will be used

     Message from routine divide_et_impera:
     suboptimal parallelization: some nodes have no k-points
 
     Parallelization info
     --------------------
     sticks:   dense  smooth     PW     G-vecs:    dense   smooth      PW
     Min        2058    2058    546                99442    99442   13539
     Max        2059    2059    547                99451    99451   13542
     Sum        4117    4117   1093               198893   198893   27081
 
     Using Slab Decomposition
 


     bravais-lattice index     =            0
     lattice parameter (alat)  =      20.7732  a.u.
     unit-cell volume          =    8964.1332 (a.u.)^3
     number of atoms/cell      =           64
     number of atomic types    =            1
     number of electrons       =       256.00
     number of Kohn-Sham states=          154
     kinetic-energy cutoff     =      30.0000  Ry
     charge density cutoff     =     120.0000  Ry
     scf convergence threshold =      1.0E-06
     mixing beta               =       0.5000
     number of iterations used =            8  plain     mixing
     Exchange-correlation= PBE
                           (   1   4   3   4   0   0   0)

     GPU acceleration is ACTIVE.
     GPU-aware MPI enabled

     Message from routine print_cuda_info:
     High GPU oversubscription detected. Are you sure this is what you want?

     celldm(1)=  20.773170  celldm(2)=   0.000000  celldm(3)=   0.000000
     celldm(4)=   0.000000  celldm(5)=   0.000000  celldm(6)=   0.000000

     crystal axes: (cart. coord. in units of alat)
               a(1) = (   1.000000   0.000000   0.000000 )  
               a(2) = (   0.000000   1.000000   0.000000 )  
               a(3) = (   0.000000   0.000000   1.000000 )  

     reciprocal axes: (cart. coord. in units 2 pi/alat)
               b(1) = (  1.000000  0.000000  0.000000 )  
               b(2) = (  0.000000  1.000000  0.000000 )  
               b(3) = (  0.000000  0.000000  1.000000 )  


     PseudoPot. # 1 for Si read from file:
     /home/ppiaggi/pseudos/Si_ONCV_PBE_sr.upf
     MD5 check sum: 8553c464762ac42b85b1eed164b4d029
     Pseudo is Norm-conserving, Zval =  4.0
     Generated using ONCVPSP code by D. R. Hamann
     Using radial grid of 1510 points,  4 beta functions with: 
                l(1) =   0
                l(2) =   0
                l(3) =   1
                l(4) =   1

     atomic species   valence    mass     pseudopotential
        Si             4.00    28.08500     Si( 1.00)

     No symmetry found



   Cartesian axes

     site n.     atom                  positions (alat units)
         1           Si  tau(   1) = (   0.5709290   0.7143820   0.5288170  )
         2           Si  tau(   2) = (   0.8024880   0.3026710   0.1839060  )
         3           Si  tau(   3) = (   0.7643310   0.8536130   0.4763160  )
         4           Si  tau(   4) = (   0.8658030   0.4811970   0.3492770  )
         5           Si  tau(   5) = (   0.2275650   0.1457810   0.5787940  )
         6           Si  tau(   6) = (   0.3550610   0.5149630   0.8510220  )
         7           Si  tau(   7) = (   0.8653520   0.2302550   0.4552410  )
         8           Si  tau(   8) = (   0.2786180   0.8452710   0.0306722  )
         9           Si  tau(   9) = (   0.5302860   0.8548000   0.9218080  )
        10           Si  tau(  10) = (   0.2988380   0.9407160   0.8240140  )
        11           Si  tau(  11) = (   0.9691240   0.1022740   0.6797130  )
        12           Si  tau(  12) = (   0.1112190   0.6863710   0.0126995  )
        13           Si  tau(  13) = (   0.7489300   0.5167320   0.8069280  )
        14           Si  tau(  14) = (   0.7344000   0.4188320   0.5293760  )
        15           Si  tau(  15) = (   0.6499380   0.1344440   0.8340560  )
        16           Si  tau(  16) = (   0.5022850   0.9671440   0.4296200  )
        17           Si  tau(  17) = (   0.4095150   0.9592070   0.1297490  )
        18           Si  tau(  18) = (   0.6515550   0.3459100   0.7121600  )
        19           Si  tau(  19) = (   0.6114440   0.8044400   0.7305480  )
        20           Si  tau(  20) = (   0.3615550   0.1294350   0.7486460  )
        21           Si  tau(  21) = (   0.3704660   0.1994290   0.4193480  )
        22           Si  tau(  22) = (   0.7673850   0.9544010   0.7559850  )
        23           Si  tau(  23) = (   0.4787830   0.7843820   0.2712910  )
        24           Si  tau(  24) = (   0.4610860   0.3412090   0.9798340  )
        25           Si  tau(  25) = (   0.3048120   0.3631200   0.3370320  )
        26           Si  tau(  26) = (   0.0366649   0.2137320   0.1484720  )
        27           Si  tau(  27) = (   0.1005710   0.0501070   0.8664090  )
        28           Si  tau(  28) = (   0.6424420   0.0164229   0.2155030  )
        29           Si  tau(  29) = (   0.6800290   0.5812060   0.1445670  )
        30           Si  tau(  30) = (   0.6355870   0.2087240   0.3495570  )
        31           Si  tau(  31) = (   0.3884860   0.4913560   0.5754160  )
        32           Si  tau(  32) = (   0.0892020   0.3151500   0.3529580  )
        33           Si  tau(  33) = (   0.4395530   0.9306360   0.6314710  )
        34           Si  tau(  34) = (   0.4995830   0.1360570   0.0574492  )
        35           Si  tau(  35) = (   0.9596640   0.8721760   0.9501380  )
        36           Si  tau(  36) = (   0.4489400   0.3400440   0.7714120  )
        37           Si  tau(  37) = (   0.4476820   0.6647470   0.0178979  )
        38           Si  tau(  38) = (   0.0383175   0.9871690   0.2764530  )
        39           Si  tau(  39) = (   0.3530730   0.7060350   0.6898610  )
        40           Si  tau(  40) = (   0.9679370   0.3748500   0.6046420  )
        41           Si  tau(  41) = (   0.1009040   0.9094090   0.5016990  )
        42           Si  tau(  42) = (   0.7938810   0.4538640   0.0374848  )
        43           Si  tau(  43) = (   0.1783810   0.0397375   0.1033340  )
        44           Si  tau(  44) = (   0.1021820   0.6806000   0.4349890  )
        45           Si  tau(  45) = (   0.1349740   0.5491430   0.8613820  )
        46           Si  tau(  46) = (   0.1468900   0.6492380   0.6428910  )
        47           Si  tau(  47) = (   0.5526450   0.6418170   0.8289700  )
        48           Si  tau(  48) = (   0.1951680   0.3741130   0.5573630  )
        49           Si  tau(  49) = (   0.7690450   0.1591910   0.0487154  )
        50           Si  tau(  50) = (   0.6990290   0.7279670   0.2901180  )
        51           Si  tau(  51) = (   0.9611060   0.5260610   0.7441760  )
        52           Si  tau(  52) = (   0.9109180   0.0214672   0.4685060  )
        53           Si  tau(  53) = (   0.3167720   0.1274160   0.2267060  )
        54           Si  tau(  54) = (   0.1769480   0.6886090   0.2445050  )
        55           Si  tau(  55) = (   0.5319010   0.4131550   0.2045560  )
        56           Si  tau(  56) = (   0.9559080   0.2246660   0.9113790  )
        57           Si  tau(  57) = (   0.5673370   0.5018910   0.4130240  )
        58           Si  tau(  58) = (   0.9444790   0.7469800   0.5934410  )
        59           Si  tau(  59) = (   0.7711420   0.8180840   0.0625612  )
        60           Si  tau(  60) = (   0.9017080   0.6853860   0.3740190  )
        61           Si  tau(  61) = (   0.8574950   0.9590670   0.1775850  )
        62           Si  tau(  62) = (   0.0832097   0.8590210   0.7346160  )
        63           Si  tau(  63) = (   0.9419360   0.6214240   0.1135430  )
        64           Si  tau(  64) = (   0.4187690   0.6012220   0.2132680  )

     number of k points=     1  Fermi-Dirac smearing, width (Ry)=  0.0100
                       cart. coord. in units 2pi/alat
        k(    1) = (   0.0000000   0.0000000   0.0000000), wk =   2.0000000

     Dense  grid:    99447 G-vectors     FFT dimensions: (  75,  75,  75)

     Estimated max dynamical RAM per process >     160.01 MB

     Estimated total dynamical RAM >     615.77 MB

     Initial potential from superposition of free atoms

     starting charge     255.9608, renormalised to     256.0000
     Starting wfcs are  256 randomized atomic wfcs

     total cpu time spent up to now is        4.7 secs

     Self-consistent Calculation

     iteration #  1     ecut=    30.00 Ry     beta= 0.50
     Davidson diagonalization with overlap
     ethr =  1.00E-02,  avg # of iterations =  3.0

     Threshold (ethr) on eigenvalues was too large:
     Diagonalizing with lowered threshold

     Davidson diagonalization with overlap
     ethr =  5.36E-04,  avg # of iterations =  4.0

     total cpu time spent up to now is        5.0 secs

     total energy              =    -500.51011894 Ry
     estimated scf accuracy    <       1.73190110 Ry

     iteration #  2     ecut=    30.00 Ry     beta= 0.50
     Davidson diagonalization with overlap
     ethr =  6.77E-04,  avg # of iterations =  4.0

     total cpu time spent up to now is        5.2 secs

     total energy              =    -499.84105925 Ry
     estimated scf accuracy    <       8.41877514 Ry

     iteration #  3     ecut=    30.00 Ry     beta= 0.50
     Davidson diagonalization with overlap
     ethr =  6.77E-04,  avg # of iterations =  4.0

     total cpu time spent up to now is        5.3 secs

     total energy              =    -500.63897314 Ry
     estimated scf accuracy    <       3.42037989 Ry

     iteration #  4     ecut=    30.00 Ry     beta= 0.50
     Davidson diagonalization with overlap
     ethr =  6.77E-04,  avg # of iterations =  2.0

     total cpu time spent up to now is        5.4 secs

     total energy              =    -500.87572949 Ry
     estimated scf accuracy    <       0.65457858 Ry

     iteration #  5     ecut=    30.00 Ry     beta= 0.50
     Davidson diagonalization with overlap
     ethr =  2.56E-04,  avg # of iterations =  2.0

     total cpu time spent up to now is        5.6 secs

     total energy              =    -500.91728196 Ry
     estimated scf accuracy    <       0.39065241 Ry

     iteration #  6     ecut=    30.00 Ry     beta= 0.50
     Davidson diagonalization with overlap
     ethr =  1.53E-04,  avg # of iterations =  2.0

     total cpu time spent up to now is        5.7 secs

     total energy              =    -500.95479435 Ry
     estimated scf accuracy    <       0.17130386 Ry

     iteration #  7     ecut=    30.00 Ry     beta= 0.50
     Davidson diagonalization with overlap
     ethr =  6.69E-05,  avg # of iterations =  1.0

     total cpu time spent up to now is        5.8 secs

     total energy              =    -500.96509984 Ry
     estimated scf accuracy    <       0.04514242 Ry

     iteration #  8     ecut=    30.00 Ry     beta= 0.50
     Davidson diagonalization with overlap
     ethr =  1.76E-05,  avg # of iterations = 16.0

     total cpu time spent up to now is        6.0 secs

     total energy              =    -500.97074463 Ry
     estimated scf accuracy    <       0.02447035 Ry

     iteration #  9     ecut=    30.00 Ry     beta= 0.50
     Davidson diagonalization with overlap
     ethr =  9.56E-06,  avg # of iterations =  2.0

     total cpu time spent up to now is        6.1 secs

     total energy              =    -500.97257111 Ry
     estimated scf accuracy    <       0.00313481 Ry

     iteration # 10     ecut=    30.00 Ry     beta= 0.50
     Davidson diagonalization with overlap
     ethr =  1.22E-06,  avg # of iterations = 11.0

     total cpu time spent up to now is        6.3 secs

     total energy              =    -500.97289158 Ry
     estimated scf accuracy    <       0.00349914 Ry

     iteration # 11     ecut=    30.00 Ry     beta= 0.50
     Davidson diagonalization with overlap
     ethr =  1.22E-06,  avg # of iterations =  2.0

     total cpu time spent up to now is        6.4 secs

     total energy              =    -500.97317990 Ry
     estimated scf accuracy    <       0.00066035 Ry

     iteration # 12     ecut=    30.00 Ry     beta= 0.50
     Davidson diagonalization with overlap
     ethr =  2.58E-07,  avg # of iterations =  3.0

     total cpu time spent up to now is        6.5 secs

     total energy              =    -500.97321536 Ry
     estimated scf accuracy    <       0.00062213 Ry

     iteration # 13     ecut=    30.00 Ry     beta= 0.50
     Davidson diagonalization with overlap
     ethr =  2.43E-07,  avg # of iterations =  2.0

     total cpu time spent up to now is        6.7 secs

     total energy              =    -500.97326706 Ry
     estimated scf accuracy    <       0.00032750 Ry

     iteration # 14     ecut=    30.00 Ry     beta= 0.50
     Davidson diagonalization with overlap
     ethr =  1.28E-07,  avg # of iterations =  1.0

     total cpu time spent up to now is        6.8 secs

     total energy              =    -500.97329241 Ry
     estimated scf accuracy    <       0.00004516 Ry

     iteration # 15     ecut=    30.00 Ry     beta= 0.50
     Davidson diagonalization with overlap
     ethr =  1.76E-08,  avg # of iterations =  3.0

     total cpu time spent up to now is        6.9 secs

     total energy              =    -500.97329703 Ry
     estimated scf accuracy    <       0.00003393 Ry

     iteration # 16     ecut=    30.00 Ry     beta= 0.50
     Davidson diagonalization with overlap
     ethr =  1.33E-08,  avg # of iterations =  2.0

     total cpu time spent up to now is        7.0 secs

     total energy              =    -500.97329970 Ry
     estimated scf accuracy    <       0.00000580 Ry

     iteration # 17     ecut=    30.00 Ry     beta= 0.50
     Davidson diagonalization with overlap
     ethr =  2.26E-09,  avg # of iterations =  4.0

     total cpu time spent up to now is        7.2 secs

     total energy              =    -500.97329924 Ry
     estimated scf accuracy    <       0.00002580 Ry

     iteration # 18     ecut=    30.00 Ry     beta= 0.50
     Davidson diagonalization with overlap
     ethr =  2.26E-09,  avg # of iterations =  3.0

     total cpu time spent up to now is        7.3 secs

     total energy              =    -500.97330088 Ry
     estimated scf accuracy    <       0.00000240 Ry

     iteration # 19     ecut=    30.00 Ry     beta= 0.50
     Davidson diagonalization with overlap
     ethr =  9.37E-10,  avg # of iterations =  2.0

     total cpu time spent up to now is        7.4 secs

     End of self-consistent calculation

          k = 0.0000 0.0000 0.0000 ( 12419 PWs)   bands (ev):

    -6.3991  -5.8660  -5.6219  -5.4485  -5.2508  -4.9745  -4.9123  -4.6238
    -4.5703  -4.4957  -4.3266  -4.2796  -4.1927  -3.8672  -3.7945  -3.7149
    -3.6183  -3.4984  -3.4399  -3.1231  -3.1045  -2.9902  -2.7162  -2.5215
    -2.3359  -2.2925  -2.0956  -1.9151  -1.8441  -1.7793  -1.7555  -1.5524
    -1.4336  -1.3744  -1.2753  -1.2013  -1.0445  -1.0131  -0.8915  -0.7920
    -0.6887  -0.6394  -0.5202  -0.4169  -0.3817  -0.3739  -0.2076  -0.1293
     0.0939   0.1444   0.1977   0.2444   0.4761   0.5908   0.6188   0.6865
     0.7910   0.9762   1.0519   1.1292   1.2185   1.2734   1.4447   1.5178
     1.7287   1.7722   1.8164   1.9399   2.0151   2.0366   2.1227   2.1558
     2.3433   2.5048   2.5681   2.5709   2.6884   2.7224   2.8693   3.0032
     3.0166   3.1203   3.2588   3.2737   3.3573   3.4018   3.4531   3.5025
     3.5947   3.6766   3.7507   3.8656   3.8895   3.9439   4.0609   4.0921
     4.1872   4.2156   4.2947   4.3554   4.4363   4.4575   4.5768   4.6144
     4.6671   4.7435   4.7889   4.8086   4.8701   4.9185   4.9438   5.0119
     5.1216   5.1340   5.1925   5.2466   5.2970   5.3516   5.4408   5.4613
     5.5933   5.6818   5.6960   5.7339   5.8443   5.9334   5.9759   6.0398
     6.0894   6.1327   6.1831   6.2728   6.2823   6.2929   6.3954   6.4941
     6.5538   6.6293   6.6573   6.7066   6.7281   6.8328   6.8781   6.9748
     6.9813   7.0726   7.1206   7.1861   7.2212   7.3170   7.4065   7.4301
     7.5629   7.7477

     the Fermi energy is     6.0458 ev

!    total energy              =    -500.97330038 Ry
     estimated scf accuracy    <       0.00000096 Ry
     smearing contrib. (-TS)   =      -0.15279424 Ry
     internal energy E=F+TS    =    -500.82050614 Ry

     The total energy is F=E-TS. E is the sum of the following terms:
     one-electron contribution =     116.08010683 Ry
     hartree contribution      =      49.84801396 Ry
     xc contribution           =    -149.92760085 Ry
     ewald contribution        =    -516.82102607 Ry

     convergence has been achieved in  19 iterations

     Forces acting on atoms (cartesian axes, Ry/au):

     atom    1 type  1   force =    -0.00663023    0.01581528   -0.01581857
     atom    2 type  1   force =     0.02144070    0.03099600    0.07210664
     atom    3 type  1   force =    -0.00664410   -0.00586650    0.01267957
     atom    4 type  1   force =     0.00826425   -0.03582253   -0.01576698
     atom    5 type  1   force =    -0.01225598    0.00422031   -0.01029882
     atom    6 type  1   force =    -0.01548914    0.04419554    0.02882925
     atom    7 type  1   force =    -0.00174544    0.02076837    0.00105433
     atom    8 type  1   force =    -0.04786836   -0.05991062   -0.05243686
     atom    9 type  1   force =    -0.01544819    0.01288756    0.04255467
     atom   10 type  1   force =    -0.02122221   -0.03918751    0.02378218
     atom   11 type  1   force =    -0.01048335   -0.00681131    0.00218365
     atom   12 type  1   force =     0.00701446    0.06376565    0.02101932
     atom   13 type  1   force =    -0.00929541   -0.02687417    0.05039721
     atom   14 type  1   force =     0.02683692   -0.01301515   -0.03198751
     atom   15 type  1   force =     0.00961009    0.01019942    0.02179010
     atom   16 type  1   force =     0.01750842   -0.02348013   -0.03537734
     atom   17 type  1   force =     0.07460827   -0.01792148    0.05718003
     atom   18 type  1   force =     0.03046214   -0.02409248    0.02867315
     atom   19 type  1   force =     0.02167185    0.07258839   -0.08249881
     atom   20 type  1   force =     0.02930843    0.01686731   -0.00762980
     atom   21 type  1   force =     0.05800645   -0.11152934    0.06017098
     atom   22 type  1   force =     0.03368183    0.01842719    0.00651789
     atom   23 type  1   force =     0.03101664    0.10315860    0.03652742
     atom   24 type  1   force =     0.00843946   -0.01483697    0.05531209
     atom   25 type  1   force =    -0.02890341    0.10997068   -0.04645654
     atom   26 type  1   force =    -0.03356485   -0.00369481    0.01700988
     atom   27 type  1   force =    -0.03271763    0.00921686    0.02760400
     atom   28 type  1   force =    -0.00874113    0.01602625    0.01315072
     atom   29 type  1   force =    -0.06769139    0.00405427    0.00973161
     atom   30 type  1   force =     0.00867270    0.00286472   -0.02475226
     atom   31 type  1   force =    -0.01019255    0.00903329   -0.01497814
     atom   32 type  1   force =    -0.02135308    0.00798153   -0.00556669
     atom   33 type  1   force =     0.00288689   -0.02422301    0.01777159
     atom   34 type  1   force =     0.03370723    0.01812814   -0.00544815
     atom   35 type  1   force =     0.02469887   -0.00494821   -0.03972273
     atom   36 type  1   force =    -0.01893959   -0.02754002   -0.03826867
     atom   37 type  1   force =    -0.01174071    0.01239220   -0.03799944
     atom   38 type  1   force =     0.01946826    0.02312966    0.00876873
     atom   39 type  1   force =     0.02859440   -0.01618915   -0.01388530
     atom   40 type  1   force =     0.01063520   -0.04573525   -0.04267130
     atom   41 type  1   force =    -0.00447205    0.00801866    0.01699373
     atom   42 type  1   force =     0.04614876    0.02000253   -0.06897569
     atom   43 type  1   force =    -0.04954718    0.00007667   -0.01589029
     atom   44 type  1   force =     0.00076086    0.01881412    0.03206806
     atom   45 type  1   force =     0.02439203   -0.01155404   -0.03396377
     atom   46 type  1   force =     0.01938839   -0.02523845    0.03478130
     atom   47 type  1   force =    -0.00081162   -0.06797747    0.02446134
     atom   48 type  1   force =    -0.01312741   -0.01933344   -0.01165268
     atom   49 type  1   force =     0.00005846   -0.08127677   -0.06897636
     atom   50 type  1   force =    -0.01692926    0.02393003    0.00429775
     atom   51 type  1   force =    -0.03322386    0.03144878    0.00119380
     atom   52 type  1   force =     0.00009548   -0.01379037    0.00730675
     atom   53 type  1   force =     0.03225688    0.02460789   -0.00526995
     atom   54 type  1   force =     0.05240806    0.00016971   -0.07283378
     atom   55 type  1   force =     0.01515328   -0.00457071   -0.00790762
     atom   56 type  1   force =    -0.00197120   -0.01807207    0.01036083
     atom   57 type  1   force =    -0.01741477    0.03199506    0.02474860
     atom   58 type  1   force =    -0.02506987    0.00553336    0.01015724
     atom   59 type  1   force =    -0.02865528   -0.07092053   -0.02261131
     atom   60 type  1   force =    -0.01312516    0.00812615   -0.02476448
     atom   61 type  1   force =    -0.02827745    0.06510077    0.00855702
     atom   62 type  1   force =     0.01109949    0.00761128    0.01236399
     atom   63 type  1   force =    -0.04496532   -0.00543433    0.02952382
     atom   64 type  1   force =    -0.04977795   -0.05227539    0.02278053

     Total force =     0.461192     Total SCF correction =     0.001906


     Computing stress (Cartesian axis) and pressure

          total   stress  (Ry/bohr**3)                   (kbar)     P=      -24.50
  -0.00025221   0.00005109  -0.00000184          -37.10        7.52       -0.27
   0.00005109  -0.00014181   0.00005703            7.52      -20.86        8.39
  -0.00000184   0.00005703  -0.00010571           -0.27        8.39      -15.55

 
     init_run     :      0.78s CPU      4.64s WALL (       1 calls)
     electrons    :      2.52s CPU      2.68s WALL (       1 calls)
     forces       :      0.04s CPU      0.04s WALL (       1 calls)
     stress       :      0.16s CPU      0.17s WALL (       1 calls)

     Called by init_run:
     wfcinit      :      0.56s CPU      4.26s WALL (       1 calls)
                                        4.26s GPU  (       1 calls)
     potinit      :      0.06s CPU      0.13s WALL (       1 calls)
     hinit0       :      0.14s CPU      0.17s WALL (       1 calls)

     Called by electrons:
     c_bands      :      1.52s CPU      1.57s WALL (      20 calls)
     sum_band     :      0.52s CPU      0.57s WALL (      20 calls)
     v_of_rho     :      0.22s CPU      0.32s WALL (      20 calls)
     mix_rho      :      0.22s CPU      0.24s WALL (      20 calls)

     Called by c_bands:
     init_us_2    :      0.07s CPU      0.08s WALL (      41 calls)
     init_us_2:gp :      0.07s CPU      0.08s WALL (      41 calls)
     regterg      :      1.34s CPU      1.39s WALL (      20 calls)

     Called by *egterg:
     rdiaghg      :      0.44s CPU      1.19s WALL (      92 calls)
                                        1.17s GPU  (      92 calls)
     h_psi        :      1.26s CPU      4.24s WALL (      94 calls)
                                        4.23s GPU  (      94 calls)
     g_psi        :      0.00s CPU      0.00s WALL (      73 calls)
                                        0.00s GPU  (      73 calls)

     Called by h_psi:
     h_psi:calbec :      0.51s CPU      3.41s WALL (      94 calls)
                                        3.41s GPU  (      94 calls)
     vloc_psi     :      0.69s CPU      0.76s WALL (      94 calls)
                                        0.75s GPU  (      94 calls)
     add_vuspsi   :      0.04s CPU      0.06s WALL (      94 calls)
                                        0.06s GPU  (      94 calls)

     General routines
     calbec       :      0.52s CPU      3.41s WALL (      99 calls)
     fft          :      0.36s CPU      0.49s WALL (     167 calls)
                                        0.13s GPU  (     106 calls)
     ffts         :      0.07s CPU      0.08s WALL (      20 calls)
     fftw         :      0.75s CPU      0.97s WALL (    2108 calls)
                                        0.87s GPU  (    2108 calls)
 
     Parallel routines
 
     PWSCF        :      3.55s CPU      7.62s WALL

 
   This run was terminated on:  12:26: 3  11May2023            

=------------------------------------------------------------------------------=
   JOB DONE.
=------------------------------------------------------------------------------=
