An instance of this daemon is already running

     Program PWSCF v.7.1 starts on 11May2023 at 12:27:57 

     This program is part of the open-source Quantum ESPRESSO suite
     for quantum simulation of materials; please cite
         "P. Giannozzi et al., J. Phys.:Condens. Matter 21 395502 (2009);
         "P. Giannozzi et al., J. Phys.:Condens. Matter 29 465901 (2017);
         "P. Giannozzi et al., J. Chem. Phys. 152 154105 (2020);
          URL http://www.quantum-espresso.org", 
     in publications or presentations arising from this work. More details at
     http://www.quantum-espresso.org/quote

     Parallel version (MPI & OpenMP), running on       4 processor cores
     Number of MPI processes:                 4
     Threads/MPI process:                     1

     MPI processes distributed on     1 nodes
     696770 MiB available memory on the printing compute node when the environment starts
 
     Reading input from pw-si-56.in
Warning: card &CELL ignored
Warning: card / ignored

     Current dimensions of program PWSCF are:
     Max number of different atomic species (ntypx) = 10
     Max number of k-points (npk) =  40000
     Max angular momentum in pseudopotentials (lmaxx) =  4

     IMPORTANT: XC functional enforced from input :
     Exchange-correlation= PBE
                           (   1   4   3   4   0   0   0)
     Any further DFT definition will be discarded
     Please, verify this is what you really want


     gamma-point specific algorithms are used
 
     K-points division:     npool     =       2
     R & G space division:  proc/nbgrp/npool/nimage =       2
     Subspace diagonalization in iterative solution of the eigenvalue problem:
     a serial algorithm will be used

     Message from routine divide_et_impera:
     suboptimal parallelization: some nodes have no k-points
 
     Parallelization info
     --------------------
     sticks:   dense  smooth     PW     G-vecs:    dense   smooth      PW
     Min        2127    2127    558               104615   104615   14174
     Max        2130    2130    559               104618   104618   14179
     Sum        4257    4257   1117               209233   209233   28353
 
     Using Slab Decomposition
 


     bravais-lattice index     =            0
     lattice parameter (alat)  =      21.1248  a.u.
     unit-cell volume          =    9427.1124 (a.u.)^3
     number of atoms/cell      =           64
     number of atomic types    =            1
     number of electrons       =       256.00
     number of Kohn-Sham states=          154
     kinetic-energy cutoff     =      30.0000  Ry
     charge density cutoff     =     120.0000  Ry
     scf convergence threshold =      1.0E-06
     mixing beta               =       0.5000
     number of iterations used =            8  plain     mixing
     Exchange-correlation= PBE
                           (   1   4   3   4   0   0   0)

     GPU acceleration is ACTIVE.
     GPU-aware MPI enabled

     Message from routine print_cuda_info:
     High GPU oversubscription detected. Are you sure this is what you want?

     celldm(1)=  21.124814  celldm(2)=   0.000000  celldm(3)=   0.000000
     celldm(4)=   0.000000  celldm(5)=   0.000000  celldm(6)=   0.000000

     crystal axes: (cart. coord. in units of alat)
               a(1) = (   1.000000   0.000000   0.000000 )  
               a(2) = (   0.000000   1.000000   0.000000 )  
               a(3) = (   0.000000   0.000000   1.000000 )  

     reciprocal axes: (cart. coord. in units 2 pi/alat)
               b(1) = (  1.000000  0.000000  0.000000 )  
               b(2) = (  0.000000  1.000000  0.000000 )  
               b(3) = (  0.000000  0.000000  1.000000 )  


     PseudoPot. # 1 for Si read from file:
     /home/ppiaggi/pseudos/Si_ONCV_PBE_sr.upf
     MD5 check sum: 8553c464762ac42b85b1eed164b4d029
     Pseudo is Norm-conserving, Zval =  4.0
     Generated using ONCVPSP code by D. R. Hamann
     Using radial grid of 1510 points,  4 beta functions with: 
                l(1) =   0
                l(2) =   0
                l(3) =   1
                l(4) =   1

     atomic species   valence    mass     pseudopotential
        Si             4.00    28.08500     Si( 1.00)

     No symmetry found



   Cartesian axes

     site n.     atom                  positions (alat units)
         1           Si  tau(   1) = (   0.5791110   0.7152570   0.5519850  )
         2           Si  tau(   2) = (   0.8490260   0.3457920   0.1634910  )
         3           Si  tau(   3) = (   0.8231330   0.9231560   0.5360690  )
         4           Si  tau(   4) = (   0.7602630   0.5026850   0.3449640  )
         5           Si  tau(   5) = (   0.1231430   0.1304360   0.5988340  )
         6           Si  tau(   6) = (   0.3413190   0.4983820   0.8528860  )
         7           Si  tau(   7) = (   0.9057470   0.2090400   0.3219090  )
         8           Si  tau(   8) = (   0.2757740   0.8053890   0.0259032  )
         9           Si  tau(   9) = (   0.6257730   0.8967910   0.0080388  )
        10           Si  tau(  10) = (   0.3101700   0.9455310   0.8781320  )
        11           Si  tau(  11) = (   0.8923900   0.1088090   0.7311320  )
        12           Si  tau(  12) = (   0.1082760   0.6527740   0.9505840  )
        13           Si  tau(  13) = (   0.6543360   0.4317070   0.7935050  )
        14           Si  tau(  14) = (   0.8306070   0.3630090   0.5201000  )
        15           Si  tau(  15) = (   0.6436160   0.0390944   0.8495370  )
        16           Si  tau(  16) = (   0.6381060   0.0423899   0.4881530  )
        17           Si  tau(  17) = (   0.4430690   0.9961150   0.0897686  )
        18           Si  tau(  18) = (   0.7011000   0.2219730   0.6937150  )
        19           Si  tau(  19) = (   0.5505010   0.9012950   0.6451260  )
        20           Si  tau(  20) = (   0.4225630   0.0707532   0.7458660  )
        21           Si  tau(  21) = (   0.4305670   0.1323590   0.4926230  )
        22           Si  tau(  22) = (   0.7625390   0.9428590   0.7276090  )
        23           Si  tau(  23) = (   0.4926300   0.7968140   0.3668470  )
        24           Si  tau(  24) = (   0.4839740   0.4212590   0.0586829  )
        25           Si  tau(  25) = (   0.3401780   0.4508280   0.3116300  )
        26           Si  tau(  26) = (   0.0483992   0.1775490   0.1042030  )
        27           Si  tau(  27) = (   0.0375928   0.0318935   0.9362950  )
        28           Si  tau(  28) = (   0.6146560   0.0516811   0.1917850  )
        29           Si  tau(  29) = (   0.5909640   0.6192380   0.2065360  )
        30           Si  tau(  30) = (   0.5966700   0.1782830   0.3441040  )
        31           Si  tau(  31) = (   0.3447590   0.4664740   0.6533470  )
        32           Si  tau(  32) = (   0.1404620   0.3126460   0.2896500  )
        33           Si  tau(  33) = (   0.3093320   0.9513460   0.5791740  )
        34           Si  tau(  34) = (   0.5115220   0.1920760   0.0174071  )
        35           Si  tau(  35) = (   0.9899800   0.8261600   0.8340220  )
        36           Si  tau(  36) = (   0.4960030   0.3064360   0.8436600  )
        37           Si  tau(  37) = (   0.4528510   0.6235330   0.0539216  )
        38           Si  tau(  38) = (   0.9752800   0.8850050   0.3073050  )
        39           Si  tau(  39) = (   0.3910000   0.7583390   0.7127540  )
        40           Si  tau(  40) = (   0.0427615   0.4746240   0.4607340  )
        41           Si  tau(  41) = (   0.1439320   0.8668580   0.5019820  )
        42           Si  tau(  42) = (   0.8043250   0.4558580   0.9759410  )
        43           Si  tau(  43) = (   0.0125066   0.8372700   0.0676830  )
        44           Si  tau(  44) = (   0.1754820   0.6522530   0.4148150  )
        45           Si  tau(  45) = (   0.1091490   0.5068510   0.7670570  )
        46           Si  tau(  46) = (   0.1780570   0.7030970   0.6828000  )
        47           Si  tau(  47) = (   0.5201540   0.6365280   0.8112490  )
        48           Si  tau(  48) = (   0.2955680   0.2665430   0.4750500  )
        49           Si  tau(  49) = (   0.7294780   0.1406490   0.0204553  )
        50           Si  tau(  50) = (   0.7483040   0.7448250   0.3491360  )
        51           Si  tau(  51) = (   0.8652970   0.5572450   0.5908530  )
        52           Si  tau(  52) = (   0.9566380   0.0753277   0.5134340  )
        53           Si  tau(  53) = (   0.3914030   0.2530010   0.2876120  )
        54           Si  tau(  54) = (   0.0561557   0.6122530   0.2274360  )
        55           Si  tau(  55) = (   0.5963240   0.4010520   0.2509850  )
        56           Si  tau(  56) = (   0.8996080   0.2440190   0.9235480  )
        57           Si  tau(  57) = (   0.5499470   0.5378570   0.4362500  )
        58           Si  tau(  58) = (   0.9601210   0.8342450   0.6416110  )
        59           Si  tau(  59) = (   0.7120660   0.7655950   0.1442190  )
        60           Si  tau(  60) = (   0.9605440   0.6777880   0.3988780  )
        61           Si  tau(  61) = (   0.8383210   0.0193775   0.2062640  )
        62           Si  tau(  62) = (   0.1455360   0.9602210   0.7421300  )
        63           Si  tau(  63) = (   0.9118650   0.6599530   0.0622341  )
        64           Si  tau(  64) = (   0.3413020   0.6504690   0.2442840  )

     number of k points=     1  Fermi-Dirac smearing, width (Ry)=  0.0100
                       cart. coord. in units 2pi/alat
        k(    1) = (   0.0000000   0.0000000   0.0000000), wk =   2.0000000

     Dense  grid:   104617 G-vectors     FFT dimensions: (  75,  75,  75)

     Estimated max dynamical RAM per process >     167.37 MB

     Estimated total dynamical RAM >     643.92 MB

     Initial potential from superposition of free atoms

     starting charge     255.9608, renormalised to     256.0000
     Starting wfcs are  256 randomized atomic wfcs

     total cpu time spent up to now is        4.6 secs

     Self-consistent Calculation

     iteration #  1     ecut=    30.00 Ry     beta= 0.50
     Davidson diagonalization with overlap
     ethr =  1.00E-02,  avg # of iterations =  3.0

     Threshold (ethr) on eigenvalues was too large:
     Diagonalizing with lowered threshold

     Davidson diagonalization with overlap
     ethr =  6.72E-04,  avg # of iterations =  4.0

     total cpu time spent up to now is        4.9 secs

     total energy              =    -499.97396906 Ry
     estimated scf accuracy    <       2.24775752 Ry

     iteration #  2     ecut=    30.00 Ry     beta= 0.50
     Davidson diagonalization with overlap
     ethr =  8.78E-04,  avg # of iterations =  6.0

     total cpu time spent up to now is        5.1 secs

     total energy              =    -498.84282718 Ry
     estimated scf accuracy    <      17.64645029 Ry

     iteration #  3     ecut=    30.00 Ry     beta= 0.50
     Davidson diagonalization with overlap
     ethr =  8.78E-04,  avg # of iterations =  4.0

     total cpu time spent up to now is        5.2 secs

     total energy              =    -500.42385657 Ry
     estimated scf accuracy    <       2.92794047 Ry

     iteration #  4     ecut=    30.00 Ry     beta= 0.50
     Davidson diagonalization with overlap
     ethr =  8.78E-04,  avg # of iterations =  2.0

     total cpu time spent up to now is        5.3 secs

     total energy              =    -500.63034335 Ry
     estimated scf accuracy    <       1.04015814 Ry

     iteration #  5     ecut=    30.00 Ry     beta= 0.50
     Davidson diagonalization with overlap
     ethr =  4.06E-04,  avg # of iterations =  2.0

     total cpu time spent up to now is        5.5 secs

     total energy              =    -500.68302757 Ry
     estimated scf accuracy    <       0.92932270 Ry

     iteration #  6     ecut=    30.00 Ry     beta= 0.50
     Davidson diagonalization with overlap
     ethr =  3.63E-04,  avg # of iterations =  1.0

     total cpu time spent up to now is        5.6 secs

     total energy              =    -500.75599478 Ry
     estimated scf accuracy    <       0.06758327 Ry

     iteration #  7     ecut=    30.00 Ry     beta= 0.50
     Davidson diagonalization with overlap
     ethr =  2.64E-05,  avg # of iterations = 11.0

     total cpu time spent up to now is        5.8 secs

     total energy              =    -500.76261232 Ry
     estimated scf accuracy    <       0.08246705 Ry

     iteration #  8     ecut=    30.00 Ry     beta= 0.50
     Davidson diagonalization with overlap
     ethr =  2.64E-05,  avg # of iterations =  2.0

     total cpu time spent up to now is        5.9 secs

     total energy              =    -500.76949327 Ry
     estimated scf accuracy    <       0.04049554 Ry

     iteration #  9     ecut=    30.00 Ry     beta= 0.50
     Davidson diagonalization with overlap
     ethr =  1.58E-05,  avg # of iterations =  2.0

     total cpu time spent up to now is        6.0 secs

     total energy              =    -500.77275867 Ry
     estimated scf accuracy    <       0.00436912 Ry

     iteration # 10     ecut=    30.00 Ry     beta= 0.50
     Davidson diagonalization with overlap
     ethr =  1.71E-06,  avg # of iterations = 11.0

     total cpu time spent up to now is        6.2 secs

     total energy              =    -500.77308367 Ry
     estimated scf accuracy    <       0.00496874 Ry

     iteration # 11     ecut=    30.00 Ry     beta= 0.50
     Davidson diagonalization with overlap
     ethr =  1.71E-06,  avg # of iterations =  2.0

     total cpu time spent up to now is        6.3 secs

     total energy              =    -500.77349813 Ry
     estimated scf accuracy    <       0.00110247 Ry

     iteration # 12     ecut=    30.00 Ry     beta= 0.50
     Davidson diagonalization with overlap
     ethr =  4.31E-07,  avg # of iterations =  2.0

     total cpu time spent up to now is        6.4 secs

     total energy              =    -500.77358274 Ry
     estimated scf accuracy    <       0.00058053 Ry

     iteration # 13     ecut=    30.00 Ry     beta= 0.50
     Davidson diagonalization with overlap
     ethr =  2.27E-07,  avg # of iterations =  3.0

     total cpu time spent up to now is        6.6 secs

     total energy              =    -500.77362456 Ry
     estimated scf accuracy    <       0.00069117 Ry

     iteration # 14     ecut=    30.00 Ry     beta= 0.50
     Davidson diagonalization with overlap
     ethr =  2.27E-07,  avg # of iterations =  2.0

     total cpu time spent up to now is        6.7 secs

     total energy              =    -500.77366548 Ry
     estimated scf accuracy    <       0.00005479 Ry

     iteration # 15     ecut=    30.00 Ry     beta= 0.50
     Davidson diagonalization with overlap
     ethr =  2.14E-08,  avg # of iterations =  5.0

     total cpu time spent up to now is        6.8 secs

     total energy              =    -500.77366971 Ry
     estimated scf accuracy    <       0.00016483 Ry

     iteration # 16     ecut=    30.00 Ry     beta= 0.50
     Davidson diagonalization with overlap
     ethr =  2.14E-08,  avg # of iterations =  3.0

     total cpu time spent up to now is        7.0 secs

     total energy              =    -500.77367981 Ry
     estimated scf accuracy    <       0.00002855 Ry

     iteration # 17     ecut=    30.00 Ry     beta= 0.50
     Davidson diagonalization with overlap
     ethr =  1.12E-08,  avg # of iterations =  2.0

     total cpu time spent up to now is        7.1 secs

     total energy              =    -500.77368162 Ry
     estimated scf accuracy    <       0.00001485 Ry

     iteration # 18     ecut=    30.00 Ry     beta= 0.50
     Davidson diagonalization with overlap
     ethr =  5.80E-09,  avg # of iterations =  2.0

     total cpu time spent up to now is        7.2 secs

     total energy              =    -500.77368254 Ry
     estimated scf accuracy    <       0.00000946 Ry

     iteration # 19     ecut=    30.00 Ry     beta= 0.50
     Davidson diagonalization with overlap
     ethr =  3.70E-09,  avg # of iterations =  2.0

     total cpu time spent up to now is        7.3 secs

     total energy              =    -500.77368285 Ry
     estimated scf accuracy    <       0.00000791 Ry

     iteration # 20     ecut=    30.00 Ry     beta= 0.50
     Davidson diagonalization with overlap
     ethr =  3.09E-09,  avg # of iterations =  1.0

     total cpu time spent up to now is        7.5 secs

     total energy              =    -500.77368342 Ry
     estimated scf accuracy    <       0.00000134 Ry

     iteration # 21     ecut=    30.00 Ry     beta= 0.50
     Davidson diagonalization with overlap
     ethr =  5.25E-10,  avg # of iterations =  3.0

     total cpu time spent up to now is        7.6 secs

     End of self-consistent calculation

          k = 0.0000 0.0000 0.0000 ( 13073 PWs)   bands (ev):

    -7.0741  -6.5852  -6.2753  -5.9463  -5.8578  -5.7808  -5.5412  -5.3383
    -5.2217  -4.9709  -4.8889  -4.6775  -4.5287  -4.4164  -4.2443  -4.1624
    -4.0235  -3.9464  -3.7111  -3.5504  -3.5290  -3.3060  -3.2385  -3.0996
    -2.8795  -2.8118  -2.6209  -2.5647  -2.4100  -2.3324  -2.1871  -2.1044
    -1.9603  -1.8951  -1.7858  -1.6254  -1.5607  -1.3523  -1.2539  -1.2324
    -1.0648  -1.0265  -0.9311  -0.8256  -0.7675  -0.7415  -0.6797  -0.4594
    -0.3808  -0.3706  -0.2558  -0.0377  -0.0155   0.1530   0.1962   0.2299
     0.3382   0.5725   0.6958   0.7846   0.8148   0.8443   1.0213   1.0483
     1.1213   1.3594   1.5196   1.5461   1.6105   1.7419   1.8873   1.9355
     2.0447   2.0766   2.1222   2.2311   2.3450   2.3727   2.4554   2.5039
     2.5768   2.6644   2.7370   2.8034   2.8947   2.9134   2.9896   3.0915
     3.1067   3.1842   3.2370   3.2845   3.3294   3.4048   3.4185   3.4365
     3.5190   3.6202   3.6418   3.7653   3.8025   3.8488   3.9484   4.0421
     4.0917   4.1131   4.2656   4.3200   4.3350   4.3530   4.4500   4.4956
     4.5046   4.6250   4.7172   4.7425   4.7739   4.9067   4.9417   4.9796
     5.0814   5.1846   5.2090   5.2581   5.3568   5.4171   5.5060   5.5822
     5.6002   5.6498   5.7003   5.7434   5.8382   5.8504   5.9092   5.9968
     6.0133   6.0601   6.1805   6.2182   6.2575   6.3184   6.3968   6.4210
     6.4884   6.6570   6.6867   6.7042   6.7808   6.8115   6.9228   7.0331
     7.0834   7.1612

     the Fermi energy is     5.5614 ev

!    total energy              =    -500.77368296 Ry
     estimated scf accuracy    <       0.00000091 Ry
     smearing contrib. (-TS)   =      -0.15209651 Ry
     internal energy E=F+TS    =    -500.62158645 Ry

     The total energy is F=E-TS. E is the sum of the following terms:
     one-electron contribution =      48.81724226 Ry
     hartree contribution      =      78.60461413 Ry
     xc contribution           =    -149.44949943 Ry
     ewald contribution        =    -478.59394341 Ry

     convergence has been achieved in  21 iterations

     Forces acting on atoms (cartesian axes, Ry/au):

     atom    1 type  1   force =    -0.00204767   -0.01274284   -0.01269733
     atom    2 type  1   force =    -0.01905527    0.02551740   -0.00912866
     atom    3 type  1   force =    -0.07919043   -0.00019215   -0.11942054
     atom    4 type  1   force =     0.03129513    0.00308133    0.01140950
     atom    5 type  1   force =     0.07410754    0.00705129    0.04309477
     atom    6 type  1   force =     0.00139266   -0.00424258    0.04639012
     atom    7 type  1   force =     0.02365016   -0.02743708    0.02548355
     atom    8 type  1   force =    -0.02269307   -0.04924181    0.03925107
     atom    9 type  1   force =    -0.03166586    0.02516026   -0.00627804
     atom   10 type  1   force =     0.00878792   -0.00061207   -0.03537049
     atom   11 type  1   force =     0.01493927    0.03745870    0.02305561
     atom   12 type  1   force =     0.00393910    0.02274380   -0.03837405
     atom   13 type  1   force =     0.02141251    0.01279613    0.00948160
     atom   14 type  1   force =    -0.00531641   -0.01738086   -0.02742508
     atom   15 type  1   force =    -0.07142994    0.04885083    0.03323863
     atom   16 type  1   force =     0.00159629   -0.01684222    0.05697636
     atom   17 type  1   force =    -0.01564512   -0.01583075   -0.02448693
     atom   18 type  1   force =     0.01199974    0.00157336   -0.02227004
     atom   19 type  1   force =    -0.00373611    0.05474560   -0.00629384
     atom   20 type  1   force =     0.04234455    0.00494410   -0.00581214
     atom   21 type  1   force =     0.05932053   -0.09264616    0.02979632
     atom   22 type  1   force =     0.02575765   -0.05631144    0.00725703
     atom   23 type  1   force =     0.00585807   -0.02829867   -0.00680085
     atom   24 type  1   force =     0.00775510   -0.04334347    0.00739642
     atom   25 type  1   force =    -0.00056562    0.01175736    0.01668636
     atom   26 type  1   force =    -0.03201316    0.01342155    0.00753527
     atom   27 type  1   force =    -0.00039315   -0.02116377    0.00439264
     atom   28 type  1   force =     0.04326884   -0.05045822   -0.02947947
     atom   29 type  1   force =    -0.01699334   -0.03412549    0.04614978
     atom   30 type  1   force =    -0.01223222    0.07021744    0.01160009
     atom   31 type  1   force =    -0.01929353   -0.00406978   -0.06013274
     atom   32 type  1   force =    -0.01116821    0.01178823    0.02213951
     atom   33 type  1   force =     0.06440274    0.05298137    0.01155217
     atom   34 type  1   force =     0.01258438   -0.00843619    0.01846387
     atom   35 type  1   force =     0.02309832   -0.01950995    0.06272880
     atom   36 type  1   force =    -0.03427807   -0.00374771   -0.00684422
     atom   37 type  1   force =    -0.04899781    0.04196512   -0.06182053
     atom   38 type  1   force =     0.00351883   -0.00678219   -0.00067715
     atom   39 type  1   force =    -0.02940975    0.03841891   -0.01266729
     atom   40 type  1   force =     0.00857512   -0.00763926   -0.01055073
     atom   41 type  1   force =    -0.07790392   -0.04239426   -0.02050220
     atom   42 type  1   force =     0.01338540   -0.01405673   -0.00102249
     atom   43 type  1   force =     0.03860881    0.06709339    0.01921154
     atom   44 type  1   force =     0.01563412   -0.00352535    0.00504960
     atom   45 type  1   force =     0.03727203    0.03408707   -0.00833065
     atom   46 type  1   force =    -0.00007697   -0.01208291    0.00522736
     atom   47 type  1   force =     0.00967934   -0.04644342    0.03576377
     atom   48 type  1   force =    -0.11488274    0.09409956    0.02094924
     atom   49 type  1   force =     0.01132389    0.01213667    0.00754928
     atom   50 type  1   force =     0.00307756    0.00077572    0.05436135
     atom   51 type  1   force =     0.02340787    0.02803066   -0.01474345
     atom   52 type  1   force =    -0.02816943    0.01572932   -0.06644437
     atom   53 type  1   force =     0.01783925   -0.02910616   -0.02600734
     atom   54 type  1   force =    -0.01198938   -0.01356985   -0.01494923
     atom   55 type  1   force =    -0.00168152   -0.02240629   -0.01745120
     atom   56 type  1   force =    -0.00851151    0.00538297    0.01778984
     atom   57 type  1   force =    -0.02400590   -0.00839259   -0.01900228
     atom   58 type  1   force =     0.07602053   -0.05247419   -0.04109584
     atom   59 type  1   force =     0.07069927    0.01188043   -0.01714482
     atom   60 type  1   force =    -0.04212253    0.00254679    0.01545276
     atom   61 type  1   force =     0.00108003    0.01956560    0.00923194
     atom   62 type  1   force =    -0.01477849    0.01529442    0.00471426
     atom   63 type  1   force =    -0.03215741   -0.05855108    0.00562717
     atom   64 type  1   force =     0.00477197    0.03296209    0.00821640

     Total force =     0.464149     Total SCF correction =     0.001838


     Computing stress (Cartesian axis) and pressure

          total   stress  (Ry/bohr**3)                   (kbar)     P=      -23.70
  -0.00013868   0.00001113   0.00002558          -20.40        1.64        3.76
   0.00001113  -0.00021372  -0.00003834            1.64      -31.44       -5.64
   0.00002558  -0.00003834  -0.00013097            3.76       -5.64      -19.27

 
     init_run     :      0.85s CPU      4.54s WALL (       1 calls)
     electrons    :      2.79s CPU      2.95s WALL (       1 calls)
     forces       :      0.04s CPU      0.04s WALL (       1 calls)
     stress       :      0.18s CPU      0.18s WALL (       1 calls)

     Called by init_run:
     wfcinit      :      0.64s CPU      4.16s WALL (       1 calls)
                                        4.16s GPU  (       1 calls)
     potinit      :      0.05s CPU      0.13s WALL (       1 calls)
     hinit0       :      0.14s CPU      0.17s WALL (       1 calls)

     Called by electrons:
     c_bands      :      1.64s CPU      1.71s WALL (      22 calls)
     sum_band     :      0.58s CPU      0.63s WALL (      22 calls)
     v_of_rho     :      0.26s CPU      0.35s WALL (      22 calls)
     mix_rho      :      0.26s CPU      0.28s WALL (      22 calls)

     Called by c_bands:
     init_us_2    :      0.08s CPU      0.08s WALL (      45 calls)
     init_us_2:gp :      0.08s CPU      0.08s WALL (      45 calls)
     regterg      :      1.44s CPU      1.50s WALL (      22 calls)

     Called by *egterg:
     rdiaghg      :      0.45s CPU      1.19s WALL (      96 calls)
                                        1.17s GPU  (      96 calls)
     h_psi        :      1.40s CPU      4.23s WALL (      98 calls)
                                        4.22s GPU  (      98 calls)
     g_psi        :      0.00s CPU      0.00s WALL (      75 calls)
                                        0.00s GPU  (      75 calls)

     Called by h_psi:
     h_psi:calbec :      0.59s CPU      3.34s WALL (      98 calls)
                                        3.34s GPU  (      98 calls)
     vloc_psi     :      0.75s CPU      0.82s WALL (      98 calls)
                                        0.82s GPU  (      98 calls)
     add_vuspsi   :      0.04s CPU      0.06s WALL (      98 calls)
                                        0.05s GPU  (      98 calls)

     General routines
     calbec       :      0.60s CPU      3.34s WALL (     103 calls)
     fft          :      0.40s CPU      0.52s WALL (     183 calls)
                                        0.13s GPU  (     116 calls)
     ffts         :      0.08s CPU      0.09s WALL (      22 calls)
     fftw         :      0.82s CPU      1.05s WALL (    2314 calls)
                                        0.95s GPU  (    2314 calls)
 
     Parallel routines
 
     PWSCF        :      3.91s CPU      7.81s WALL

 
   This run was terminated on:  12:28: 5  11May2023            

=------------------------------------------------------------------------------=
   JOB DONE.
=------------------------------------------------------------------------------=
