An instance of this daemon is already running
An instance of this daemon is already running

     Program PWSCF v.7.1 starts on 11May2023 at 12:18:54 

     This program is part of the open-source Quantum ESPRESSO suite
     for quantum simulation of materials; please cite
         "P. Giannozzi et al., J. Phys.:Condens. Matter 21 395502 (2009);
         "P. Giannozzi et al., J. Phys.:Condens. Matter 29 465901 (2017);
         "P. Giannozzi et al., J. Chem. Phys. 152 154105 (2020);
          URL http://www.quantum-espresso.org", 
     in publications or presentations arising from this work. More details at
     http://www.quantum-espresso.org/quote

     Parallel version (MPI & OpenMP), running on       4 processor cores
     Number of MPI processes:                 4
     Threads/MPI process:                     1

     MPI processes distributed on     1 nodes
     696695 MiB available memory on the printing compute node when the environment starts
 
     Reading input from pw-si-1.in
Warning: card &CELL ignored
Warning: card / ignored

     Current dimensions of program PWSCF are:
     Max number of different atomic species (ntypx) = 10
     Max number of k-points (npk) =  40000
     Max angular momentum in pseudopotentials (lmaxx) =  4

     IMPORTANT: XC functional enforced from input :
     Exchange-correlation= PBE
                           (   1   4   3   4   0   0   0)
     Any further DFT definition will be discarded
     Please, verify this is what you really want


     gamma-point specific algorithms are used
 
     K-points division:     npool     =       2
     R & G space division:  proc/nbgrp/npool/nimage =       2
     Subspace diagonalization in iterative solution of the eigenvalue problem:
     a serial algorithm will be used

     Message from routine divide_et_impera:
     suboptimal parallelization: some nodes have no k-points
 
     Parallelization info
     --------------------
     sticks:   dense  smooth     PW     G-vecs:    dense   smooth      PW
     Min        2008    2008    533                95867    95867   13000
     Max        2009    2009    536                95868    95868   13001
     Sum        4017    4017   1069               191735   191735   26001
 
     Using Slab Decomposition
 


     bravais-lattice index     =            0
     lattice parameter (alat)  =      20.5285  a.u.
     unit-cell volume          =    8651.0510 (a.u.)^3
     number of atoms/cell      =           64
     number of atomic types    =            1
     number of electrons       =       256.00
     number of Kohn-Sham states=          154
     kinetic-energy cutoff     =      30.0000  Ry
     charge density cutoff     =     120.0000  Ry
     scf convergence threshold =      1.0E-06
     mixing beta               =       0.5000
     number of iterations used =            8  plain     mixing
     Exchange-correlation= PBE
                           (   1   4   3   4   0   0   0)

     GPU acceleration is ACTIVE.
     GPU-aware MPI enabled

     Message from routine print_cuda_info:
     High GPU oversubscription detected. Are you sure this is what you want?

     celldm(1)=  20.528456  celldm(2)=   0.000000  celldm(3)=   0.000000
     celldm(4)=   0.000000  celldm(5)=   0.000000  celldm(6)=   0.000000

     crystal axes: (cart. coord. in units of alat)
               a(1) = (   1.000000   0.000000   0.000000 )  
               a(2) = (   0.000000   1.000000   0.000000 )  
               a(3) = (   0.000000   0.000000   1.000000 )  

     reciprocal axes: (cart. coord. in units 2 pi/alat)
               b(1) = (  1.000000  0.000000  0.000000 )  
               b(2) = (  0.000000  1.000000  0.000000 )  
               b(3) = (  0.000000  0.000000  1.000000 )  


     PseudoPot. # 1 for Si read from file:
     /home/ppiaggi/pseudos/Si_ONCV_PBE_sr.upf
     MD5 check sum: 8553c464762ac42b85b1eed164b4d029
     Pseudo is Norm-conserving, Zval =  4.0
     Generated using ONCVPSP code by D. R. Hamann
     Using radial grid of 1510 points,  4 beta functions with: 
                l(1) =   0
                l(2) =   0
                l(3) =   1
                l(4) =   1

     atomic species   valence    mass     pseudopotential
        Si             4.00    28.08500     Si( 1.00)

     No symmetry found



   Cartesian axes

     site n.     atom                  positions (alat units)
         1           Si  tau(   1) = (   0.6440850   0.7518250   0.4917130  )
         2           Si  tau(   2) = (   0.5983880   0.3191560   0.2353770  )
         3           Si  tau(   3) = (   0.9491460   0.9683490   0.3910340  )
         4           Si  tau(   4) = (   0.7660280   0.4797500   0.2407240  )
         5           Si  tau(   5) = (   0.3737710   0.2186780   0.4494600  )
         6           Si  tau(   6) = (   0.1833870   0.6583210   0.9880250  )
         7           Si  tau(   7) = (   0.7749730   0.0438045   0.5405600  )
         8           Si  tau(   8) = (   0.3420270   0.9864570   0.9736690  )
         9           Si  tau(   9) = (   0.6743550   0.8532280   0.7018640  )
        10           Si  tau(  10) = (   0.0781647   0.9175330   0.8974190  )
        11           Si  tau(  11) = (   0.9989940   0.0703720   0.6041580  )
        12           Si  tau(  12) = (   0.0275819   0.7882080   0.1015080  )
        13           Si  tau(  13) = (   0.7004390   0.4411870   0.9627470  )
        14           Si  tau(  14) = (   0.7875110   0.2486580   0.6250210  )
        15           Si  tau(  15) = (   0.8927250   0.2881460   0.8256380  )
        16           Si  tau(  16) = (   0.2972200   0.8397150   0.5845470  )
        17           Si  tau(  17) = (   0.5156080   0.0520122   0.2397610  )
        18           Si  tau(  18) = (   0.7075900   0.4322590   0.7481020  )
        19           Si  tau(  19) = (   0.8255610   0.6788250   0.6684110  )
        20           Si  tau(  20) = (   0.5329070   0.0848686   0.8725960  )
        21           Si  tau(  21) = (   0.3507710   0.0465482   0.5914700  )
        22           Si  tau(  22) = (   0.8013890   0.0402690   0.7409770  )
        23           Si  tau(  23) = (   0.3245980   0.8236840   0.3682860  )
        24           Si  tau(  24) = (   0.3612050   0.3761790   0.9714670  )
        25           Si  tau(  25) = (   0.3116870   0.4006410   0.2421430  )
        26           Si  tau(  26) = (   0.0471006   0.2610780   0.1986620  )
        27           Si  tau(  27) = (   0.9496210   0.0861438   0.9127420  )
        28           Si  tau(  28) = (   0.7507850   0.0133038   0.3028950  )
        29           Si  tau(  29) = (   0.6307500   0.7444180   0.1541570  )
        30           Si  tau(  30) = (   0.5482420   0.1657810   0.6239820  )
        31           Si  tau(  31) = (   0.0377297   0.5318510   0.2154120  )
        32           Si  tau(  32) = (   0.0149277   0.3390550   0.4219730  )
        33           Si  tau(  33) = (   0.4836070   0.7357850   0.6437400  )
        34           Si  tau(  34) = (   0.5946400   0.2129890   0.0108567  )
        35           Si  tau(  35) = (   0.9551940   0.7242940   0.8331930  )
        36           Si  tau(  36) = (   0.4708180   0.3148390   0.7798720  )
        37           Si  tau(  37) = (   0.4915000   0.8618840   0.8432990  )
        38           Si  tau(  38) = (   0.8179370   0.0531595   0.0680567  )
        39           Si  tau(  39) = (   0.3805760   0.5162860   0.4349620  )
        40           Si  tau(  40) = (   0.0653741   0.2724260   0.6654090  )
        41           Si  tau(  41) = (   0.0882688   0.9090900   0.6733830  )
        42           Si  tau(  42) = (   0.9954620   0.4075000   0.9854330  )
        43           Si  tau(  43) = (   0.1646170   0.1157610   0.0710288  )
        44           Si  tau(  44) = (   0.9329260   0.7947940   0.2976930  )
        45           Si  tau(  45) = (   0.2208070   0.6610850   0.2489320  )
        46           Si  tau(  46) = (   0.3745640   0.5393040   0.6515890  )
        47           Si  tau(  47) = (   0.3903130   0.6542370   0.8942170  )
        48           Si  tau(  48) = (   0.2665730   0.3469530   0.7032660  )
        49           Si  tau(  49) = (   0.8158340   0.2859510   0.1288070  )
        50           Si  tau(  50) = (   0.5244110   0.8713120   0.3406520  )
        51           Si  tau(  51) = (   0.0597594   0.5429910   0.8362180  )
        52           Si  tau(  52) = (   0.1561320   0.1004790   0.2980690  )
        53           Si  tau(  53) = (   0.3867880   0.2261960   0.1846450  )
        54           Si  tau(  54) = (   0.2250390   0.8974380   0.1765560  )
        55           Si  tau(  55) = (   0.5818410   0.3396260   0.4700550  )
        56           Si  tau(  56) = (   0.1705240   0.2558230   0.8753530  )
        57           Si  tau(  57) = (   0.5316630   0.6459080   0.3321910  )
        58           Si  tau(  58) = (   0.9111400   0.4826810   0.5736700  )
        59           Si  tau(  59) = (   0.5925550   0.6298220   0.8813950  )
        60           Si  tau(  60) = (   0.8060900   0.6364770   0.4152960  )
        61           Si  tau(  61) = (   0.7817140   0.8077730   0.9688550  )
        62           Si  tau(  62) = (   0.1251400   0.5055550   0.6130210  )
        63           Si  tau(  63) = (   0.8619440   0.6423700   0.1454470  )
        64           Si  tau(  64) = (   0.4092130   0.5178240   0.0862413  )

     number of k points=     1  Fermi-Dirac smearing, width (Ry)=  0.0100
                       cart. coord. in units 2pi/alat
        k(    1) = (   0.0000000   0.0000000   0.0000000), wk =   2.0000000

     Dense  grid:    95868 G-vectors     FFT dimensions: (  72,  72,  72)

     Estimated max dynamical RAM per process >     153.16 MB

     Estimated total dynamical RAM >     589.23 MB

     Initial potential from superposition of free atoms

     starting charge     255.9608, renormalised to     256.0000
     Starting wfcs are  256 randomized atomic wfcs

     total cpu time spent up to now is        5.1 secs

     Self-consistent Calculation

     iteration #  1     ecut=    30.00 Ry     beta= 0.50
     Davidson diagonalization with overlap
     ethr =  1.00E-02,  avg # of iterations =  3.0

     Threshold (ethr) on eigenvalues was too large:
     Diagonalizing with lowered threshold

     Davidson diagonalization with overlap
     ethr =  5.12E-04,  avg # of iterations =  4.0

     total cpu time spent up to now is        5.3 secs

     total energy              =    -500.41139022 Ry
     estimated scf accuracy    <       1.65632002 Ry

     iteration #  2     ecut=    30.00 Ry     beta= 0.50
     Davidson diagonalization with overlap
     ethr =  6.47E-04,  avg # of iterations =  4.0

     total cpu time spent up to now is        5.5 secs

     total energy              =    -499.93048995 Ry
     estimated scf accuracy    <       5.73223958 Ry

     iteration #  3     ecut=    30.00 Ry     beta= 0.50
     Davidson diagonalization with overlap
     ethr =  6.47E-04,  avg # of iterations =  5.0

     total cpu time spent up to now is        5.6 secs

     total energy              =    -500.47490981 Ry
     estimated scf accuracy    <       3.53334228 Ry

     iteration #  4     ecut=    30.00 Ry     beta= 0.50
     Davidson diagonalization with overlap
     ethr =  6.47E-04,  avg # of iterations =  3.0

     total cpu time spent up to now is        5.7 secs

     total energy              =    -500.72886984 Ry
     estimated scf accuracy    <       0.67876868 Ry

     iteration #  5     ecut=    30.00 Ry     beta= 0.50
     Davidson diagonalization with overlap
     ethr =  2.65E-04,  avg # of iterations =  2.0

     total cpu time spent up to now is        5.8 secs

     total energy              =    -500.76466348 Ry
     estimated scf accuracy    <       0.50733380 Ry

     iteration #  6     ecut=    30.00 Ry     beta= 0.50
     Davidson diagonalization with overlap
     ethr =  1.98E-04,  avg # of iterations =  2.0

     total cpu time spent up to now is        5.9 secs

     total energy              =    -500.81001762 Ry
     estimated scf accuracy    <       0.15211221 Ry

     iteration #  7     ecut=    30.00 Ry     beta= 0.50
     Davidson diagonalization with overlap
     ethr =  5.94E-05,  avg # of iterations =  2.0

     total cpu time spent up to now is        6.0 secs

     total energy              =    -500.82327448 Ry
     estimated scf accuracy    <       0.02163941 Ry

     iteration #  8     ecut=    30.00 Ry     beta= 0.50
     Davidson diagonalization with overlap
     ethr =  8.45E-06,  avg # of iterations = 18.0

     total cpu time spent up to now is        6.2 secs

     total energy              =    -500.82561996 Ry
     estimated scf accuracy    <       0.03435208 Ry

     iteration #  9     ecut=    30.00 Ry     beta= 0.50
     Davidson diagonalization with overlap
     ethr =  8.45E-06,  avg # of iterations =  2.0

     total cpu time spent up to now is        6.3 secs

     total energy              =    -500.82836288 Ry
     estimated scf accuracy    <       0.00295295 Ry

     iteration # 10     ecut=    30.00 Ry     beta= 0.50
     Davidson diagonalization with overlap
     ethr =  1.15E-06,  avg # of iterations =  4.0

     total cpu time spent up to now is        6.4 secs

     total energy              =    -500.82863032 Ry
     estimated scf accuracy    <       0.00250339 Ry

     iteration # 11     ecut=    30.00 Ry     beta= 0.50
     Davidson diagonalization with overlap
     ethr =  9.78E-07,  avg # of iterations =  2.0

     total cpu time spent up to now is        6.5 secs

     total energy              =    -500.82880321 Ry
     estimated scf accuracy    <       0.00107128 Ry

     iteration # 12     ecut=    30.00 Ry     beta= 0.50
     Davidson diagonalization with overlap
     ethr =  4.18E-07,  avg # of iterations =  2.0

     total cpu time spent up to now is        6.6 secs

     total energy              =    -500.82889566 Ry
     estimated scf accuracy    <       0.00038039 Ry

     iteration # 13     ecut=    30.00 Ry     beta= 0.50
     Davidson diagonalization with overlap
     ethr =  1.49E-07,  avg # of iterations =  4.0

     total cpu time spent up to now is        6.7 secs

     total energy              =    -500.82891473 Ry
     estimated scf accuracy    <       0.00054128 Ry

     iteration # 14     ecut=    30.00 Ry     beta= 0.50
     Davidson diagonalization with overlap
     ethr =  1.49E-07,  avg # of iterations =  2.0

     total cpu time spent up to now is        6.8 secs

     total energy              =    -500.82895131 Ry
     estimated scf accuracy    <       0.00002395 Ry

     iteration # 15     ecut=    30.00 Ry     beta= 0.50
     Davidson diagonalization with overlap
     ethr =  9.36E-09,  avg # of iterations =  5.0

     total cpu time spent up to now is        6.9 secs

     total energy              =    -500.82895396 Ry
     estimated scf accuracy    <       0.00002245 Ry

     iteration # 16     ecut=    30.00 Ry     beta= 0.50
     Davidson diagonalization with overlap
     ethr =  8.77E-09,  avg # of iterations =  3.0

     total cpu time spent up to now is        7.0 secs

     total energy              =    -500.82895579 Ry
     estimated scf accuracy    <       0.00003027 Ry

     iteration # 17     ecut=    30.00 Ry     beta= 0.50
     Davidson diagonalization with overlap
     ethr =  8.77E-09,  avg # of iterations =  2.0

     total cpu time spent up to now is        7.1 secs

     total energy              =    -500.82895731 Ry
     estimated scf accuracy    <       0.00000604 Ry

     iteration # 18     ecut=    30.00 Ry     beta= 0.50
     Davidson diagonalization with overlap
     ethr =  2.36E-09,  avg # of iterations =  3.0

     total cpu time spent up to now is        7.2 secs

     total energy              =    -500.82895785 Ry
     estimated scf accuracy    <       0.00000534 Ry

     iteration # 19     ecut=    30.00 Ry     beta= 0.50
     Davidson diagonalization with overlap
     ethr =  2.09E-09,  avg # of iterations =  1.0

     total cpu time spent up to now is        7.3 secs

     End of self-consistent calculation

          k = 0.0000 0.0000 0.0000 ( 11936 PWs)   bands (ev):

    -6.0850  -5.5122  -5.2658  -5.2181  -4.9293  -4.7494  -4.6242  -4.4232
    -4.2066  -4.0903  -3.9681  -3.9159  -3.7907  -3.6767  -3.4812  -3.4222
    -3.3574  -3.2874  -3.2149  -2.9482  -2.8598  -2.8199  -2.5974  -2.4327
    -2.2870  -2.0570  -1.8740  -1.5836  -1.5107  -1.4413  -1.3067  -1.2857
    -1.1766  -1.0046  -0.9602  -0.9292  -0.6858  -0.5330  -0.4614  -0.4271
    -0.3853  -0.2504  -0.1854  -0.0472  -0.0233   0.0552   0.1485   0.2369
     0.3484   0.4376   0.6103   0.7637   0.8541   0.9652   1.1035   1.1283
     1.2395   1.2973   1.3907   1.4336   1.4817   1.5849   1.7619   1.8631
     1.9312   2.0075   2.0976   2.2592   2.2789   2.3311   2.4284   2.5223
     2.6689   2.7305   2.8005   2.8889   3.0121   3.0532   3.1719   3.2092
     3.2495   3.3788   3.4543   3.5508   3.6058   3.8014   3.8905   4.0291
     4.0774   4.1104   4.1504   4.2521   4.3113   4.4211   4.4729   4.5298
     4.5831   4.6682   4.6883   4.7473   4.7997   4.8770   4.9038   4.9568
     5.0049   5.0716   5.1715   5.1920   5.2001   5.2805   5.3636   5.4383
     5.4940   5.6072   5.7184   5.7369   5.8102   5.8224   5.8692   5.8853
     5.9751   6.0336   6.0602   6.1896   6.2093   6.2962   6.3390   6.4081
     6.4984   6.5785   6.6225   6.6420   6.7354   6.8083   6.9172   6.9638
     7.0064   7.0273   7.0764   7.1035   7.1629   7.2186   7.2585   7.2808
     7.3363   7.3929   7.4976   7.5409   7.5767   7.6710   7.7461   7.8778
     7.8825   7.9782

     the Fermi energy is     6.4523 ev

!    total energy              =    -500.82895811 Ry
     estimated scf accuracy    <       0.00000017 Ry
     smearing contrib. (-TS)   =      -0.14095327 Ry
     internal energy E=F+TS    =    -500.68800484 Ry

     The total energy is F=E-TS. E is the sum of the following terms:
     one-electron contribution =     143.61311387 Ry
     hartree contribution      =      39.60784183 Ry
     xc contribution           =    -150.40200190 Ry
     ewald contribution        =    -533.50695864 Ry

     convergence has been achieved in  19 iterations

     Forces acting on atoms (cartesian axes, Ry/au):

     atom    1 type  1   force =    -0.01334423    0.05041564    0.01902093
     atom    2 type  1   force =     0.01002523    0.00783190    0.02116140
     atom    3 type  1   force =     0.03679218    0.10313593    0.04646120
     atom    4 type  1   force =    -0.03330523   -0.02622147    0.02926157
     atom    5 type  1   force =    -0.01231842   -0.00961749   -0.02121568
     atom    6 type  1   force =     0.01359274   -0.00334654    0.01596572
     atom    7 type  1   force =    -0.02662108   -0.00860976   -0.09842940
     atom    8 type  1   force =    -0.02215258   -0.00254699    0.02361908
     atom    9 type  1   force =     0.02622653    0.00335650    0.00902274
     atom   10 type  1   force =     0.02988142   -0.03696679    0.00287259
     atom   11 type  1   force =    -0.05357708    0.05575891   -0.05337402
     atom   12 type  1   force =     0.02661850    0.01934454   -0.02790717
     atom   13 type  1   force =    -0.01296766   -0.01472059    0.02808857
     atom   14 type  1   force =    -0.00465821    0.01640980   -0.00568961
     atom   15 type  1   force =     0.01757005   -0.01636492   -0.00575798
     atom   16 type  1   force =    -0.02796032    0.01185678   -0.00397066
     atom   17 type  1   force =     0.01454360    0.04732229   -0.02553486
     atom   18 type  1   force =    -0.01231788    0.00468558   -0.02170389
     atom   19 type  1   force =    -0.02374985   -0.00376993   -0.01040514
     atom   20 type  1   force =    -0.02863589   -0.04385428   -0.07034536
     atom   21 type  1   force =     0.02161353    0.04586365   -0.00422969
     atom   22 type  1   force =     0.01155684    0.00428765    0.08550236
     atom   23 type  1   force =    -0.04756590   -0.02283423    0.00014818
     atom   24 type  1   force =    -0.03825798   -0.16406110   -0.10783313
     atom   25 type  1   force =    -0.04381619    0.09785281    0.06936056
     atom   26 type  1   force =    -0.03838486    0.02933556    0.01435590
     atom   27 type  1   force =     0.01794216    0.03140505   -0.03731356
     atom   28 type  1   force =    -0.00162236   -0.00313845   -0.02740039
     atom   29 type  1   force =     0.00651713   -0.00589348   -0.00022497
     atom   30 type  1   force =    -0.00151721   -0.00774595    0.01036203
     atom   31 type  1   force =     0.02101230   -0.02565889   -0.01631332
     atom   32 type  1   force =     0.00344379    0.00957097   -0.00733183
     atom   33 type  1   force =    -0.02101605   -0.01913209    0.03298771
     atom   34 type  1   force =     0.04223093    0.05927865    0.07510258
     atom   35 type  1   force =    -0.02169619    0.06633955    0.00056218
     atom   36 type  1   force =     0.03158490    0.00822517    0.00732432
     atom   37 type  1   force =    -0.00784877   -0.02340101   -0.01914661
     atom   38 type  1   force =    -0.04980572    0.01938565    0.06084252
     atom   39 type  1   force =     0.00482440   -0.02209272   -0.03691626
     atom   40 type  1   force =    -0.03387540    0.00857441   -0.01050927
     atom   41 type  1   force =     0.06929853   -0.10453662    0.04952747
     atom   42 type  1   force =    -0.00378074   -0.01933991    0.02801731
     atom   43 type  1   force =     0.02370140   -0.01756441   -0.03017571
     atom   44 type  1   force =    -0.03199868   -0.08835652    0.00771663
     atom   45 type  1   force =    -0.00769243   -0.00899577   -0.02894762
     atom   46 type  1   force =    -0.01631845    0.00646171    0.01542033
     atom   47 type  1   force =    -0.05713875    0.00046200   -0.00912040
     atom   48 type  1   force =     0.01799324   -0.00167387   -0.02372975
     atom   49 type  1   force =     0.02412516   -0.01586636   -0.01301605
     atom   50 type  1   force =     0.04988629   -0.02301771    0.01075517
     atom   51 type  1   force =     0.04613969   -0.00195730   -0.01739692
     atom   52 type  1   force =     0.01087318   -0.03195587    0.02888532
     atom   53 type  1   force =     0.02215026   -0.09449983   -0.03758968
     atom   54 type  1   force =     0.00073738    0.01945007   -0.01618278
     atom   55 type  1   force =    -0.03208444    0.00133930   -0.01148244
     atom   56 type  1   force =    -0.01487985    0.00961469    0.05183189
     atom   57 type  1   force =    -0.00067374   -0.02104491   -0.00535418
     atom   58 type  1   force =    -0.03546214    0.00206433   -0.03169058
     atom   59 type  1   force =     0.07314897   -0.00658556   -0.00336555
     atom   60 type  1   force =     0.04096794   -0.02169442    0.00659356
     atom   61 type  1   force =     0.00516779   -0.01712653    0.00064463
     atom   62 type  1   force =     0.02848653    0.00251316    0.03223583
     atom   63 type  1   force =    -0.01740690    0.05061873   -0.04272571
     atom   64 type  1   force =     0.04579857    0.14143130    0.09867989

     Total force =     0.526856     Total SCF correction =     0.000720


     Computing stress (Cartesian axis) and pressure

          total   stress  (Ry/bohr**3)                   (kbar)     P=      -15.28
  -0.00016315  -0.00001986   0.00001566          -24.00       -2.92        2.30
  -0.00001986  -0.00003978   0.00003702           -2.92       -5.85        5.45
   0.00001566   0.00003702  -0.00010871            2.30        5.45      -15.99

 
     init_run     :      1.08s CPU      4.99s WALL (       1 calls)
     electrons    :      2.07s CPU      2.23s WALL (       1 calls)
     forces       :      0.04s CPU      0.04s WALL (       1 calls)
     stress       :      0.16s CPU      0.16s WALL (       1 calls)

     Called by init_run:
     wfcinit      :      0.54s CPU      4.27s WALL (       1 calls)
                                        4.27s GPU  (       1 calls)
     potinit      :      0.05s CPU      0.15s WALL (       1 calls)
     hinit0       :      0.47s CPU      0.50s WALL (       1 calls)

     Called by electrons:
     c_bands      :      1.23s CPU      1.30s WALL (      20 calls)
     sum_band     :      0.40s CPU      0.45s WALL (      20 calls)
     v_of_rho     :      0.19s CPU      0.30s WALL (      20 calls)
     mix_rho      :      0.20s CPU      0.22s WALL (      20 calls)

     Called by c_bands:
     init_us_2    :      0.07s CPU      0.08s WALL (      41 calls)
     init_us_2:gp :      0.07s CPU      0.07s WALL (      41 calls)
     regterg      :      1.07s CPU      1.13s WALL (      20 calls)

     Called by *egterg:
     rdiaghg      :      0.46s CPU      1.24s WALL (      92 calls)
                                        1.22s GPU  (      92 calls)
     h_psi        :      0.95s CPU      3.94s WALL (      94 calls)
                                        3.94s GPU  (      94 calls)
     g_psi        :      0.00s CPU      0.00s WALL (      73 calls)
                                        0.00s GPU  (      73 calls)

     Called by h_psi:
     h_psi:calbec :      0.50s CPU      3.41s WALL (      94 calls)
                                        3.41s GPU  (      94 calls)
     vloc_psi     :      0.39s CPU      0.47s WALL (      94 calls)
                                        0.46s GPU  (      94 calls)
     add_vuspsi   :      0.04s CPU      0.06s WALL (      94 calls)
                                        0.05s GPU  (      94 calls)

     General routines
     calbec       :      0.50s CPU      3.41s WALL (      99 calls)
     fft          :      0.64s CPU      0.78s WALL (     167 calls)
                                        0.14s GPU  (     106 calls)
     ffts         :      0.05s CPU      0.06s WALL (      20 calls)
     fftw         :      0.48s CPU      0.63s WALL (    2106 calls)
                                        0.55s GPU  (    2106 calls)
 
     Parallel routines
 
     PWSCF        :      3.39s CPU      7.52s WALL

 
   This run was terminated on:  12:19: 2  11May2023            

=------------------------------------------------------------------------------=
   JOB DONE.
=------------------------------------------------------------------------------=
