An instance of this daemon is already running

     Program PWSCF v.7.1 starts on 11May2023 at 12:31:51 

     This program is part of the open-source Quantum ESPRESSO suite
     for quantum simulation of materials; please cite
         "P. Giannozzi et al., J. Phys.:Condens. Matter 21 395502 (2009);
         "P. Giannozzi et al., J. Phys.:Condens. Matter 29 465901 (2017);
         "P. Giannozzi et al., J. Chem. Phys. 152 154105 (2020);
          URL http://www.quantum-espresso.org", 
     in publications or presentations arising from this work. More details at
     http://www.quantum-espresso.org/quote

     Parallel version (MPI & OpenMP), running on       4 processor cores
     Number of MPI processes:                 4
     Threads/MPI process:                     1

     MPI processes distributed on     1 nodes
     696744 MiB available memory on the printing compute node when the environment starts
 
     Reading input from pw-si-79.in
Warning: card &CELL ignored
Warning: card / ignored

     Current dimensions of program PWSCF are:
     Max number of different atomic species (ntypx) = 10
     Max number of k-points (npk) =  40000
     Max angular momentum in pseudopotentials (lmaxx) =  4

     IMPORTANT: XC functional enforced from input :
     Exchange-correlation= PBE
                           (   1   4   3   4   0   0   0)
     Any further DFT definition will be discarded
     Please, verify this is what you really want


     gamma-point specific algorithms are used
 
     K-points division:     npool     =       2
     R & G space division:  proc/nbgrp/npool/nimage =       2
     Subspace diagonalization in iterative solution of the eigenvalue problem:
     a serial algorithm will be used

     Message from routine divide_et_impera:
     suboptimal parallelization: some nodes have no k-points
 
     Parallelization info
     --------------------
     sticks:   dense  smooth     PW     G-vecs:    dense   smooth      PW
     Min        2214    2214    587               110978   110978   15021
     Max        2215    2215    590               110981   110981   15026
     Sum        4429    4429   1177               221959   221959   30047
 
     Using Slab Decomposition
 


     bravais-lattice index     =            0
     lattice parameter (alat)  =      21.5436  a.u.
     unit-cell volume          =    9998.9733 (a.u.)^3
     number of atoms/cell      =           64
     number of atomic types    =            1
     number of electrons       =       256.00
     number of Kohn-Sham states=          154
     kinetic-energy cutoff     =      30.0000  Ry
     charge density cutoff     =     120.0000  Ry
     scf convergence threshold =      1.0E-06
     mixing beta               =       0.5000
     number of iterations used =            8  plain     mixing
     Exchange-correlation= PBE
                           (   1   4   3   4   0   0   0)

     GPU acceleration is ACTIVE.
     GPU-aware MPI enabled

     Message from routine print_cuda_info:
     High GPU oversubscription detected. Are you sure this is what you want?

     celldm(1)=  21.543610  celldm(2)=   0.000000  celldm(3)=   0.000000
     celldm(4)=   0.000000  celldm(5)=   0.000000  celldm(6)=   0.000000

     crystal axes: (cart. coord. in units of alat)
               a(1) = (   1.000000   0.000000   0.000000 )  
               a(2) = (   0.000000   1.000000   0.000000 )  
               a(3) = (   0.000000   0.000000   1.000000 )  

     reciprocal axes: (cart. coord. in units 2 pi/alat)
               b(1) = (  1.000000  0.000000  0.000000 )  
               b(2) = (  0.000000  1.000000  0.000000 )  
               b(3) = (  0.000000  0.000000  1.000000 )  


     PseudoPot. # 1 for Si read from file:
     /home/ppiaggi/pseudos/Si_ONCV_PBE_sr.upf
     MD5 check sum: 8553c464762ac42b85b1eed164b4d029
     Pseudo is Norm-conserving, Zval =  4.0
     Generated using ONCVPSP code by D. R. Hamann
     Using radial grid of 1510 points,  4 beta functions with: 
                l(1) =   0
                l(2) =   0
                l(3) =   1
                l(4) =   1

     atomic species   valence    mass     pseudopotential
        Si             4.00    28.08500     Si( 1.00)

     No symmetry found



   Cartesian axes

     site n.     atom                  positions (alat units)
         1           Si  tau(   1) = (   0.8751200   0.5231720   0.6867470  )
         2           Si  tau(   2) = (   0.8108530   0.4667080   0.1338330  )
         3           Si  tau(   3) = (   0.7742960   0.9069170   0.3938810  )
         4           Si  tau(   4) = (   0.7257110   0.5320430   0.3291020  )
         5           Si  tau(   5) = (   0.0019317   0.2408650   0.6311750  )
         6           Si  tau(   6) = (   0.2844310   0.4793060   0.8033790  )
         7           Si  tau(   7) = (   0.9287220   0.1726150   0.1650890  )
         8           Si  tau(   8) = (   0.2491640   0.8017420   0.0341977  )
         9           Si  tau(   9) = (   0.6464590   0.8690110   0.1266360  )
        10           Si  tau(  10) = (   0.2914260   0.0012877   0.9641970  )
        11           Si  tau(  11) = (   0.9632990   0.1509660   0.8525710  )
        12           Si  tau(  12) = (   0.1521360   0.6619420   0.8951590  )
        13           Si  tau(  13) = (   0.5827190   0.4104800   0.7614910  )
        14           Si  tau(  14) = (   0.8888580   0.3007360   0.3064020  )
        15           Si  tau(  15) = (   0.5938860   0.1487950   0.9056150  )
        16           Si  tau(  16) = (   0.8264710   0.3219200   0.5667350  )
        17           Si  tau(  17) = (   0.5069370   0.9904680   0.0693865  )
        18           Si  tau(  18) = (   0.7267730   0.2390630   0.7717890  )
        19           Si  tau(  19) = (   0.6696920   0.9196970   0.5930680  )
        20           Si  tau(  20) = (   0.3174280   0.1037020   0.7706730  )
        21           Si  tau(  21) = (   0.4375260   0.0019571   0.6538800  )
        22           Si  tau(  22) = (   0.8429520   0.7129940   0.5542310  )
        23           Si  tau(  23) = (   0.4721600   0.8362280   0.5237320  )
        24           Si  tau(  24) = (   0.3374160   0.4179210   0.0878482  )
        25           Si  tau(  25) = (   0.2179900   0.5489120   0.2462790  )
        26           Si  tau(  26) = (   0.1371530   0.2441080   0.1146370  )
        27           Si  tau(  27) = (   0.9596150   0.9972880   0.0021869  )
        28           Si  tau(  28) = (   0.6083010   0.0561414   0.2735430  )
        29           Si  tau(  29) = (   0.4897830   0.6359270   0.0972400  )
        30           Si  tau(  30) = (   0.6988890   0.1987040   0.3914590  )
        31           Si  tau(  31) = (   0.2708650   0.3566120   0.6322780  )
        32           Si  tau(  32) = (   0.2645600   0.3165610   0.2789120  )
        33           Si  tau(  33) = (   0.1496900   0.9032080   0.5552190  )
        34           Si  tau(  34) = (   0.5363320   0.3393000   0.9978510  )
        35           Si  tau(  35) = (   0.9766330   0.7546760   0.9729900  )
        36           Si  tau(  36) = (   0.4290180   0.2784120   0.7976250  )
        37           Si  tau(  37) = (   0.3387260   0.5836880   0.9490960  )
        38           Si  tau(  38) = (   0.9669790   0.8414670   0.2794140  )
        39           Si  tau(  39) = (   0.4626290   0.8101940   0.7501670  )
        40           Si  tau(  40) = (   0.0946968   0.4268450   0.3901180  )
        41           Si  tau(  41) = (   0.1851990   0.7864150   0.4003260  )
        42           Si  tau(  42) = (   0.8376080   0.4088030   0.8849490  )
        43           Si  tau(  43) = (   0.0958063   0.7441040   0.1591750  )
        44           Si  tau(  44) = (   0.2697740   0.6114750   0.4418240  )
        45           Si  tau(  45) = (   0.1329350   0.5425770   0.6371730  )
        46           Si  tau(  46) = (   0.2655630   0.7697320   0.6812780  )
        47           Si  tau(  47) = (   0.4478720   0.6188010   0.7602580  )
        48           Si  tau(  48) = (   0.1778050   0.2714070   0.4810980  )
        49           Si  tau(  49) = (   0.7244180   0.2544460   0.0672083  )
        50           Si  tau(  50) = (   0.6575120   0.7447220   0.3721310  )
        51           Si  tau(  51) = (   0.9050130   0.5062820   0.4722470  )
        52           Si  tau(  52) = (   0.0611898   0.1115910   0.5019390  )
        53           Si  tau(  53) = (   0.3873210   0.4445050   0.4351550  )
        54           Si  tau(  54) = (   0.0249979   0.5152270   0.2170620  )
        55           Si  tau(  55) = (   0.5772280   0.3482890   0.2645430  )
        56           Si  tau(  56) = (   0.9862360   0.3091820   0.9955280  )
        57           Si  tau(  57) = (   0.4482370   0.5974090   0.2988360  )
        58           Si  tau(  58) = (   0.0634484   0.7453640   0.7205190  )
        59           Si  tau(  59) = (   0.7135750   0.6494510   0.1453960  )
        60           Si  tau(  60) = (   0.0203998   0.6779110   0.4601600  )
        61           Si  tau(  61) = (   0.8057930   0.0158864   0.1461840  )
        62           Si  tau(  62) = (   0.1064000   0.9472280   0.8726290  )
        63           Si  tau(  63) = (   0.6002160   0.5191920   0.9741420  )
        64           Si  tau(  64) = (   0.4294510   0.8163360   0.3182990  )

     number of k points=     1  Fermi-Dirac smearing, width (Ry)=  0.0100
                       cart. coord. in units 2pi/alat
        k(    1) = (   0.0000000   0.0000000   0.0000000), wk =   2.0000000

     Dense  grid:   110980 G-vectors     FFT dimensions: (  75,  75,  75)

     Estimated max dynamical RAM per process >     176.46 MB

     Estimated total dynamical RAM >     678.73 MB

     Initial potential from superposition of free atoms

     starting charge     255.9608, renormalised to     256.0000
     Starting wfcs are  256 randomized atomic wfcs

     total cpu time spent up to now is        4.7 secs

     Self-consistent Calculation

     iteration #  1     ecut=    30.00 Ry     beta= 0.50
     Davidson diagonalization with overlap
     ethr =  1.00E-02,  avg # of iterations =  3.0

     Threshold (ethr) on eigenvalues was too large:
     Diagonalizing with lowered threshold

     Davidson diagonalization with overlap
     ethr =  6.29E-04,  avg # of iterations =  4.0

     total cpu time spent up to now is        5.1 secs

     total energy              =    -499.90690879 Ry
     estimated scf accuracy    <       2.18795264 Ry

     iteration #  2     ecut=    30.00 Ry     beta= 0.50
     Davidson diagonalization with overlap
     ethr =  8.55E-04,  avg # of iterations =  5.0

     total cpu time spent up to now is        5.2 secs

     total energy              =    -498.74166523 Ry
     estimated scf accuracy    <      17.60291176 Ry

     iteration #  3     ecut=    30.00 Ry     beta= 0.50
     Davidson diagonalization with overlap
     ethr =  8.55E-04,  avg # of iterations =  4.0

     total cpu time spent up to now is        5.4 secs

     total energy              =    -500.28290433 Ry
     estimated scf accuracy    <       3.40753350 Ry

     iteration #  4     ecut=    30.00 Ry     beta= 0.50
     Davidson diagonalization with overlap
     ethr =  8.55E-04,  avg # of iterations =  2.0

     total cpu time spent up to now is        5.5 secs

     total energy              =    -500.54801872 Ry
     estimated scf accuracy    <       0.57003989 Ry

     iteration #  5     ecut=    30.00 Ry     beta= 0.50
     Davidson diagonalization with overlap
     ethr =  2.23E-04,  avg # of iterations =  2.0

     total cpu time spent up to now is        5.6 secs

     total energy              =    -500.56604705 Ry
     estimated scf accuracy    <       0.71982292 Ry

     iteration #  6     ecut=    30.00 Ry     beta= 0.50
     Davidson diagonalization with overlap
     ethr =  2.23E-04,  avg # of iterations =  2.0

     total cpu time spent up to now is        5.7 secs

     total energy              =    -500.62315181 Ry
     estimated scf accuracy    <       0.13443100 Ry

     iteration #  7     ecut=    30.00 Ry     beta= 0.50
     Davidson diagonalization with overlap
     ethr =  5.25E-05,  avg # of iterations =  2.0

     total cpu time spent up to now is        5.8 secs

     total energy              =    -500.63477186 Ry
     estimated scf accuracy    <       0.05471048 Ry

     iteration #  8     ecut=    30.00 Ry     beta= 0.50
     Davidson diagonalization with overlap
     ethr =  2.14E-05,  avg # of iterations =  3.0

     total cpu time spent up to now is        6.0 secs

     total energy              =    -500.63958576 Ry
     estimated scf accuracy    <       0.05300881 Ry

     iteration #  9     ecut=    30.00 Ry     beta= 0.50
     Davidson diagonalization with overlap
     ethr =  2.07E-05,  avg # of iterations =  2.0

     total cpu time spent up to now is        6.1 secs

     total energy              =    -500.64339725 Ry
     estimated scf accuracy    <       0.00297428 Ry

     iteration # 10     ecut=    30.00 Ry     beta= 0.50
     Davidson diagonalization with overlap
     c_bands:  1 eigenvalues not converged
     ethr =  1.16E-06,  avg # of iterations = 20.0

     total cpu time spent up to now is        6.3 secs

     total energy              =    -500.64356741 Ry
     estimated scf accuracy    <       0.00768082 Ry

     iteration # 11     ecut=    30.00 Ry     beta= 0.50
     Davidson diagonalization with overlap
     ethr =  1.16E-06,  avg # of iterations = 11.0

     total cpu time spent up to now is        6.5 secs

     total energy              =    -500.64411595 Ry
     estimated scf accuracy    <       0.00116702 Ry

     iteration # 12     ecut=    30.00 Ry     beta= 0.50
     Davidson diagonalization with overlap
     ethr =  4.56E-07,  avg # of iterations =  3.0

     total cpu time spent up to now is        6.7 secs

     total energy              =    -500.64418107 Ry
     estimated scf accuracy    <       0.00097842 Ry

     iteration # 13     ecut=    30.00 Ry     beta= 0.50
     Davidson diagonalization with overlap
     ethr =  3.82E-07,  avg # of iterations =  2.0

     total cpu time spent up to now is        6.8 secs

     total energy              =    -500.64425843 Ry
     estimated scf accuracy    <       0.00044049 Ry

     iteration # 14     ecut=    30.00 Ry     beta= 0.50
     Davidson diagonalization with overlap
     ethr =  1.72E-07,  avg # of iterations =  2.0

     total cpu time spent up to now is        6.9 secs

     total energy              =    -500.64429333 Ry
     estimated scf accuracy    <       0.00005547 Ry

     iteration # 15     ecut=    30.00 Ry     beta= 0.50
     Davidson diagonalization with overlap
     ethr =  2.17E-08,  avg # of iterations =  3.0

     total cpu time spent up to now is        7.0 secs

     total energy              =    -500.64429909 Ry
     estimated scf accuracy    <       0.00006004 Ry

     iteration # 16     ecut=    30.00 Ry     beta= 0.50
     Davidson diagonalization with overlap
     ethr =  2.17E-08,  avg # of iterations =  2.0

     total cpu time spent up to now is        7.2 secs

     total energy              =    -500.64430328 Ry
     estimated scf accuracy    <       0.00003838 Ry

     iteration # 17     ecut=    30.00 Ry     beta= 0.50
     Davidson diagonalization with overlap
     ethr =  1.50E-08,  avg # of iterations =  2.0

     total cpu time spent up to now is        7.3 secs

     total energy              =    -500.64430498 Ry
     estimated scf accuracy    <       0.00001085 Ry

     iteration # 18     ecut=    30.00 Ry     beta= 0.50
     Davidson diagonalization with overlap
     ethr =  4.24E-09,  avg # of iterations =  3.0

     total cpu time spent up to now is        7.4 secs

     total energy              =    -500.64430639 Ry
     estimated scf accuracy    <       0.00000942 Ry

     iteration # 19     ecut=    30.00 Ry     beta= 0.50
     Davidson diagonalization with overlap
     ethr =  3.68E-09,  avg # of iterations =  1.0

     total cpu time spent up to now is        7.5 secs

     total energy              =    -500.64430680 Ry
     estimated scf accuracy    <       0.00000170 Ry

     iteration # 20     ecut=    30.00 Ry     beta= 0.50
     Davidson diagonalization with overlap
     ethr =  6.62E-10,  avg # of iterations =  3.0

     total cpu time spent up to now is        7.7 secs

     total energy              =    -500.64430698 Ry
     estimated scf accuracy    <       0.00000135 Ry

     iteration # 21     ecut=    30.00 Ry     beta= 0.50
     Davidson diagonalization with overlap
     ethr =  5.29E-10,  avg # of iterations =  2.0

     total cpu time spent up to now is        7.8 secs

     End of self-consistent calculation

          k = 0.0000 0.0000 0.0000 ( 13817 PWs)   bands (ev):

    -7.5946  -7.0300  -6.7010  -6.4643  -6.2959  -6.2469  -6.0517  -5.9294
    -5.6573  -5.5676  -5.4448  -5.1814  -5.0376  -4.9615  -4.8629  -4.7529
    -4.5910  -4.5352  -4.2622  -4.1089  -4.0471  -3.9684  -3.8643  -3.6871
    -3.5270  -3.3632  -3.3298  -3.2204  -2.9978  -2.8914  -2.8166  -2.6147
    -2.4696  -2.2889  -2.2281  -2.1899  -2.0895  -2.0147  -1.9191  -1.7891
    -1.7275  -1.6780  -1.5227  -1.4101  -1.3205  -1.2833  -1.1859  -1.1823
    -0.9691  -0.7932  -0.7474  -0.6401  -0.4866  -0.4506  -0.3058  -0.1818
    -0.0753   0.1321   0.1758   0.2942   0.4115   0.5329   0.5790   0.6293
     0.7502   0.8999   0.9461   1.0231   1.1479   1.2270   1.3036   1.4323
     1.4682   1.5233   1.6047   1.6494   1.7295   1.7880   1.8372   1.8602
     1.8869   1.9254   2.1108   2.1652   2.2116   2.3034   2.3993   2.4637
     2.5114   2.5594   2.6824   2.7811   2.7979   2.9022   2.9314   3.0022
     3.0476   3.1130   3.1777   3.2169   3.2414   3.3513   3.4287   3.4619
     3.5070   3.6056   3.6557   3.7057   3.7335   3.8221   3.9283   3.9481
     4.0272   4.0837   4.1430   4.1746   4.2334   4.3079   4.3379   4.3697
     4.4621   4.4803   4.6561   4.6980   4.7895   4.8151   4.8864   4.9044
     4.9562   5.0971   5.1371   5.1771   5.2165   5.2533   5.3365   5.3587
     5.4521   5.5089   5.5638   5.6080   5.6703   5.7329   5.8055   5.8791
     5.9339   5.9905   6.0570   6.1684   6.1997   6.3370   6.3596   6.4922
     6.5067   6.5357

     the Fermi energy is     4.9594 ev

!    total energy              =    -500.64430681 Ry
     estimated scf accuracy    <       0.00000044 Ry
     smearing contrib. (-TS)   =      -0.14931355 Ry
     internal energy E=F+TS    =    -500.49499326 Ry

     The total energy is F=E-TS. E is the sum of the following terms:
     one-electron contribution =      -7.95245854 Ry
     hartree contribution      =     101.47355574 Ry
     xc contribution           =    -148.98017971 Ry
     ewald contribution        =    -445.03591075 Ry

     convergence has been achieved in  21 iterations

     Forces acting on atoms (cartesian axes, Ry/au):

     atom    1 type  1   force =     0.02126427    0.00323835   -0.00206541
     atom    2 type  1   force =     0.01987543   -0.03816651    0.00514918
     atom    3 type  1   force =     0.01137190    0.02504623   -0.01035987
     atom    4 type  1   force =    -0.01639172   -0.00368818    0.00417276
     atom    5 type  1   force =     0.00379967    0.01911507    0.07599190
     atom    6 type  1   force =    -0.03573239   -0.06889445   -0.09301672
     atom    7 type  1   force =     0.04119974   -0.00264265   -0.04806695
     atom    8 type  1   force =     0.00838420   -0.01133900   -0.02450524
     atom    9 type  1   force =     0.04622515   -0.07264064    0.04133615
     atom   10 type  1   force =     0.01111104    0.00937299    0.00818577
     atom   11 type  1   force =     0.00096971    0.01449650   -0.03583775
     atom   12 type  1   force =    -0.01109131    0.02758516   -0.00579105
     atom   13 type  1   force =     0.01682163    0.03215020    0.01401515
     atom   14 type  1   force =    -0.03017830    0.04970696    0.04979152
     atom   15 type  1   force =    -0.01020660   -0.01164893    0.02827469
     atom   16 type  1   force =    -0.02667565   -0.00641773    0.00568697
     atom   17 type  1   force =    -0.04165012    0.06733722   -0.02331699
     atom   18 type  1   force =     0.04213836    0.03260584   -0.00508884
     atom   19 type  1   force =    -0.02671108   -0.01092061   -0.01240963
     atom   20 type  1   force =    -0.04076047    0.02053551    0.03003023
     atom   21 type  1   force =     0.05406490   -0.04530540   -0.02548001
     atom   22 type  1   force =    -0.02787486   -0.00210172    0.02015749
     atom   23 type  1   force =     0.02561288    0.01327117    0.00649149
     atom   24 type  1   force =     0.00884951   -0.00730793    0.01828270
     atom   25 type  1   force =     0.06025432   -0.01021150   -0.01371215
     atom   26 type  1   force =     0.01868028   -0.01100058    0.00247809
     atom   27 type  1   force =    -0.02635469   -0.00567594    0.01478233
     atom   28 type  1   force =     0.01227182   -0.02995493   -0.02486649
     atom   29 type  1   force =    -0.01441181    0.02126469    0.01435647
     atom   30 type  1   force =     0.02567497    0.05394012   -0.00992467
     atom   31 type  1   force =     0.02327328    0.01244711    0.01458718
     atom   32 type  1   force =     0.01861740    0.02698006    0.00130435
     atom   33 type  1   force =    -0.01461471    0.04137920    0.05019645
     atom   34 type  1   force =    -0.06676967   -0.05207327    0.01694176
     atom   35 type  1   force =     0.02126056    0.02019176    0.01311173
     atom   36 type  1   force =    -0.02685974    0.01016420    0.01067399
     atom   37 type  1   force =     0.05710881    0.06633716    0.11143473
     atom   38 type  1   force =    -0.01764331    0.00995270    0.04287549
     atom   39 type  1   force =     0.00619451    0.07216535   -0.01246038
     atom   40 type  1   force =    -0.03279368    0.01681756    0.00707443
     atom   41 type  1   force =    -0.00912476    0.02405040   -0.06928773
     atom   42 type  1   force =    -0.03546336   -0.00296758    0.00699626
     atom   43 type  1   force =     0.00697372   -0.02865135   -0.00255127
     atom   44 type  1   force =    -0.01162625   -0.00995830    0.03882663
     atom   45 type  1   force =    -0.01410760    0.01513422   -0.00612700
     atom   46 type  1   force =     0.01817278   -0.01706150   -0.01213874
     atom   47 type  1   force =    -0.00143704   -0.08618095    0.01448695
     atom   48 type  1   force =     0.00473868   -0.03303923   -0.02225518
     atom   49 type  1   force =     0.02060055    0.00709997    0.01174992
     atom   50 type  1   force =    -0.03120374   -0.04487780   -0.01038346
     atom   51 type  1   force =    -0.02290080   -0.01698883   -0.02220089
     atom   52 type  1   force =     0.00185159   -0.10137461   -0.03939077
     atom   53 type  1   force =     0.00655917   -0.02937391   -0.00934394
     atom   54 type  1   force =    -0.08182671    0.00906379   -0.04487183
     atom   55 type  1   force =     0.02913821    0.01212313    0.01347059
     atom   56 type  1   force =    -0.02276670   -0.02031121   -0.01546118
     atom   57 type  1   force =     0.01145968    0.00235373    0.00142601
     atom   58 type  1   force =    -0.02243709    0.00539293   -0.01642774
     atom   59 type  1   force =    -0.01741631    0.03577051   -0.00825265
     atom   60 type  1   force =     0.00304157    0.02571595   -0.00891096
     atom   61 type  1   force =    -0.01817495   -0.03111587    0.01773912
     atom   62 type  1   force =     0.01216405   -0.01456248   -0.02967052
     atom   63 type  1   force =     0.07079111    0.04007334   -0.05092866
     atom   64 type  1   force =     0.01468995   -0.01642550    0.00302620

     Total force =     0.439619     Total SCF correction =     0.001182


     Computing stress (Cartesian axis) and pressure

          total   stress  (Ry/bohr**3)                   (kbar)     P=      -24.38
  -0.00022556   0.00001437  -0.00004023          -33.18        2.11       -5.92
   0.00001437  -0.00013121   0.00008906            2.11      -19.30       13.10
  -0.00004023   0.00008906  -0.00014035           -5.92       13.10      -20.65

 
     init_run     :      0.79s CPU      4.64s WALL (       1 calls)
     electrons    :      2.84s CPU      3.05s WALL (       1 calls)
     forces       :      0.04s CPU      0.05s WALL (       1 calls)
     stress       :      0.18s CPU      0.19s WALL (       1 calls)

     Called by init_run:
     wfcinit      :      0.58s CPU      4.25s WALL (       1 calls)
                                        4.25s GPU  (       1 calls)
     potinit      :      0.05s CPU      0.14s WALL (       1 calls)
     hinit0       :      0.14s CPU      0.17s WALL (       1 calls)

     Called by electrons:
     c_bands      :      1.69s CPU      1.77s WALL (      22 calls)
     sum_band     :      0.57s CPU      0.64s WALL (      22 calls)
     v_of_rho     :      0.26s CPU      0.36s WALL (      22 calls)
     mix_rho      :      0.27s CPU      0.29s WALL (      22 calls)

     Called by c_bands:
     init_us_2    :      0.08s CPU      0.08s WALL (      45 calls)
     init_us_2:gp :      0.08s CPU      0.08s WALL (      45 calls)
     regterg      :      1.48s CPU      1.55s WALL (      22 calls)

     Called by *egterg:
     rdiaghg      :      0.46s CPU      1.23s WALL (     104 calls)
                                        1.21s GPU  (     104 calls)
     h_psi        :      1.36s CPU      4.32s WALL (     106 calls)
                                        4.32s GPU  (     106 calls)
     g_psi        :      0.00s CPU      0.01s WALL (      83 calls)
                                        0.00s GPU  (      83 calls)

     Called by h_psi:
     h_psi:calbec :      0.54s CPU      3.41s WALL (     106 calls)
                                        3.41s GPU  (     106 calls)
     vloc_psi     :      0.75s CPU      0.83s WALL (     106 calls)
                                        0.83s GPU  (     106 calls)
     add_vuspsi   :      0.04s CPU      0.06s WALL (     106 calls)
                                        0.06s GPU  (     106 calls)

     General routines
     calbec       :      0.55s CPU      3.42s WALL (     111 calls)
     fft          :      0.40s CPU      0.53s WALL (     183 calls)
                                        0.13s GPU  (     116 calls)
     ffts         :      0.09s CPU      0.09s WALL (      22 calls)
     fftw         :      0.81s CPU      1.06s WALL (    2326 calls)
                                        0.95s GPU  (    2326 calls)
 
     Parallel routines
 
     PWSCF        :      3.90s CPU      8.01s WALL

 
   This run was terminated on:  12:31:59  11May2023            

=------------------------------------------------------------------------------=
   JOB DONE.
=------------------------------------------------------------------------------=
