An instance of this daemon is already running

     Program PWSCF v.7.1 starts on 11May2023 at 12:28:18 

     This program is part of the open-source Quantum ESPRESSO suite
     for quantum simulation of materials; please cite
         "P. Giannozzi et al., J. Phys.:Condens. Matter 21 395502 (2009);
         "P. Giannozzi et al., J. Phys.:Condens. Matter 29 465901 (2017);
         "P. Giannozzi et al., J. Chem. Phys. 152 154105 (2020);
          URL http://www.quantum-espresso.org", 
     in publications or presentations arising from this work. More details at
     http://www.quantum-espresso.org/quote

     Parallel version (MPI & OpenMP), running on       4 processor cores
     Number of MPI processes:                 4
     Threads/MPI process:                     1

     MPI processes distributed on     1 nodes
     696759 MiB available memory on the printing compute node when the environment starts
 
     Reading input from pw-si-58.in
Warning: card &CELL ignored
Warning: card / ignored

     Current dimensions of program PWSCF are:
     Max number of different atomic species (ntypx) = 10
     Max number of k-points (npk) =  40000
     Max angular momentum in pseudopotentials (lmaxx) =  4

     IMPORTANT: XC functional enforced from input :
     Exchange-correlation= PBE
                           (   1   4   3   4   0   0   0)
     Any further DFT definition will be discarded
     Please, verify this is what you really want


     gamma-point specific algorithms are used
 
     K-points division:     npool     =       2
     R & G space division:  proc/nbgrp/npool/nimage =       2
     Subspace diagonalization in iterative solution of the eigenvalue problem:
     a serial algorithm will be used

     Message from routine divide_et_impera:
     suboptimal parallelization: some nodes have no k-points
 
     Parallelization info
     --------------------
     sticks:   dense  smooth     PW     G-vecs:    dense   smooth      PW
     Min        2140    2140    558               105456   105456   14210
     Max        2141    2141    559               105457   105457   14215
     Sum        4281    4281   1117               210913   210913   28425
 
     Using Slab Decomposition
 


     bravais-lattice index     =            0
     lattice parameter (alat)  =      21.1831  a.u.
     unit-cell volume          =    9505.3396 (a.u.)^3
     number of atoms/cell      =           64
     number of atomic types    =            1
     number of electrons       =       256.00
     number of Kohn-Sham states=          154
     kinetic-energy cutoff     =      30.0000  Ry
     charge density cutoff     =     120.0000  Ry
     scf convergence threshold =      1.0E-06
     mixing beta               =       0.5000
     number of iterations used =            8  plain     mixing
     Exchange-correlation= PBE
                           (   1   4   3   4   0   0   0)

     GPU acceleration is ACTIVE.
     GPU-aware MPI enabled

     Message from routine print_cuda_info:
     High GPU oversubscription detected. Are you sure this is what you want?

     celldm(1)=  21.183085  celldm(2)=   0.000000  celldm(3)=   0.000000
     celldm(4)=   0.000000  celldm(5)=   0.000000  celldm(6)=   0.000000

     crystal axes: (cart. coord. in units of alat)
               a(1) = (   1.000000   0.000000   0.000000 )  
               a(2) = (   0.000000   1.000000   0.000000 )  
               a(3) = (   0.000000   0.000000   1.000000 )  

     reciprocal axes: (cart. coord. in units 2 pi/alat)
               b(1) = (  1.000000  0.000000  0.000000 )  
               b(2) = (  0.000000  1.000000  0.000000 )  
               b(3) = (  0.000000  0.000000  1.000000 )  


     PseudoPot. # 1 for Si read from file:
     /home/ppiaggi/pseudos/Si_ONCV_PBE_sr.upf
     MD5 check sum: 8553c464762ac42b85b1eed164b4d029
     Pseudo is Norm-conserving, Zval =  4.0
     Generated using ONCVPSP code by D. R. Hamann
     Using radial grid of 1510 points,  4 beta functions with: 
                l(1) =   0
                l(2) =   0
                l(3) =   1
                l(4) =   1

     atomic species   valence    mass     pseudopotential
        Si             4.00    28.08500     Si( 1.00)

     No symmetry found



   Cartesian axes

     site n.     atom                  positions (alat units)
         1           Si  tau(   1) = (   0.5820890   0.7032310   0.5685750  )
         2           Si  tau(   2) = (   0.8433510   0.3514630   0.1766740  )
         3           Si  tau(   3) = (   0.8451700   0.9330010   0.5121280  )
         4           Si  tau(   4) = (   0.7414090   0.5071680   0.3540560  )
         5           Si  tau(   5) = (   0.1134730   0.1522790   0.6008490  )
         6           Si  tau(   6) = (   0.3346870   0.4919490   0.8565730  )
         7           Si  tau(   7) = (   0.9060970   0.1906790   0.3110460  )
         8           Si  tau(   8) = (   0.2684650   0.7951140   0.0391678  )
         9           Si  tau(   9) = (   0.6271020   0.9158030   0.0038633  )
        10           Si  tau(  10) = (   0.3064010   0.9439900   0.9004030  )
        11           Si  tau(  11) = (   0.8804560   0.1212040   0.7364110  )
        12           Si  tau(  12) = (   0.1188580   0.6600300   0.9385490  )
        13           Si  tau(  13) = (   0.6534160   0.4310840   0.7970590  )
        14           Si  tau(  14) = (   0.8431510   0.3367710   0.5028980  )
        15           Si  tau(  15) = (   0.6525040   0.0310862   0.8513840  )
        16           Si  tau(  16) = (   0.6440490   0.0589802   0.5158670  )
        17           Si  tau(  17) = (   0.4357220   0.9996800   0.0691038  )
        18           Si  tau(  18) = (   0.7144690   0.2079970   0.6941250  )
        19           Si  tau(  19) = (   0.5441510   0.9404830   0.6428230  )
        20           Si  tau(  20) = (   0.4229660   0.0657299   0.7323540  )
        21           Si  tau(  21) = (   0.4489470   0.1183700   0.5021770  )
        22           Si  tau(  22) = (   0.7582430   0.9225170   0.7312240  )
        23           Si  tau(  23) = (   0.5034260   0.7859520   0.3764790  )
        24           Si  tau(  24) = (   0.4904280   0.4216010   0.0759841  )
        25           Si  tau(  25) = (   0.3308060   0.4667880   0.2998000  )
        26           Si  tau(  26) = (   0.0614952   0.1896120   0.0947352  )
        27           Si  tau(  27) = (   0.0290176   0.0249073   0.9528760  )
        28           Si  tau(  28) = (   0.6182430   0.0356554   0.1865260  )
        29           Si  tau(  29) = (   0.5715860   0.6347330   0.2295540  )
        30           Si  tau(  30) = (   0.6121540   0.1991150   0.3399730  )
        31           Si  tau(  31) = (   0.3322500   0.4633200   0.6454390  )
        32           Si  tau(  32) = (   0.1566980   0.3152810   0.2888830  )
        33           Si  tau(  33) = (   0.2981220   0.9249170   0.5858850  )
        34           Si  tau(  34) = (   0.5076940   0.2020410   0.0204631  )
        35           Si  tau(  35) = (   0.9885090   0.8196610   0.8425220  )
        36           Si  tau(  36) = (   0.4963600   0.2980380   0.8408510  )
        37           Si  tau(  37) = (   0.4542530   0.6279350   0.0539205  )
        38           Si  tau(  38) = (   0.9584330   0.8703000   0.3245360  )
        39           Si  tau(  39) = (   0.3901150   0.7745460   0.6984050  )
        40           Si  tau(  40) = (   0.0371079   0.4989810   0.4302750  )
        41           Si  tau(  41) = (   0.1326750   0.8470300   0.4918100  )
        42           Si  tau(  42) = (   0.8037140   0.4603970   0.9446980  )
        43           Si  tau(  43) = (   0.0013010   0.8182820   0.0669790  )
        44           Si  tau(  44) = (   0.1909610   0.6408350   0.4066210  )
        45           Si  tau(  45) = (   0.1249300   0.5025020   0.7301350  )
        46           Si  tau(  46) = (   0.1886860   0.7119090   0.6847550  )
        47           Si  tau(  47) = (   0.5230660   0.6187660   0.8179630  )
        48           Si  tau(  48) = (   0.2835100   0.2637580   0.4793960  )
        49           Si  tau(  49) = (   0.7369930   0.1434760   0.0275857  )
        50           Si  tau(  50) = (   0.7658170   0.7422550   0.3702350  )
        51           Si  tau(  51) = (   0.8632310   0.5630680   0.5636180  )
        52           Si  tau(  52) = (   0.9573570   0.0897989   0.4952030  )
        53           Si  tau(  53) = (   0.4070910   0.2755490   0.2920500  )
        54           Si  tau(  54) = (   0.0462140   0.5982140   0.2346560  )
        55           Si  tau(  55) = (   0.5984910   0.3916940   0.2544290  )
        56           Si  tau(  56) = (   0.8914640   0.2520100   0.9350140  )
        57           Si  tau(  57) = (   0.5485990   0.5311840   0.4362090  )
        58           Si  tau(  58) = (   0.9785830   0.8320070   0.6211290  )
        59           Si  tau(  59) = (   0.7201210   0.7486640   0.1410370  )
        60           Si  tau(  60) = (   0.9536190   0.6888380   0.4170100  )
        61           Si  tau(  61) = (   0.8327710   0.0173644   0.2128270  )
        62           Si  tau(  62) = (   0.1544310   0.9686820   0.7603730  )
        63           Si  tau(  63) = (   0.8831300   0.6536770   0.0527604  )
        64           Si  tau(  64) = (   0.3235990   0.6669630   0.2569870  )

     number of k points=     1  Fermi-Dirac smearing, width (Ry)=  0.0100
                       cart. coord. in units 2pi/alat
        k(    1) = (   0.0000000   0.0000000   0.0000000), wk =   2.0000000

     Dense  grid:   105457 G-vectors     FFT dimensions: (  75,  75,  75)

     Estimated max dynamical RAM per process >     168.62 MB

     Estimated total dynamical RAM >     648.72 MB

     Initial potential from superposition of free atoms

     starting charge     255.9608, renormalised to     256.0000
     Starting wfcs are  256 randomized atomic wfcs

     total cpu time spent up to now is        4.6 secs

     Self-consistent Calculation

     iteration #  1     ecut=    30.00 Ry     beta= 0.50
     Davidson diagonalization with overlap
     ethr =  1.00E-02,  avg # of iterations =  3.0

     Threshold (ethr) on eigenvalues was too large:
     Diagonalizing with lowered threshold

     Davidson diagonalization with overlap
     ethr =  7.62E-04,  avg # of iterations =  4.0

     total cpu time spent up to now is        4.9 secs

     total energy              =    -499.80657355 Ry
     estimated scf accuracy    <       2.50119350 Ry

     iteration #  2     ecut=    30.00 Ry     beta= 0.50
     Davidson diagonalization with overlap
     ethr =  9.77E-04,  avg # of iterations =  6.0

     total cpu time spent up to now is        5.0 secs

     total energy              =    -498.44088200 Ry
     estimated scf accuracy    <      22.56473530 Ry

     iteration #  3     ecut=    30.00 Ry     beta= 0.50
     Davidson diagonalization with overlap
     ethr =  9.77E-04,  avg # of iterations =  4.0

     total cpu time spent up to now is        5.2 secs

     total energy              =    -500.37938355 Ry
     estimated scf accuracy    <       3.11294458 Ry

     iteration #  4     ecut=    30.00 Ry     beta= 0.50
     Davidson diagonalization with overlap
     ethr =  9.77E-04,  avg # of iterations =  2.0

     total cpu time spent up to now is        5.3 secs

     total energy              =    -500.61296228 Ry
     estimated scf accuracy    <       1.02115050 Ry

     iteration #  5     ecut=    30.00 Ry     beta= 0.50
     Davidson diagonalization with overlap
     ethr =  3.99E-04,  avg # of iterations =  2.0

     total cpu time spent up to now is        5.4 secs

     total energy              =    -500.66528051 Ry
     estimated scf accuracy    <       1.03374682 Ry

     iteration #  6     ecut=    30.00 Ry     beta= 0.50
     Davidson diagonalization with overlap
     ethr =  3.99E-04,  avg # of iterations =  1.0

     total cpu time spent up to now is        5.5 secs

     total energy              =    -500.74258547 Ry
     estimated scf accuracy    <       0.06165763 Ry

     iteration #  7     ecut=    30.00 Ry     beta= 0.50
     Davidson diagonalization with overlap
     ethr =  2.41E-05,  avg # of iterations =  7.0

     total cpu time spent up to now is        5.7 secs

     total energy              =    -500.75110955 Ry
     estimated scf accuracy    <       0.06699139 Ry

     iteration #  8     ecut=    30.00 Ry     beta= 0.50
     Davidson diagonalization with overlap
     ethr =  2.41E-05,  avg # of iterations =  2.0

     total cpu time spent up to now is        5.8 secs

     total energy              =    -500.75697765 Ry
     estimated scf accuracy    <       0.03856611 Ry

     iteration #  9     ecut=    30.00 Ry     beta= 0.50
     Davidson diagonalization with overlap
     ethr =  1.51E-05,  avg # of iterations =  2.0

     total cpu time spent up to now is        5.9 secs

     total energy              =    -500.76000281 Ry
     estimated scf accuracy    <       0.00605930 Ry

     iteration # 10     ecut=    30.00 Ry     beta= 0.50
     Davidson diagonalization with overlap
     ethr =  2.37E-06,  avg # of iterations = 10.0

     total cpu time spent up to now is        6.1 secs

     total energy              =    -500.76052393 Ry
     estimated scf accuracy    <       0.00397093 Ry

     iteration # 11     ecut=    30.00 Ry     beta= 0.50
     Davidson diagonalization with overlap
     ethr =  1.55E-06,  avg # of iterations =  2.0

     total cpu time spent up to now is        6.2 secs

     total energy              =    -500.76083972 Ry
     estimated scf accuracy    <       0.00085866 Ry

     iteration # 12     ecut=    30.00 Ry     beta= 0.50
     Davidson diagonalization with overlap
     ethr =  3.35E-07,  avg # of iterations =  4.0

     total cpu time spent up to now is        6.3 secs

     total energy              =    -500.76089077 Ry
     estimated scf accuracy    <       0.00124231 Ry

     iteration # 13     ecut=    30.00 Ry     beta= 0.50
     Davidson diagonalization with overlap
     ethr =  3.35E-07,  avg # of iterations =  2.0

     total cpu time spent up to now is        6.5 secs

     total energy              =    -500.76099262 Ry
     estimated scf accuracy    <       0.00045565 Ry

     iteration # 14     ecut=    30.00 Ry     beta= 0.50
     Davidson diagonalization with overlap
     ethr =  1.78E-07,  avg # of iterations =  1.0

     total cpu time spent up to now is        6.6 secs

     total energy              =    -500.76102307 Ry
     estimated scf accuracy    <       0.00004363 Ry

     iteration # 15     ecut=    30.00 Ry     beta= 0.50
     Davidson diagonalization with overlap
     ethr =  1.70E-08,  avg # of iterations =  5.0

     total cpu time spent up to now is        6.7 secs

     total energy              =    -500.76102878 Ry
     estimated scf accuracy    <       0.00006638 Ry

     iteration # 16     ecut=    30.00 Ry     beta= 0.50
     Davidson diagonalization with overlap
     ethr =  1.70E-08,  avg # of iterations =  3.0

     total cpu time spent up to now is        6.9 secs

     total energy              =    -500.76103387 Ry
     estimated scf accuracy    <       0.00002488 Ry

     iteration # 17     ecut=    30.00 Ry     beta= 0.50
     Davidson diagonalization with overlap
     ethr =  9.72E-09,  avg # of iterations =  2.0

     total cpu time spent up to now is        7.0 secs

     total energy              =    -500.76103535 Ry
     estimated scf accuracy    <       0.00000973 Ry

     iteration # 18     ecut=    30.00 Ry     beta= 0.50
     Davidson diagonalization with overlap
     ethr =  3.80E-09,  avg # of iterations =  2.0

     total cpu time spent up to now is        7.1 secs

     total energy              =    -500.76103637 Ry
     estimated scf accuracy    <       0.00000322 Ry

     iteration # 19     ecut=    30.00 Ry     beta= 0.50
     Davidson diagonalization with overlap
     ethr =  1.26E-09,  avg # of iterations =  2.0

     total cpu time spent up to now is        7.2 secs

     End of self-consistent calculation

          k = 0.0000 0.0000 0.0000 ( 13097 PWs)   bands (ev):

    -7.2702  -6.7545  -6.6108  -6.1972  -5.9145  -5.8168  -5.6135  -5.4283
    -5.3321  -5.1143  -5.0077  -4.8544  -4.5446  -4.5024  -4.3766  -4.1691
    -4.0952  -4.0027  -3.7929  -3.6377  -3.6000  -3.3955  -3.3314  -3.2598
    -3.1126  -2.8884  -2.7500  -2.6077  -2.5313  -2.4607  -2.3689  -2.2057
    -2.1031  -2.0436  -1.8747  -1.7596  -1.6175  -1.5674  -1.4292  -1.1663
    -1.1512  -1.1204  -1.0274  -1.0081  -0.9851  -0.7617  -0.7059  -0.6551
    -0.4723  -0.3815  -0.3738  -0.1961  -0.0545   0.0627   0.1776   0.2966
     0.3024   0.3831   0.5590   0.7022   0.7240   0.8437   0.9549   0.9822
     1.0699   1.2746   1.4223   1.5048   1.6402   1.7081   1.7875   1.8553
     1.8935   1.9491   2.0503   2.1532   2.1576   2.2511   2.3257   2.3974
     2.4568   2.5608   2.6191   2.6502   2.7351   2.7918   2.8778   2.9621
     3.0381   3.0799   3.0957   3.2555   3.2994   3.3037   3.3548   3.3715
     3.4746   3.5140   3.5530   3.7028   3.7587   3.8115   3.8546   3.9392
     4.0025   4.0541   4.1211   4.1301   4.1465   4.2385   4.3370   4.3914
     4.4804   4.5756   4.6201   4.6669   4.7365   4.7663   4.8506   4.8656
     4.9736   4.9847   5.0378   5.1419   5.3203   5.3312   5.3822   5.4090
     5.4704   5.4899   5.5448   5.6214   5.7479   5.7604   5.8004   5.8844
     5.9584   6.0110   6.0502   6.1031   6.1199   6.2333   6.2732   6.2829
     6.3762   6.4872   6.6076   6.6148   6.7170   6.7737   6.8679   6.8941
     6.9179   7.0153

     the Fermi energy is     5.4385 ev

!    total energy              =    -500.76103592 Ry
     estimated scf accuracy    <       0.00000098 Ry
     smearing contrib. (-TS)   =      -0.15173597 Ry
     internal energy E=F+TS    =    -500.60929995 Ry

     The total energy is F=E-TS. E is the sum of the following terms:
     one-electron contribution =      35.38720005 Ry
     hartree contribution      =      84.42258009 Ry
     xc contribution           =    -149.54094580 Ry
     ewald contribution        =    -470.87813429 Ry

     convergence has been achieved in  19 iterations

     Forces acting on atoms (cartesian axes, Ry/au):

     atom    1 type  1   force =    -0.01329712    0.03241098    0.00719552
     atom    2 type  1   force =    -0.02675403    0.02452199   -0.01380169
     atom    3 type  1   force =    -0.11371679   -0.03097203   -0.02512227
     atom    4 type  1   force =     0.06749230    0.00518264    0.01869859
     atom    5 type  1   force =     0.04410402   -0.00370503    0.04573081
     atom    6 type  1   force =     0.02158076   -0.00338643    0.00123008
     atom    7 type  1   force =     0.02336068    0.00972237    0.01019178
     atom    8 type  1   force =    -0.01350151   -0.06749459    0.02226498
     atom    9 type  1   force =    -0.00752007   -0.06723077    0.07832353
     atom   10 type  1   force =     0.03857211    0.01198497   -0.03038985
     atom   11 type  1   force =     0.09632822   -0.04634844    0.03566899
     atom   12 type  1   force =     0.00438700    0.00867297   -0.02995288
     atom   13 type  1   force =     0.00483868    0.00518468   -0.00873665
     atom   14 type  1   force =    -0.00071242    0.00496096   -0.01500019
     atom   15 type  1   force =    -0.04643844    0.11379715   -0.01557157
     atom   16 type  1   force =     0.09597575    0.03256764   -0.01224152
     atom   17 type  1   force =    -0.00845967    0.00882458   -0.00096720
     atom   18 type  1   force =    -0.09051771    0.05424461   -0.05098345
     atom   19 type  1   force =     0.04101594   -0.10859456    0.00066305
     atom   20 type  1   force =    -0.04330770    0.06124965    0.04997052
     atom   21 type  1   force =    -0.07729709   -0.00032175    0.00997879
     atom   22 type  1   force =     0.06725632   -0.04614097   -0.07025267
     atom   23 type  1   force =    -0.00722688   -0.02436918    0.00406958
     atom   24 type  1   force =    -0.00655349   -0.02531756    0.00796015
     atom   25 type  1   force =    -0.00356292   -0.01145590    0.00946633
     atom   26 type  1   force =    -0.03591855    0.01260597    0.01505328
     atom   27 type  1   force =    -0.00192428   -0.02604900   -0.00491377
     atom   28 type  1   force =     0.01367082    0.01435595    0.02003307
     atom   29 type  1   force =    -0.01113160   -0.00543476    0.01630655
     atom   30 type  1   force =     0.00397016   -0.03085226   -0.00773998
     atom   31 type  1   force =    -0.01875172   -0.00639790   -0.02620575
     atom   32 type  1   force =    -0.00760780    0.01366831    0.02124907
     atom   33 type  1   force =     0.03404828    0.06883221    0.00042571
     atom   34 type  1   force =     0.03517859   -0.01466688    0.02841527
     atom   35 type  1   force =     0.01227228    0.00843570   -0.04009079
     atom   36 type  1   force =    -0.03634652    0.00161822   -0.02878344
     atom   37 type  1   force =    -0.03434527    0.01580034   -0.04306447
     atom   38 type  1   force =     0.00725580    0.05796286   -0.03782393
     atom   39 type  1   force =     0.04877725   -0.01749054    0.03235396
     atom   40 type  1   force =    -0.00248395   -0.07520023    0.00222846
     atom   41 type  1   force =    -0.00903565   -0.02565612   -0.05718768
     atom   42 type  1   force =     0.01985397   -0.01699817    0.03087545
     atom   43 type  1   force =     0.04540961    0.05156162    0.01516923
     atom   44 type  1   force =    -0.01520444    0.01732390    0.05359313
     atom   45 type  1   force =     0.02020809    0.03354074    0.00740143
     atom   46 type  1   force =    -0.02779417   -0.03072644    0.01749960
     atom   47 type  1   force =    -0.03587706   -0.00962436    0.00440052
     atom   48 type  1   force =    -0.02147119    0.01433200    0.01475797
     atom   49 type  1   force =    -0.03812655   -0.00514165    0.01706251
     atom   50 type  1   force =    -0.06977970    0.01290325   -0.01305495
     atom   51 type  1   force =     0.00294671   -0.01356477   -0.00393421
     atom   52 type  1   force =     0.02123258    0.06098377   -0.04155341
     atom   53 type  1   force =    -0.00127103   -0.02638773    0.00266251
     atom   54 type  1   force =    -0.02281272   -0.00078876   -0.01729323
     atom   55 type  1   force =     0.02137608   -0.00034094   -0.02386210
     atom   56 type  1   force =     0.02744828    0.01565557    0.00716823
     atom   57 type  1   force =    -0.04077909    0.01479220   -0.00763664
     atom   58 type  1   force =     0.01610733   -0.05161977    0.06442235
     atom   59 type  1   force =     0.00383773    0.03106404    0.00876540
     atom   60 type  1   force =     0.03504799   -0.02003771    0.02426823
     atom   61 type  1   force =     0.00356668   -0.00498675   -0.00292372
     atom   62 type  1   force =    -0.03968421    0.02319215   -0.02614082
     atom   63 type  1   force =     0.00776564   -0.07383362   -0.00066895
     atom   64 type  1   force =     0.04432568    0.04918158   -0.04962683

     Total force =     0.490688     Total SCF correction =     0.001819


     Computing stress (Cartesian axis) and pressure

          total   stress  (Ry/bohr**3)                   (kbar)     P=      -20.84
  -0.00000752   0.00004545  -0.00003654           -1.11        6.69       -5.37
   0.00004545  -0.00018492  -0.00006272            6.69      -27.20       -9.23
  -0.00003654  -0.00006272  -0.00023250           -5.37       -9.23      -34.20

 
     init_run     :      0.82s CPU      4.50s WALL (       1 calls)
     electrons    :      2.50s CPU      2.63s WALL (       1 calls)
     forces       :      0.04s CPU      0.04s WALL (       1 calls)
     stress       :      0.18s CPU      0.18s WALL (       1 calls)

     Called by init_run:
     wfcinit      :      0.60s CPU      4.12s WALL (       1 calls)
                                        4.12s GPU  (       1 calls)
     potinit      :      0.05s CPU      0.13s WALL (       1 calls)
     hinit0       :      0.14s CPU      0.17s WALL (       1 calls)

     Called by electrons:
     c_bands      :      1.47s CPU      1.52s WALL (      20 calls)
     sum_band     :      0.50s CPU      0.55s WALL (      20 calls)
     v_of_rho     :      0.23s CPU      0.32s WALL (      20 calls)
     mix_rho      :      0.23s CPU      0.25s WALL (      20 calls)

     Called by c_bands:
     init_us_2    :      0.07s CPU      0.08s WALL (      41 calls)
     init_us_2:gp :      0.07s CPU      0.08s WALL (      41 calls)
     regterg      :      1.29s CPU      1.34s WALL (      20 calls)

     Called by *egterg:
     rdiaghg      :      0.40s CPU      1.13s WALL (      85 calls)
                                        1.11s GPU  (      85 calls)
     h_psi        :      1.29s CPU      4.11s WALL (      87 calls)
                                        4.10s GPU  (      87 calls)
     g_psi        :      0.00s CPU      0.00s WALL (      66 calls)
                                        0.00s GPU  (      66 calls)

     Called by h_psi:
     h_psi:calbec :      0.55s CPU      3.29s WALL (      87 calls)
                                        3.29s GPU  (      87 calls)
     vloc_psi     :      0.68s CPU      0.75s WALL (      87 calls)
                                        0.75s GPU  (      87 calls)
     add_vuspsi   :      0.03s CPU      0.05s WALL (      87 calls)
                                        0.05s GPU  (      87 calls)

     General routines
     calbec       :      0.56s CPU      3.29s WALL (      92 calls)
     fft          :      0.37s CPU      0.49s WALL (     167 calls)
                                        0.12s GPU  (     106 calls)
     ffts         :      0.07s CPU      0.08s WALL (      20 calls)
     fftw         :      0.73s CPU      0.94s WALL (    2102 calls)
                                        0.85s GPU  (    2102 calls)
 
     Parallel routines
 
     PWSCF        :      3.58s CPU      7.45s WALL

 
   This run was terminated on:  12:28:25  11May2023            

=------------------------------------------------------------------------------=
   JOB DONE.
=------------------------------------------------------------------------------=
