An instance of this daemon is already running
An instance of this daemon is already running

     Program PWSCF v.7.1 starts on 11May2023 at 12:18:44 

     This program is part of the open-source Quantum ESPRESSO suite
     for quantum simulation of materials; please cite
         "P. Giannozzi et al., J. Phys.:Condens. Matter 21 395502 (2009);
         "P. Giannozzi et al., J. Phys.:Condens. Matter 29 465901 (2017);
         "P. Giannozzi et al., J. Chem. Phys. 152 154105 (2020);
          URL http://www.quantum-espresso.org", 
     in publications or presentations arising from this work. More details at
     http://www.quantum-espresso.org/quote

     Parallel version (MPI & OpenMP), running on       4 processor cores
     Number of MPI processes:                 4
     Threads/MPI process:                     1

     MPI processes distributed on     1 nodes
     696660 MiB available memory on the printing compute node when the environment starts
 
     Reading input from pw-si-0.in
Warning: card &CELL ignored
Warning: card / ignored

     Current dimensions of program PWSCF are:
     Max number of different atomic species (ntypx) = 10
     Max number of k-points (npk) =  40000
     Max angular momentum in pseudopotentials (lmaxx) =  4

     IMPORTANT: XC functional enforced from input :
     Exchange-correlation= PBE
                           (   1   4   3   4   0   0   0)
     Any further DFT definition will be discarded
     Please, verify this is what you really want


     gamma-point specific algorithms are used
 
     K-points division:     npool     =       2
     R & G space division:  proc/nbgrp/npool/nimage =       2
     Subspace diagonalization in iterative solution of the eigenvalue problem:
     a serial algorithm will be used

     Message from routine divide_et_impera:
     suboptimal parallelization: some nodes have no k-points
 
     Parallelization info
     --------------------
     sticks:   dense  smooth     PW     G-vecs:    dense   smooth      PW
     Min        2007    2007    533                96009    96009   13000
     Max        2010    2010    536                96014    96014   13001
     Sum        4017    4017   1069               192023   192023   26001
 
     Using Slab Decomposition
 


     bravais-lattice index     =            0
     lattice parameter (alat)  =      20.5291  a.u.
     unit-cell volume          =    8651.8466 (a.u.)^3
     number of atoms/cell      =           64
     number of atomic types    =            1
     number of electrons       =       256.00
     number of Kohn-Sham states=          154
     kinetic-energy cutoff     =      30.0000  Ry
     charge density cutoff     =     120.0000  Ry
     scf convergence threshold =      1.0E-06
     mixing beta               =       0.5000
     number of iterations used =            8  plain     mixing
     Exchange-correlation= PBE
                           (   1   4   3   4   0   0   0)

     GPU acceleration is ACTIVE.
     GPU-aware MPI enabled

     Message from routine print_cuda_info:
     High GPU oversubscription detected. Are you sure this is what you want?

     celldm(1)=  20.529085  celldm(2)=   0.000000  celldm(3)=   0.000000
     celldm(4)=   0.000000  celldm(5)=   0.000000  celldm(6)=   0.000000

     crystal axes: (cart. coord. in units of alat)
               a(1) = (   1.000000   0.000000   0.000000 )  
               a(2) = (   0.000000   1.000000   0.000000 )  
               a(3) = (   0.000000   0.000000   1.000000 )  

     reciprocal axes: (cart. coord. in units 2 pi/alat)
               b(1) = (  1.000000  0.000000  0.000000 )  
               b(2) = (  0.000000  1.000000  0.000000 )  
               b(3) = (  0.000000  0.000000  1.000000 )  


     PseudoPot. # 1 for Si read from file:
     /home/ppiaggi/pseudos/Si_ONCV_PBE_sr.upf
     MD5 check sum: 8553c464762ac42b85b1eed164b4d029
     Pseudo is Norm-conserving, Zval =  4.0
     Generated using ONCVPSP code by D. R. Hamann
     Using radial grid of 1510 points,  4 beta functions with: 
                l(1) =   0
                l(2) =   0
                l(3) =   1
                l(4) =   1

     atomic species   valence    mass     pseudopotential
        Si             4.00    28.08500     Si( 1.00)

     No symmetry found



   Cartesian axes

     site n.     atom                  positions (alat units)
         1           Si  tau(   1) = (   0.6427210   0.7480350   0.4927050  )
         2           Si  tau(   2) = (   0.5920970   0.3107970   0.2281160  )
         3           Si  tau(   3) = (   0.9473280   0.9672580   0.3887690  )
         4           Si  tau(   4) = (   0.7625090   0.4818110   0.2270570  )
         5           Si  tau(   5) = (   0.3756440   0.2285780   0.4455360  )
         6           Si  tau(   6) = (   0.1824150   0.6552430   0.9902410  )
         7           Si  tau(   7) = (   0.7722920   0.0345123   0.5353200  )
         8           Si  tau(   8) = (   0.3420280   0.9830550   0.9780750  )
         9           Si  tau(   9) = (   0.6814170   0.8531440   0.6994660  )
        10           Si  tau(  10) = (   0.0687017   0.9318120   0.9060920  )
        11           Si  tau(  11) = (   0.9988030   0.0679919   0.6025950  )
        12           Si  tau(  12) = (   0.0380003   0.7902930   0.1013810  )
        13           Si  tau(  13) = (   0.6920340   0.4410740   0.9586230  )
        14           Si  tau(  14) = (   0.7873850   0.2377850   0.6339050  )
        15           Si  tau(  15) = (   0.9057170   0.2938520   0.8213070  )
        16           Si  tau(  16) = (   0.2962690   0.8365890   0.5802140  )
        17           Si  tau(  17) = (   0.5223990   0.0566440   0.2468430  )
        18           Si  tau(  18) = (   0.7092360   0.4392060   0.7539770  )
        19           Si  tau(  19) = (   0.8194960   0.6713120   0.6611990  )
        20           Si  tau(  20) = (   0.5390240   0.0891798   0.8671530  )
        21           Si  tau(  21) = (   0.3409870   0.0446934   0.5963560  )
        22           Si  tau(  22) = (   0.7974110   0.0436355   0.7470440  )
        23           Si  tau(  23) = (   0.3184430   0.8243030   0.3695930  )
        24           Si  tau(  24) = (   0.3629910   0.3755680   0.9651600  )
        25           Si  tau(  25) = (   0.3187010   0.4054150   0.2415390  )
        26           Si  tau(  26) = (   0.0557431   0.2557250   0.1866850  )
        27           Si  tau(  27) = (   0.9470200   0.0812548   0.9171280  )
        28           Si  tau(  28) = (   0.7480680   0.0209672   0.3000480  )
        29           Si  tau(  29) = (   0.6310850   0.7603380   0.1559290  )
        30           Si  tau(  30) = (   0.5462690   0.1641140   0.6313780  )
        31           Si  tau(  31) = (   0.0436047   0.5302440   0.2183240  )
        32           Si  tau(  32) = (   0.0234679   0.3468110   0.4300800  )
        33           Si  tau(  33) = (   0.4858760   0.7381370   0.6356340  )
        34           Si  tau(  34) = (   0.6017060   0.2279040   0.0241914  )
        35           Si  tau(  35) = (   0.9555110   0.7374800   0.8283600  )
        36           Si  tau(  36) = (   0.4763410   0.3076960   0.7789630  )
        37           Si  tau(  37) = (   0.4847300   0.8600630   0.8300370  )
        38           Si  tau(  38) = (   0.8122990   0.0670769   0.0773698  )
        39           Si  tau(  39) = (   0.3875030   0.5071520   0.4309510  )
        40           Si  tau(  40) = (   0.0646331   0.2722150   0.6535130  )
        41           Si  tau(  41) = (   0.0894137   0.9031490   0.6729160  )
        42           Si  tau(  42) = (   0.9941650   0.3976470   0.9865410  )
        43           Si  tau(  43) = (   0.1632760   0.1153580   0.0643151  )
        44           Si  tau(  44) = (   0.9202160   0.7929590   0.3011440  )
        45           Si  tau(  45) = (   0.2159870   0.6619990   0.2534960  )
        46           Si  tau(  46) = (   0.3842670   0.5426640   0.6480520  )
        47           Si  tau(  47) = (   0.3830550   0.6449360   0.9048980  )
        48           Si  tau(  48) = (   0.2662210   0.3547830   0.7013320  )
        49           Si  tau(  49) = (   0.8091220   0.2837700   0.1347760  )
        50           Si  tau(  50) = (   0.5241150   0.8692520   0.3543050  )
        51           Si  tau(  51) = (   0.0679855   0.5433250   0.8326150  )
        52           Si  tau(  52) = (   0.1569610   0.1042310   0.2974590  )
        53           Si  tau(  53) = (   0.3952190   0.2228500   0.1851100  )
        54           Si  tau(  54) = (   0.2237980   0.8949520   0.1699360  )
        55           Si  tau(  55) = (   0.5698870   0.3399360   0.4816240  )
        56           Si  tau(  56) = (   0.1716770   0.2527670   0.8760680  )
        57           Si  tau(  57) = (   0.5255800   0.6460190   0.3340350  )
        58           Si  tau(  58) = (   0.9097470   0.4822180   0.5685950  )
        59           Si  tau(  59) = (   0.5994680   0.6178440   0.8810450  )
        60           Si  tau(  60) = (   0.7953950   0.6274050   0.4241610  )
        61           Si  tau(  61) = (   0.7848030   0.8070000   0.9644900  )
        62           Si  tau(  62) = (   0.1269060   0.4898350   0.6121180  )
        63           Si  tau(  63) = (   0.8663640   0.6493350   0.1461480  )
        64           Si  tau(  64) = (   0.4106930   0.5257200   0.0858598  )

     number of k points=     1  Fermi-Dirac smearing, width (Ry)=  0.0100
                       cart. coord. in units 2pi/alat
        k(    1) = (   0.0000000   0.0000000   0.0000000), wk =   2.0000000

     Dense  grid:    96012 G-vectors     FFT dimensions: (  72,  72,  72)

     Estimated max dynamical RAM per process >     153.21 MB

     Estimated total dynamical RAM >     589.40 MB

     Initial potential from superposition of free atoms

     starting charge     255.9608, renormalised to     256.0000
     Starting wfcs are  256 randomized atomic wfcs

     total cpu time spent up to now is        5.1 secs

     Self-consistent Calculation

     iteration #  1     ecut=    30.00 Ry     beta= 0.50
     Davidson diagonalization with overlap
     ethr =  1.00E-02,  avg # of iterations =  3.0

     Threshold (ethr) on eigenvalues was too large:
     Diagonalizing with lowered threshold

     Davidson diagonalization with overlap
     ethr =  5.18E-04,  avg # of iterations =  4.0

     total cpu time spent up to now is        5.4 secs

     total energy              =    -500.42658215 Ry
     estimated scf accuracy    <       1.70122515 Ry

     iteration #  2     ecut=    30.00 Ry     beta= 0.50
     Davidson diagonalization with overlap
     ethr =  6.65E-04,  avg # of iterations =  5.0

     total cpu time spent up to now is        5.5 secs

     total energy              =    -500.04447476 Ry
     estimated scf accuracy    <       4.98331077 Ry

     iteration #  3     ecut=    30.00 Ry     beta= 0.50
     Davidson diagonalization with overlap
     ethr =  6.65E-04,  avg # of iterations =  4.0

     total cpu time spent up to now is        5.6 secs

     total energy              =    -500.49371722 Ry
     estimated scf accuracy    <       3.53549017 Ry

     iteration #  4     ecut=    30.00 Ry     beta= 0.50
     Davidson diagonalization with overlap
     ethr =  6.65E-04,  avg # of iterations =  2.0

     total cpu time spent up to now is        5.7 secs

     total energy              =    -500.76318239 Ry
     estimated scf accuracy    <       0.75690532 Ry

     iteration #  5     ecut=    30.00 Ry     beta= 0.50
     Davidson diagonalization with overlap
     ethr =  2.96E-04,  avg # of iterations =  2.0

     total cpu time spent up to now is        5.8 secs

     total energy              =    -500.80568432 Ry
     estimated scf accuracy    <       0.43167338 Ry

     iteration #  6     ecut=    30.00 Ry     beta= 0.50
     Davidson diagonalization with overlap
     ethr =  1.69E-04,  avg # of iterations =  2.0

     total cpu time spent up to now is        5.9 secs

     total energy              =    -500.84645700 Ry
     estimated scf accuracy    <       0.15839401 Ry

     iteration #  7     ecut=    30.00 Ry     beta= 0.50
     Davidson diagonalization with overlap
     ethr =  6.19E-05,  avg # of iterations =  2.0

     total cpu time spent up to now is        6.0 secs

     total energy              =    -500.85934424 Ry
     estimated scf accuracy    <       0.02182888 Ry

     iteration #  8     ecut=    30.00 Ry     beta= 0.50
     Davidson diagonalization with overlap
     ethr =  8.53E-06,  avg # of iterations =  9.0

     total cpu time spent up to now is        6.2 secs

     total energy              =    -500.86116104 Ry
     estimated scf accuracy    <       0.04943183 Ry

     iteration #  9     ecut=    30.00 Ry     beta= 0.50
     Davidson diagonalization with overlap
     ethr =  8.53E-06,  avg # of iterations =  2.0

     total cpu time spent up to now is        6.3 secs

     total energy              =    -500.86475196 Ry
     estimated scf accuracy    <       0.00225031 Ry

     iteration # 10     ecut=    30.00 Ry     beta= 0.50
     Davidson diagonalization with overlap
     ethr =  8.79E-07,  avg # of iterations =  5.0

     total cpu time spent up to now is        6.4 secs

     total energy              =    -500.86489705 Ry
     estimated scf accuracy    <       0.00438763 Ry

     iteration # 11     ecut=    30.00 Ry     beta= 0.50
     Davidson diagonalization with overlap
     ethr =  8.79E-07,  avg # of iterations =  3.0

     total cpu time spent up to now is        6.5 secs

     total energy              =    -500.86520635 Ry
     estimated scf accuracy    <       0.00094217 Ry

     iteration # 12     ecut=    30.00 Ry     beta= 0.50
     Davidson diagonalization with overlap
     ethr =  3.68E-07,  avg # of iterations =  2.0

     total cpu time spent up to now is        6.6 secs

     total energy              =    -500.86527997 Ry
     estimated scf accuracy    <       0.00031502 Ry

     iteration # 13     ecut=    30.00 Ry     beta= 0.50
     Davidson diagonalization with overlap
     ethr =  1.23E-07,  avg # of iterations =  3.0

     total cpu time spent up to now is        6.7 secs

     total energy              =    -500.86528934 Ry
     estimated scf accuracy    <       0.00059631 Ry

     iteration # 14     ecut=    30.00 Ry     beta= 0.50
     Davidson diagonalization with overlap
     ethr =  1.23E-07,  avg # of iterations =  2.0

     total cpu time spent up to now is        6.8 secs

     total energy              =    -500.86532767 Ry
     estimated scf accuracy    <       0.00003295 Ry

     iteration # 15     ecut=    30.00 Ry     beta= 0.50
     Davidson diagonalization with overlap
     ethr =  1.29E-08,  avg # of iterations =  4.0

     total cpu time spent up to now is        6.9 secs

     total energy              =    -500.86532945 Ry
     estimated scf accuracy    <       0.00003447 Ry

     iteration # 16     ecut=    30.00 Ry     beta= 0.50
     Davidson diagonalization with overlap
     ethr =  1.29E-08,  avg # of iterations =  3.0

     total cpu time spent up to now is        7.0 secs

     total energy              =    -500.86533135 Ry
     estimated scf accuracy    <       0.00004481 Ry

     iteration # 17     ecut=    30.00 Ry     beta= 0.50
     Davidson diagonalization with overlap
     ethr =  1.29E-08,  avg # of iterations =  2.0

     total cpu time spent up to now is        7.1 secs

     total energy              =    -500.86533384 Ry
     estimated scf accuracy    <       0.00001031 Ry

     iteration # 18     ecut=    30.00 Ry     beta= 0.50
     Davidson diagonalization with overlap
     ethr =  4.03E-09,  avg # of iterations =  2.0

     total cpu time spent up to now is        7.2 secs

     total energy              =    -500.86533493 Ry
     estimated scf accuracy    <       0.00000437 Ry

     iteration # 19     ecut=    30.00 Ry     beta= 0.50
     Davidson diagonalization with overlap
     ethr =  1.71E-09,  avg # of iterations =  1.0

     total cpu time spent up to now is        7.3 secs

     End of self-consistent calculation

          k = 0.0000 0.0000 0.0000 ( 11936 PWs)   bands (ev):

    -6.1399  -5.5540  -5.3763  -5.2058  -5.1144  -4.7608  -4.7178  -4.5693
    -4.2245  -4.1438  -4.0163  -3.9806  -3.8945  -3.7675  -3.5885  -3.4397
    -3.3885  -3.2704  -3.1668  -3.0940  -2.8691  -2.7146  -2.5622  -2.4662
    -2.2920  -2.1248  -1.9451  -1.7183  -1.5208  -1.4152  -1.2540  -1.2177
    -1.1310  -1.0539  -0.9902  -0.8361  -0.7908  -0.6257  -0.5628  -0.4892
    -0.3761  -0.2213  -0.1768  -0.1470  -0.0008   0.0983   0.1606   0.2201
     0.3907   0.5166   0.5789   0.7011   0.8556   0.8703   1.0474   1.1122
     1.2463   1.2756   1.3342   1.4314   1.4842   1.5706   1.6976   1.8797
     1.8947   1.9713   2.1076   2.2326   2.2902   2.3496   2.4039   2.4535
     2.6594   2.7222   2.7746   2.8903   2.9748   3.0387   3.1131   3.1529
     3.2440   3.3829   3.4473   3.5454   3.6168   3.7891   3.9011   3.9504
     3.9705   4.0908   4.1632   4.2152   4.3051   4.3898   4.4156   4.5279
     4.5484   4.6691   4.7152   4.7590   4.7842   4.8469   4.8998   4.9469
     4.9846   5.0502   5.0943   5.1311   5.2481   5.2961   5.3847   5.4131
     5.4964   5.5927   5.6514   5.7679   5.7887   5.8411   5.8941   5.9180
     5.9833   6.0120   6.0626   6.1768   6.2299   6.2636   6.3176   6.3899
     6.4558   6.4993   6.6241   6.6776   6.7751   6.7949   6.8898   6.9032
     6.9663   7.0098   7.0595   7.0979   7.1702   7.1908   7.2320   7.3005
     7.3696   7.3918   7.5412   7.5653   7.6063   7.7786   7.8029   7.8152
     7.9043   7.9286

     the Fermi energy is     6.4349 ev

!    total energy              =    -500.86533487 Ry
     estimated scf accuracy    <       0.00000051 Ry
     smearing contrib. (-TS)   =      -0.14201574 Ry
     internal energy E=F+TS    =    -500.72331913 Ry

     The total energy is F=E-TS. E is the sum of the following terms:
     one-electron contribution =     139.05936969 Ry
     hartree contribution      =      41.79620891 Ry
     xc contribution           =    -150.58216820 Ry
     ewald contribution        =    -530.99672953 Ry

     convergence has been achieved in  19 iterations

     Forces acting on atoms (cartesian axes, Ry/au):

     atom    1 type  1   force =    -0.00978615    0.05901449    0.02453935
     atom    2 type  1   force =     0.02425017    0.02988422    0.05874784
     atom    3 type  1   force =     0.03067117    0.10817990    0.04514986
     atom    4 type  1   force =    -0.03685954   -0.02554180    0.02914818
     atom    5 type  1   force =    -0.02450033   -0.03097935   -0.01088777
     atom    6 type  1   force =    -0.00465523   -0.00857170    0.02606378
     atom    7 type  1   force =    -0.01164680   -0.01522353   -0.05502873
     atom    8 type  1   force =    -0.01213953    0.00384577    0.01630067
     atom    9 type  1   force =     0.01056545    0.00798021    0.01530450
     atom   10 type  1   force =     0.09976590   -0.11234612   -0.00115970
     atom   11 type  1   force =    -0.05265453    0.03285916   -0.04192840
     atom   12 type  1   force =     0.00826520    0.01053740   -0.02702921
     atom   13 type  1   force =    -0.00278878   -0.03903390    0.07591038
     atom   14 type  1   force =    -0.01060729    0.02069464   -0.01003667
     atom   15 type  1   force =     0.00708299   -0.03537720   -0.01180245
     atom   16 type  1   force =    -0.02591925    0.01366462    0.01659289
     atom   17 type  1   force =     0.01769992    0.00431652   -0.00404082
     atom   18 type  1   force =     0.00064212    0.00261935   -0.05943637
     atom   19 type  1   force =    -0.01051234    0.00001289    0.02004004
     atom   20 type  1   force =    -0.00242273   -0.00836600   -0.00517289
     atom   21 type  1   force =     0.02531329    0.05878304   -0.01160821
     atom   22 type  1   force =     0.00680426    0.00094833    0.05241555
     atom   23 type  1   force =    -0.02971317   -0.01654701   -0.02768869
     atom   24 type  1   force =    -0.02034093   -0.10666627   -0.06077949
     atom   25 type  1   force =    -0.04075462    0.05457016    0.04798933
     atom   26 type  1   force =    -0.05616110    0.04652216    0.01724273
     atom   27 type  1   force =    -0.06614396    0.12334652   -0.02431306
     atom   28 type  1   force =     0.00671415   -0.00903135   -0.02014961
     atom   29 type  1   force =     0.00001183   -0.00212469    0.01160219
     atom   30 type  1   force =    -0.00654246   -0.01883098   -0.00544360
     atom   31 type  1   force =     0.00705807   -0.02521251   -0.01763400
     atom   32 type  1   force =     0.00709084    0.00376019   -0.01785565
     atom   33 type  1   force =    -0.02810639   -0.01638486    0.04605272
     atom   34 type  1   force =     0.01720429   -0.00310768   -0.01292924
     atom   35 type  1   force =    -0.00619716    0.00839771   -0.02437360
     atom   36 type  1   force =     0.00393725    0.02541156    0.01784023
     atom   37 type  1   force =     0.00118136   -0.01706341   -0.01438060
     atom   38 type  1   force =    -0.03549790    0.02391914    0.03558682
     atom   39 type  1   force =    -0.00000009   -0.02131238   -0.01209818
     atom   40 type  1   force =    -0.02419165   -0.00535516   -0.00159295
     atom   41 type  1   force =     0.04785123   -0.08219916    0.05657274
     atom   42 type  1   force =     0.01633996    0.01512699    0.02112945
     atom   43 type  1   force =     0.02753030   -0.03778395   -0.03327671
     atom   44 type  1   force =    -0.03254197   -0.09139246   -0.00168805
     atom   45 type  1   force =     0.00858863   -0.00733436   -0.02283480
     atom   46 type  1   force =    -0.01582690   -0.00634198    0.00820115
     atom   47 type  1   force =     0.00310813    0.00982829   -0.03211723
     atom   48 type  1   force =     0.04720550   -0.02478115    0.01006188
     atom   49 type  1   force =     0.03711766   -0.00510896   -0.01900469
     atom   50 type  1   force =     0.02738138    0.01804664   -0.01411184
     atom   51 type  1   force =     0.00890394    0.01035418    0.00799059
     atom   52 type  1   force =     0.01718517   -0.03497487    0.02354880
     atom   53 type  1   force =    -0.01825314   -0.05499668   -0.03131783
     atom   54 type  1   force =     0.01581539    0.02617132   -0.00182622
     atom   55 type  1   force =    -0.01592235    0.00281213   -0.02342105
     atom   56 type  1   force =    -0.00640115    0.02640194    0.03069355
     atom   57 type  1   force =     0.01062863   -0.01091581   -0.02837038
     atom   58 type  1   force =    -0.03446483    0.00112975   -0.02030482
     atom   59 type  1   force =     0.01656030    0.03242927   -0.01499743
     atom   60 type  1   force =     0.05721541   -0.02809293   -0.01773932
     atom   61 type  1   force =    -0.00870694   -0.02261053    0.00378161
     atom   62 type  1   force =     0.00868751    0.03651500    0.00530853
     atom   63 type  1   force =    -0.00151205    0.04112070   -0.04995850
     atom   64 type  1   force =     0.02739383    0.06440453    0.06452339

     Total force =     0.463921     Total SCF correction =     0.001305


     Computing stress (Cartesian axis) and pressure

          total   stress  (Ry/bohr**3)                   (kbar)     P=      -12.59
  -0.00012928  -0.00004517   0.00001524          -19.02       -6.64        2.24
  -0.00004517  -0.00002859   0.00005359           -6.64       -4.21        7.88
   0.00001524   0.00005359  -0.00009882            2.24        7.88      -14.54

 
     init_run     :      1.12s CPU      5.05s WALL (       1 calls)
     electrons    :      1.98s CPU      2.15s WALL (       1 calls)
     forces       :      0.04s CPU      0.04s WALL (       1 calls)
     stress       :      0.16s CPU      0.16s WALL (       1 calls)

     Called by init_run:
     wfcinit      :      0.57s CPU      4.32s WALL (       1 calls)
                                        4.32s GPU  (       1 calls)
     potinit      :      0.05s CPU      0.16s WALL (       1 calls)
     hinit0       :      0.47s CPU      0.50s WALL (       1 calls)

     Called by electrons:
     c_bands      :      1.16s CPU      1.23s WALL (      20 calls)
     sum_band     :      0.39s CPU      0.45s WALL (      20 calls)
     v_of_rho     :      0.19s CPU      0.31s WALL (      20 calls)
     mix_rho      :      0.19s CPU      0.21s WALL (      20 calls)

     Called by c_bands:
     init_us_2    :      0.07s CPU      0.08s WALL (      41 calls)
     init_us_2:gp :      0.07s CPU      0.07s WALL (      41 calls)
     regterg      :      0.99s CPU      1.05s WALL (      20 calls)

     Called by *egterg:
     rdiaghg      :      0.40s CPU      1.18s WALL (      81 calls)
                                        1.16s GPU  (      81 calls)
     h_psi        :      0.97s CPU      3.98s WALL (      83 calls)
                                        3.98s GPU  (      83 calls)
     g_psi        :      0.00s CPU      0.00s WALL (      62 calls)
                                        0.00s GPU  (      62 calls)

     Called by h_psi:
     h_psi:calbec :      0.53s CPU      3.45s WALL (      83 calls)
                                        3.45s GPU  (      83 calls)
     vloc_psi     :      0.40s CPU      0.46s WALL (      83 calls)
                                        0.46s GPU  (      83 calls)
     add_vuspsi   :      0.03s CPU      0.05s WALL (      83 calls)
                                        0.05s GPU  (      83 calls)

     General routines
     calbec       :      0.54s CPU      3.46s WALL (      88 calls)
     fft          :      0.63s CPU      0.78s WALL (     167 calls)
                                        0.15s GPU  (     106 calls)
     ffts         :      0.05s CPU      0.05s WALL (      20 calls)
     fftw         :      0.48s CPU      0.62s WALL (    2092 calls)
                                        0.54s GPU  (    2092 calls)
 
     Parallel routines
 
     PWSCF        :      3.34s CPU      7.49s WALL

 
   This run was terminated on:  12:18:52  11May2023            

=------------------------------------------------------------------------------=
   JOB DONE.
=------------------------------------------------------------------------------=
