8
Lattice="5.475109586 0.0 0.0 0.0 5.475109586 0.0 0.0 0.0 5.475109586" Properties=species:S:1:pos:R:3:forces:R:3 energy=-857.8871673164178 stress="2.4790255610385195e-05 -0.0 -0.0 -0.0 2.4790255610385195e-05 -0.0 -0.0 -0.0 2.4790255610385195e-05" free_energy=-857.8871673164178 pbc="T T T"
Si       4.10633092       4.10633092       1.36877867       0.00003882       0.00003882      -0.00003882
Si       0.00000000       2.73755479       2.73755479       0.00000000       0.00000000       0.00000000
Si       4.10633092       1.36877867       4.10633092       0.00003882      -0.00003882       0.00003882
Si       0.00000000       0.00000000       0.00000000       0.00000000       0.00000000       0.00000000
Si       1.36877867       4.10633092       4.10633092      -0.00003882       0.00003882       0.00003882
Si       2.73755479       2.73755479       0.00000000       0.00000000       0.00000000       0.00000000
Si       1.36877867       1.36877867       1.36877867      -0.00003882      -0.00003882      -0.00003882
Si       2.73755479       0.00000000       2.73755479       0.00000000       0.00000000       0.00000000
