11.265927702432469 0.0 0.0 0.0 11.005662240650874 0.0 0.0 0.0 10.717389682601032
11.230972901934674 0.0 0.0 0.0 10.80892417125287 0.0 0.0 0.0 10.94655974416608
10.89259794453392 0.0 0.0 0.0 11.128509830816634 0.0 0.0 0.0 10.922312951726608
11.20839238127702 0.0 0.0 0.0 10.912972783283703 0.0 0.0 0.0 10.894243559614587
10.986645434711345 0.0 0.0 0.0 11.200687261070392 0.0 0.0 0.0 10.985832422949176
10.947748793188527 0.0 0.0 0.0 10.79219223058611 0.0 0.0 0.0 10.80159634679946
11.097028096133435 0.0 0.0 0.0 10.632750634647405 0.0 0.0 0.0 11.074822942913071
11.242153357992768 0.0 0.0 0.0 10.763766006150103 0.0 0.0 0.0 10.812815521251025
11.033315689424878 0.0 0.0 0.0 10.989689959188892 0.0 0.0 0.0 10.797213766986875
10.73939743847511 0.0 0.0 0.0 11.101175519985022 0.0 0.0 0.0 10.806250187529617
10.825163305341803 0.0 0.0 0.0 11.037412282269639 0.0 0.0 0.0 11.229017672774189
11.004169137965972 0.0 0.0 0.0 11.09225751191539 0.0 0.0 0.0 10.808900156612765
10.70464795873416 0.0 0.0 0.0 11.085155375075326 0.0 0.0 0.0 11.137190668802733
10.842135076768118 0.0 0.0 0.0 10.872536423523377 0.0 0.0 0.0 11.233265099662528
10.983919113733908 0.0 0.0 0.0 10.887271609452164 0.0 0.0 0.0 10.864600800401417
10.969010075065755 0.0 0.0 0.0 11.26742199415792 0.0 0.0 0.0 11.225300995469668
10.680211084429601 0.0 0.0 0.0 10.723711584176483 0.0 0.0 0.0 10.88561290400535
10.67594327024423 0.0 0.0 0.0 10.730935054029258 0.0 0.0 0.0 10.937354417159431
11.0042405768891 0.0 0.0 0.0 10.923436438333002 0.0 0.0 0.0 10.74371518123125
11.017171551152428 0.0 0.0 0.0 10.635426556904997 0.0 0.0 0.0 10.622205951043613
10.77902963631754 0.0 0.0 0.0 11.07321091315192 0.0 0.0 0.0 11.084464220092233
11.082664109989887 0.0 0.0 0.0 10.895699566454358 0.0 0.0 0.0 10.812823404239852
10.987396337169997 0.0 0.0 0.0 10.818498080675019 0.0 0.0 0.0 10.76153941806313
10.688765234002636 0.0 0.0 0.0 10.950704114827104 0.0 0.0 0.0 10.73698225397322
11.030687795408193 0.0 0.0 0.0 10.759200507387607 0.0 0.0 0.0 10.682250429326839
10.854279693699832 0.0 0.0 0.0 11.103114055677901 0.0 0.0 0.0 10.688903888286621
11.190862327895893 0.0 0.0 0.0 10.713516095299493 0.0 0.0 0.0 11.150060443848384
11.1868908529472 0.0 0.0 0.0 11.139995406491646 0.0 0.0 0.0 10.755770453256321
10.864320302051132 0.0 0.0 0.0 10.986576498410113 0.0 0.0 0.0 11.073436739225011
10.907880053133962 0.0 0.0 0.0 10.74237478908776 0.0 0.0 0.0 10.646701773141723
10.841264051083169 0.0 0.0 0.0 10.63278654338084 0.0 0.0 0.0 11.102842070107702
11.199234440509255 0.0 0.0 0.0 10.828125408854099 0.0 0.0 0.0 10.651390290148422
10.92965887032096 0.0 0.0 0.0 11.099735292002023 0.0 0.0 0.0 11.192637392399753
11.24741073355776 0.0 0.0 0.0 11.24317045971121 0.0 0.0 0.0 11.063684279225095
11.210006371762498 0.0 0.0 0.0 11.094913236343611 0.0 0.0 0.0 10.961996190793624
10.948947379565446 0.0 0.0 0.0 11.170904440843998 0.0 0.0 0.0 11.193119855077134
10.683421602552682 0.0 0.0 0.0 10.97222653873449 0.0 0.0 0.0 10.935283266832862
11.020507484273889 0.0 0.0 0.0 11.128254985947633 0.0 0.0 0.0 10.847110819516324
10.944991250755796 0.0 0.0 0.0 11.2006334113997 0.0 0.0 0.0 11.182344331019687
10.773975464800557 0.0 0.0 0.0 11.08199264936374 0.0 0.0 0.0 10.713598106295814
10.632962439027338 0.0 0.0 0.0 10.637683474350267 0.0 0.0 0.0 11.164366002842607
11.062219348545149 0.0 0.0 0.0 10.678559457098906 0.0 0.0 0.0 10.82102978008882
10.955874838400003 0.0 0.0 0.0 10.98910400678487 0.0 0.0 0.0 10.916433688981762
10.63795046339328 0.0 0.0 0.0 11.093084536019097 0.0 0.0 0.0 11.025054842805698
10.961658216110099 0.0 0.0 0.0 11.263487475090692 0.0 0.0 0.0 10.714494746653248
10.93957776791434 0.0 0.0 0.0 10.925848597815607 0.0 0.0 0.0 10.748900927419594
10.840548603497474 0.0 0.0 0.0 10.884528709181863 0.0 0.0 0.0 10.934189262334485
10.62659802474247 0.0 0.0 0.0 11.252015824890664 0.0 0.0 0.0 10.69186658981044
10.790789012241573 0.0 0.0 0.0 11.262702588113934 0.0 0.0 0.0 11.027571295537191
10.734436402146796 0.0 0.0 0.0 10.899789660485466 0.0 0.0 0.0 10.646059787247921
11.038708005178 0.0 0.0 0.0 11.032923722183288 0.0 0.0 0.0 10.98479495528071
10.751143055791726 0.0 0.0 0.0 11.143764049046183 0.0 0.0 0.0 10.752927745538988
11.052259175129517 0.0 0.0 0.0 10.793669467209012 0.0 0.0 0.0 11.064361398926286
10.698977295769442 0.0 0.0 0.0 11.055713295742281 0.0 0.0 0.0 10.910335592247367
11.090709720265695 0.0 0.0 0.0 10.950800417144542 0.0 0.0 0.0 10.938212461612041
11.207207553507518 0.0 0.0 0.0 11.036532989675152 0.0 0.0 0.0 11.04218142228212
10.892531268205667 0.0 0.0 0.0 10.623572886131132 0.0 0.0 0.0 11.219938973065393
11.007222490458172 0.0 0.0 0.0 10.770192961348645 0.0 0.0 0.0 10.814728183545041
10.827593816259771 0.0 0.0 0.0 11.198417249279036 0.0 0.0 0.0 11.15459797710463
11.135567013863406 0.0 0.0 0.0 10.68881920083422 0.0 0.0 0.0 11.003521460213014
10.960199803723876 0.0 0.0 0.0 11.198923915648786 0.0 0.0 0.0 11.09762974906277
11.172824793571955 0.0 0.0 0.0 10.751318805409658 0.0 0.0 0.0 10.902207804246848
11.090166255272715 0.0 0.0 0.0 11.105659217531333 0.0 0.0 0.0 10.981283002978447
11.233476968484604 0.0 0.0 0.0 10.85151628460219 0.0 0.0 0.0 11.27843334331248
10.807842806135184 0.0 0.0 0.0 11.208694887971932 0.0 0.0 0.0 10.850512169533808
10.67789064237097 0.0 0.0 0.0 10.918314028074596 0.0 0.0 0.0 10.686230074962662
10.911982234853118 0.0 0.0 0.0 10.767944069353057 0.0 0.0 0.0 10.694200893409919
10.636304193098091 0.0 0.0 0.0 10.83020401853827 0.0 0.0 0.0 11.272387092757937
11.12636038879247 0.0 0.0 0.0 11.05348272824588 0.0 0.0 0.0 10.863600261850747
11.061780131462214 0.0 0.0 0.0 10.899072407508537 0.0 0.0 0.0 10.969712935428054
10.887004012264414 0.0 0.0 0.0 10.890270113468093 0.0 0.0 0.0 10.692605668621422
10.909848063171829 0.0 0.0 0.0 11.00288724745456 0.0 0.0 0.0 10.794127304765764
10.746070892249657 0.0 0.0 0.0 11.153078327293613 0.0 0.0 0.0 10.693619320224586
10.948542029823848 0.0 0.0 0.0 10.737563624909143 0.0 0.0 0.0 10.762066461971887
11.138742606290736 0.0 0.0 0.0 10.641486858860706 0.0 0.0 0.0 10.954429832384443
10.809369482381284 0.0 0.0 0.0 10.807045467942572 0.0 0.0 0.0 10.871101791495164
10.625746049437021 0.0 0.0 0.0 11.012246936239242 0.0 0.0 0.0 11.105466606330955
10.91044920848052 0.0 0.0 0.0 10.839934975246111 0.0 0.0 0.0 10.98770609932577
10.714030270638268 0.0 0.0 0.0 10.901632940677144 0.0 0.0 0.0 10.9332500440058
11.153205019395038 0.0 0.0 0.0 11.051142040262555 0.0 0.0 0.0 11.207454208609375
10.934107133934381 0.0 0.0 0.0 10.786299873697855 0.0 0.0 0.0 11.246647652250761
11.155275160634117 0.0 0.0 0.0 11.232469664745706 0.0 0.0 0.0 11.145637002895329
10.939054411655277 0.0 0.0 0.0 11.146108833559088 0.0 0.0 0.0 10.655995439699286
10.979954518088922 0.0 0.0 0.0 11.129633258079512 0.0 0.0 0.0 10.722891822911425
11.229519781320537 0.0 0.0 0.0 10.771377833282221 0.0 0.0 0.0 10.686684795091502
10.762842105514006 0.0 0.0 0.0 10.974547209729467 0.0 0.0 0.0 10.649810737721896
10.888584664585768 0.0 0.0 0.0 10.96608961022829 0.0 0.0 0.0 10.808836670502341
10.766465381859604 0.0 0.0 0.0 10.961812129748063 0.0 0.0 0.0 11.078283752249021
10.792309338361173 0.0 0.0 0.0 11.147764838729438 0.0 0.0 0.0 11.013087610496028
11.268269311579433 0.0 0.0 0.0 11.012468329937269 0.0 0.0 0.0 10.955495960297922
10.986603100534676 0.0 0.0 0.0 11.186218692268293 0.0 0.0 0.0 11.256401112874507
11.042833470694323 0.0 0.0 0.0 11.044821180719048 0.0 0.0 0.0 10.669751341886915
10.704202920701935 0.0 0.0 0.0 10.948836774251657 0.0 0.0 0.0 11.136749056524579
