4.178866056292195 4.154949618372701 1.3410994134758718 -0.09865910866851187 2.7736060579581996 2.6532476459420327 4.1346134922770394 1.4652826079470147 4.082018508798234 -0.05102113337877617 0.07002224704169877 -0.04901917802605392 1.4380190629071283 4.081727847863512 3.932483597218307 2.7307932795034158 2.812590674179697 -0.0721278489292834 1.3883137898839961 1.3261855783833918 1.3469926202570144 2.7358956181598475 -0.08189540824729236 2.7534715919684127 4.219399737572776 4.156401796453544 6.702543141135781 -0.011260294738581252 2.7591710247930727 8.126085486945284 4.233201625601026 1.4138333693155463 9.385704078313314 0.038383015682187424 0.0625754688303909 5.399661134204871 1.3528385101418066 4.04137892779725 9.295965331199588 2.7905038229190784 2.788516513272369 5.428945786674574 1.3474691689988272 1.3004744781809003 6.6532603404014905 2.8557729750631204 0.08120931325021422 8.012906850653877 4.180570591153573 9.608393164836215 1.2859053804761147 -0.051779330313149866 8.324143875732357 2.7194259584516614 4.180475957360873 6.8785349573321 3.9307542773159843 0.011572360935938632 5.405694038489524 -0.035077592494293736 1.4635780730856367 9.580699261358095 4.02804457576865 2.8433635556988914 8.325076694546118 -0.03025690203042288 1.3079787126234907 6.835546430405159 1.333653761857334 2.85155501173133 5.502126999844035 2.6633250182718586 4.246559636077801 9.624092235089554 6.737699595123992 -0.04169181864839184 8.224631936336772 8.125631470058876 4.210462477126437 6.885416185972746 9.434049553862762 0.09272534454764067 5.585639068716627 5.363335276921148 1.3873054893546284 9.624963091300952 9.44830883855573 2.905676528413816 8.257491267666456 5.272071123196513 1.417963458411258 6.7868303058343 6.706584229402644 2.745039045083142 5.435181477657871 8.058288260624815 9.951572474729403 4.196045469445634 1.4266889194167915 5.6091893639857915 2.769869149739303 2.764121273425522 9.84893198721085 1.4741590323837612 4.102049328253159 5.701104688331626 0.060188218750245465 0.04189009897595465 7.14331580293683 4.173279282744558 3.9222822996837547 8.519127792849437 2.835102250914698 -0.008950779559582596 7.0777492303014435 1.4046246000115779 1.3190148154007935 8.40988209191895 -0.03160656016917429 2.7021282530573467 9.84837207060404 4.062911495414909 6.6561027339608145 5.624917725651157 2.8505883951344613 8.089765262625411 9.787815456017924 1.293376943728368 9.294489494670568 5.55082509893057 -0.09139709167152389 5.342865086285828 7.031529635309444 4.107598924239377 9.401474123911179 8.471306182938152 2.836843963337494 5.311475958521311 6.994978459471673 1.451861508275107 6.649663129686104 8.539919062424275 -0.042849956016201896 7.964042015837347 9.9070112242952 9.720249181215356 1.2826844517459892 5.618322651574153 8.202636339090542 2.6992554414932264 9.95100579856597 6.786510353487551 4.063028661063014 5.5911751455896015 5.412971827785295 -0.0946901223389449 7.005579697439662 9.718853332773024 4.0952345685859575 8.39409289424399 8.339889136289278 -0.005451582415207072 7.101751289271476 6.868920614630844 1.3989048885170527 8.41257802841814 5.568091259727318 2.747814969669021 9.908001499340244 9.570599357172863 6.781517294329833 5.624149389381851 8.299889459981792 7.986910722480514 9.808611231963845 6.940996640292697 9.40981992315314 5.62025588476789 5.446780876820295 5.369485346853906 7.120675794626021 9.599141585006977 9.362692294388324 8.35495731459128 8.200323444133232 5.3898372452483505 7.0110842297150695 6.81466390681593 6.690585485472419 8.465267645689648 5.4318287375736265 8.009327665422814
4.180311870553231 4.064336351978692 1.4529352409612262 0.028390776398800662 2.770574320664716 2.7981149124148397 4.022862615246428 1.2980792172974802 4.1123936850260705 0.015775024538057444 0.08842931133796306 -0.0759382232764313 1.4601983111369072 3.938753859183839 4.252805554440639 2.8075051288581476 2.780385698591846 0.002031682997959983 1.3381479593197125 1.3436848289603662 1.3870498615293165 2.7781035648981725 0.016620716797573123 2.8549110654772134 4.017532395507169 3.9610709254372733 6.920620965441813 0.011341036436373634 2.5982013485658224 8.347780000495808 4.178758627000892 1.3466037588175792 9.737410739597989 0.028005554028264303 0.0389748452615839 5.687441048155453 1.3484242995249829 4.011125125466616 9.852510242286177 2.6663374149672796 2.6721909980437677 5.49730966170402 1.3389689434388439 1.3031556170491547 6.991957859120321 2.7675790201917696 -0.08790257870886231 8.410173670452506 4.188285861313604 9.44141283328105 1.2999132351723661 0.027095845223207595 8.031683145073567 2.820328653717577 4.177062750092701 6.66971204603427 4.271950993946566 -0.06472297373655933 5.408582729584155 0.007704447410727186 1.3193214794441994 9.451351121201972 4.277748422158545 2.827809604767555 8.081179165749683 -0.06021149192185218 1.3950395756517529 6.633392202766704 1.434054852415784 2.646610211065031 5.346273291924222 2.7936674471456735 4.017770492132691 9.315508011563912 6.889962655614112 0.07902000224072217 8.101530811745278 8.369572580314722 3.99413827895244 6.734747240817504 9.800443451912807 -0.05295740652449257 5.346718038451138 5.604129691168901 1.281719059071232 9.38852730498313 9.829039755115714 2.6938824991065644 8.100423437817149 5.607156438365972 1.3644677443153965 6.701957292333015 6.92164747636505 2.8052870117100155 5.32356651091109 8.29913865685753 9.551832389561001 4.055471745067195 1.3680481784765333 5.359947001432327 2.7831249328826275 2.809142604707249 9.475598791697248 1.2697850272656361 4.103645880232754 5.541634942456085 0.047298119279207684 0.01769439780699808 6.9205344869504675 4.108495414331809 4.239502467038297 8.202251299827118 2.7026651199158773 -0.03199816489490208 6.911547462434339 1.3947981097343611 1.4548838147597116 8.267240447621454 -0.032654053712375064 2.84229082122731 9.475442681173911 4.049532806596652 7.0562540558866065 5.371508164937579 2.7109558241120855 8.449940299303677 9.524925224682546 1.3553583021946372 9.8855483952718 5.472866572280249 -0.02918929857212822 5.58967093665495 6.753418733266971 4.064881054164436 9.746430333935534 8.104047672772602 2.778011470920377 5.545165960336453 6.883956331306156 1.4408316214648111 7.007442001460219 8.2387643158286 0.09588443115026728 8.443510567317318 9.5875300369298 9.344759080487 1.4761305692955917 5.531441711450289 8.134365684121375 2.8545280893012577 9.609747147524407 6.650445312021001 4.120447415694048 5.41801337752991 5.282602660348574 0.038587376696467154 6.803588612317202 9.49458699758255 4.162280543559174 8.115140504707844 8.142308228157622 -0.019846252215008763 6.907809794652576 6.633228230562335 1.3265957805927826 8.167798044255854 5.4070160088643355 2.743599769948849 9.591109347993648 9.462126116604088 7.041999705079472 5.3941453139187185 7.975229536684702 8.470021278852336 9.610642256064692 6.780657211846032 9.708555000921049 5.472051203647569 5.292564533312589 5.544429208514086 6.783776053020898 9.508128181610413 9.694411836745642 8.272375248432219 8.08847929813594 5.6200439797709425 6.791345728756803 6.673585608588147 7.067185161812061 8.13381873574105 5.457850761510363 8.396735811375342
3.97929804147446 4.272900394250811 1.3403526944914046 -0.06557888592506646 2.774932896761794 2.7001094629612017 3.9413994254460425 1.4805970715468675 4.134653719658375 -0.031438216187513794 -0.00997761971719307 0.07096200782925513 1.3077467918042367 4.2465610031611325 4.174543502591052 2.705212645098216 2.716597588469843 -0.0973950752612556 1.2648735262945512 1.4170180666044176 1.3921121414042408 2.70642934828862 0.10051580457236457 2.7279945136992088 3.896934751376661 4.261126585132564 6.832474647791431 0.08345581767163553 2.756500442520054 8.099895952745207 4.057047227082953 1.5000109488634106 9.65532190439164 0.05728744036968724 -0.017777809105273813 5.441420177647603 1.4216256355349555 4.3287129768588075 9.598800213657453 2.558385871104871 2.7221560812009384 5.437702533969134 1.3797022045660334 1.4321816522030033 6.838155137619505 2.7355550659325094 -0.09913898019217547 8.188879763873693 3.977492048735256 9.83063717904912 1.2908915857448648 0.08281533291249694 8.38221575257061 2.668736602361355 3.94922575706919 6.9769606024864945 4.167526490995184 -0.05457627274129275 5.550855930676746 0.041502976688263145 1.2495585335845365 9.822356626091684 4.157687207271886 2.7089814839870248 8.525223581724601 0.09745062751077271 1.4072158177141316 7.059191002889371 1.2879364239225128 2.5736333297076297 5.728778893282147 2.8234180287325037 4.020813000020461 9.900955434339853 6.840625578833325 -0.0918442073487211 8.44991869509486 8.148811342334726 3.9087880764599023 7.13281298313668 9.578743673062183 -0.022615211852441322 5.6395478201803195 5.468353215325258 1.3944398895849877 9.825370607942936 9.566518910389032 2.646595218519501 8.551933321144393 5.36887111829783 1.3237763389394128 7.130541876465245 6.800724903302702 2.7130215485646523 5.612530909498492 8.270264898676073 9.25928011424592 4.151138577387632 1.3938244578011216 5.374067976777167 2.8460223479870006 2.8201099467367485 9.303195801378896 1.4755494416593704 4.191284336372006 5.382355065293368 0.031305326492590484 -0.09260777846463293 6.657116892001967 4.1726416549899366 4.011476954322202 8.032420665517998 2.7932400861271725 -0.026044201685380602 6.597878587340414 1.427774507074645 1.2944251445180717 7.93481972015559 -0.0875372741214524 2.8046838495276996 9.38082516841 4.192401916921115 6.906750183915412 5.302082064741125 2.8602774909170123 8.224070480053099 9.21145289519106 1.3401533599490196 9.470516998404884 5.333341642322349 -0.09256094029347142 5.451024181255299 6.543480953205411 4.265417179462915 9.584673603383187 7.999713461669946 2.7393141014831683 5.524114602722916 6.543763071492175 1.474423147031906 6.795601025229593 7.993181170682609 -0.022953971648516328 8.270259452377102 9.355677427535456 9.844087358991029 1.4009623772341748 5.252758202728686 8.492126422870134 2.7401049040939416 9.284423498081289 7.0820926900677525 4.128791323444626 5.312108701149069 5.699056261270897 -0.008913412898012106 6.677476246820095 9.8763196455687 4.142572638364051 8.000771132930359 8.435288846795558 0.034556766979033864 6.7276769629670685 6.951673436358259 1.3860460536089299 8.053000050814605 5.695662127751381 2.6824558294724956 9.385495914408617 9.798924469393404 6.747735682081928 5.2518650096972355 8.556478802266648 8.277224179502836 9.31417118306781 6.986310808562083 9.647731942143889 5.404256811980442 5.613148519801947 5.503505807411857 6.5475329996407785 9.763355780065321 9.55759787267246 7.8993490642090105 8.362871587880912 5.560705017738194 6.5610921055621345 7.043670140078203 6.908580140370093 7.984299346318636 5.6305298383420395 8.278963727394578
4.232636423334022 3.947997057133016 1.2960129609762043 0.0874837442143434 2.673496363654197 2.7851274684147636 4.308979025521377 1.2485510234376869 4.17295285474296 0.09366181009490329 0.044320225154045594 0.06461077788187138 1.4669622407362033 3.944530301369487 4.043569898128927 2.9030307895518925 2.664406357432981 -0.06963886270411225 1.337165694443301 1.2894347554876329 1.3653895472985946 2.759160985785059 -0.08434651518682397 2.7784820125719043 4.146903430009634 3.980373619365573 6.840387719797364 -0.08908878600334226 2.654750327396511 8.24165308942995 4.131778825330339 1.3140831311732992 9.478605668431491 0.015825129203125024 0.07182113670074688 5.380446416048792 1.4731347024205725 4.041575925124298 9.643438528469026 2.8737365352241873 2.603615399674649 5.396146011257246 1.3116710851328484 1.4123078778066203 6.760745366892961 2.82350276224978 -0.013090281462093432 8.2125045442032 4.1560214572118035 9.452623494052453 1.28433605779339 -0.09745473007672745 8.020115851496294 2.7567422147091794 4.281975766596404 6.679685152352328 4.113523716658953 -0.0959483221406838 5.329812503466372 0.05456469579053279 1.4435277339454295 9.367169589698358 4.129736656238471 2.7229152865024853 8.080947159467199 -0.001222835608797323 1.4291652999480609 6.735834714825573 1.3518430842665834 2.862741102298154 5.443277301220516 2.7226160224259055 4.313734746408753 9.469567220815229 6.728345267036403 0.051878044136740686 8.092612854257633 8.220487161257145 4.158649825225213 6.712719647217665 9.601882292876205 -0.0857923978040087 5.437964523231791 5.4197318313451674 1.4093141162015812 9.442503436571398 9.553263649243938 2.800115330707007 8.116815135926524 5.454760299215134 1.3682577749089635 6.772026613824717 6.9127255633868865 2.8424404620171857 5.303444760389419 8.233482171383999 9.846857400118347 4.088453905419751 1.448959320893396 5.685786562138778 2.633630353632471 2.7071282658334566 9.886350170673778 1.3909895154974314 4.013760057751683 5.7338044359394065 -0.04100590352690198 0.046592166289730445 7.089098584220186 4.1177134137310745 4.1382247717888125 8.498971999201592 2.6516041316550867 0.07683128809517772 7.004577218112213 1.4193814942384442 1.455890590741978 8.3668474698111 -0.050435524037270335 2.8104617977141637 9.886110311076816 4.103339771341325 6.835671228283322 5.540498896735713 2.6069801590675086 8.098867137206385 9.902300833871573 1.411997405337659 9.636998186206744 5.566038339615691 -0.035822022050561356 5.414852818141598 7.098849885591896 3.956849445435749 9.598509687608678 8.444818651411452 2.6650048855861415 5.380919410207281 7.124282848744252 1.3944932589558185 6.791386869984896 8.54529628491341 0.0843678111323484 8.19510799838822 9.864911878566108 9.490493289391074 1.3742789232961856 5.672704126551352 8.114264105820546 2.679204797893981 9.876193125497863 6.69676337982368 4.1494746352219 5.653383099764506 5.390230221758408 -0.0675204765440509 6.991603503930886 9.417964903131066 4.011525104310857 8.549188959587427 8.008635095180153 -0.07028334526603569 7.143999531782157 6.746508466890263 1.2681208765353964 8.474119630774586 5.377838223141668 2.661445100165848 9.951906936872627 9.317833608953691 6.79770055741327 5.593668147674777 8.10410257728768 8.151674357071533 9.82692663678596 6.614762781162256 9.630491714429413 5.694271315171406 5.366415750465909 5.526125254345963 7.114752352702452 9.305261155219613 9.638149288104302 8.535653704947798 7.987162057056102 5.36421218052375 7.108830959007423 6.756207088817781 6.787633179376406 8.459860313987127 5.35353842845906 8.196649152340646
4.088740525077718 4.286172740868568 1.3353168861348168 -0.02143933990129572 2.8307630308160086 2.729562842387795 4.0715859768959595 1.3924430477371421 4.047539506033007 -0.0304341065186939 0.0017523699468364596 0.024135462690973886 1.4185506132836467 4.123659380262861 4.147459750268077 2.6572190781938514 2.7369216974999646 -0.05400265830523668 1.4005259227834592 1.4161873858506402 1.3921354216649702 2.6119112510856453 -0.09854471622664342 2.788555635049478 3.977800675471633 4.191249222977206 6.823727474316629 -0.009986860700152613 2.7733578084196413 8.197260307931547 4.004035686105181 1.372709933871857 9.579015546989801 -0.05760078468510464 0.09880839571707649 5.5457916399582246 1.2705626966071717 4.2618527025342905 9.752650688769068 2.6666961585458333 2.9049767220629397 5.4701441914820625 1.365464241207665 1.4906350926453311 6.826742209823914 2.757896302299372 -0.036496537469567616 8.197594301952762 4.0566792963701435 9.780149163627605 1.3195587405878104 0.09170992410170949 8.475432282357547 2.8215408406381113 4.03474995208246 7.008035043471173 4.075709264927607 -0.07758549273084459 5.709183932198707 -0.023363101516913676 1.3953567061064276 9.836390900272438 4.1379332300116385 2.646130256956597 8.526030179242568 0.0361812207455914 1.3530691078282235 6.936850370370593 1.3398686533384179 2.6853152265640388 5.522468090364875 2.6639483985226122 4.117381611061467 9.755082033403768 6.928090717965497 -0.0820834253718154 8.431998776960503 8.187684347770652 3.9569183584938776 7.115941480272736 9.570394326317183 0.0024225553183538514 5.7071041602179164 5.519052342299223 1.3834164198479832 9.798430941630965 9.685935383031325 2.678723239303212 8.44124953241653 5.458908149195983 1.345001614085515 7.000119165435465 6.939984860313115 2.7786929234427373 5.574687616116059 8.213379914113355 9.315956802023791 4.259218104959047 1.3586118704500354 5.288313012208502 2.8452950667325005 2.732608340502297 9.420536482587721 1.3975254699152393 4.062142955144826 5.449035549608351 -0.0007943344649296302 0.010519713003736114 6.617321366534708 4.239645396117108 4.1549141891955275 8.004335912762558 2.712256678499038 -0.018684987890813586 6.640994291452881 1.3661091572946824 1.2826161453135936 8.130849332272348 0.07239869742111736 2.8604258748251854 9.452695492439664 4.1715655490163766 6.8366477693478505 5.4445771688909455 2.777427261888658 8.216482542784119 9.386597636175354 1.335528928391707 9.68871610299085 5.2867232446141 0.07898409269468333 5.607554165933998 6.729236830255395 4.137316879202751 9.683012935345692 7.986517771196544 2.7398034945974894 5.486726335436672 6.689441003161784 1.4542429283073934 6.836470884356352 8.045567694414487 0.057551344780648446 8.285707198339148 9.44287892474375 9.828468430249467 1.3957467320193597 5.366802705858624 8.502538533974066 2.7934688628878805 9.376129560405161 7.051936579963737 4.216252630657522 5.340750073539293 5.586697118240741 -0.0036036197025853213 6.687339257890124 9.839851693584372 4.203108208059433 7.961323195885664 8.405144119524437 -0.0678754954956467 6.704781656182272 7.10386166361727 1.4801988781468989 8.068448482196818 5.683925634344306 2.8279790148628523 9.381963469130994 9.886399912962156 6.843610006559827 5.453356597257823 8.455213558764049 8.34725109007077 9.384669479901563 7.0539317547746805 9.707950423153399 5.441696470457964 5.523422829853152 5.5483383443699905 6.635940434552913 9.750618159363645 9.744921583705747 8.04508757800899 8.458125019804246 5.500903502705623 6.6823919714508735 7.053284641358577 6.97457191880613 7.972947066755588 5.548940412539811 8.28783201556622
4.18144010236415 3.9615326723553728 1.2825167285983634 -0.07547706450487966 2.726142717987048 2.7096017643354195 4.092184201228164 1.2888631385737748 4.092666996949943 -0.004422890512448165 -0.005893173175373384 0.09549611794810421 1.330405466144408 3.946038323488373 4.120083444252725 2.734112679108489 2.653034746321014 -0.062367135325036405 1.418823864497716 1.2950354793433745 1.340352590697899 2.7519826894636106 0.02552467631131905 2.7589892486912517 4.077729888496517 3.9127549776073214 6.823316903115147 -0.07771150003356944 2.576123526724227 8.011143268076584 4.115737187981829 1.222965354262935 9.416154357921934 0.04331367332537109 0.06798333045594211 5.404819281531468 1.3016687203371675 4.017785489979413 9.498833946357854 2.6544393424911803 2.5649666759290883 5.383808362047581 1.2789291513188357 1.3127412734665982 6.727363169267488 2.822762074961333 -0.08815565238227129 8.165244874864387 4.014876673125063 9.16620083135025 1.3628294137451944 0.00723317762765966 7.917367041463891 2.631629707880572 4.077510933520653 6.530991209614307 3.9424726417064315 -0.06408921621020496 5.22388912155108 0.0875173986276284 1.3812752756868378 9.20985497966309 4.000329304528674 2.6438123627376324 7.862551663256396 -0.010971833840533542 1.3969918638543393 6.504406791219807 1.3792094354895632 2.6354154394132565 5.249004352057534 2.7552637297769293 4.110034505635458 9.162212566464893 6.781100194218853 0.09297156707639492 7.879200999621077 8.10332769201475 4.10095006368687 6.617999537923052 9.421634800967805 0.02789814824968232 5.2295042219071055 5.353535647084656 1.2963273137009708 9.146435765679028 9.431466974158969 2.756602639454336 7.820808991882847 5.376285069076902 1.416887207736201 6.518893947197832 6.692172725546663 2.68711508831421 5.284803490611259 8.159036406523768 9.466332269740635 4.044341444227051 1.2552042849091167 5.5409665802984405 2.721412195733511 2.689806044967576 9.471777679990367 1.3249173596743826 3.9616541923669772 5.437616547366103 -0.06232115478010501 0.06192375149891227 6.730963883845567 3.91487774609832 3.9641415208927895 8.27692723940322 2.7319373614232827 0.07494719346328935 6.777594725055274 1.2352629604823238 1.387078677322107 8.128902727970518 0.04286591039972967 2.6990328076504753 9.638802009453647 3.8990089842225935 6.7916352128825395 5.415879792137226 2.5916255390153817 8.137628083758688 9.49903210061101 1.3785164429909542 9.482600624447313 5.544130479699672 -0.019070978397734414 5.384971012969418 6.786424084456981 4.04943762129028 9.47580864109602 8.113541941638795 2.6189084237828872 5.469291668949435 6.853057557486723 1.3479174851139923 6.793640840461451 8.114558987501681 -0.04545943208883604 8.14191741173586 9.46867180365774 9.2656118642668 1.2630231670972119 5.3749647705724435 7.965250305135538 2.770562113940531 9.578679162631216 6.593841140661123 3.9760253022077956 5.407776268480509 5.215103553144545 -0.08418599866986114 6.760830437328265 9.137157548576802 4.049768243303834 8.254770090620687 7.859986605714152 -0.0437088870568052 6.7223699010429145 6.548402509294993 1.269849088469765 8.179444105049152 5.326923859318173 2.7332697024514134 9.645442913871596 9.287542394649314 6.779049680869889 5.490351853302892 7.912937582302167 8.116643438871906 9.452061879188713 6.587163013897277 9.33457720778949 5.520365106619418 5.329029111411104 5.37692989148082 6.803839763237185 9.306634173769757 9.465342593249732 8.232280130274837 7.978968929148283 5.441502998187684 6.724504712057586 6.539265518152198 6.758314644655591 8.150047209989681 5.2522010947051445 8.111404941074364
4.17475301609464 3.9890442509058475 1.4719164648879965 0.0844195315385255 2.6995007845609464 2.777649385522347 4.127480786107922 1.360651002979305 4.241558234936173 0.019663933786348446 -0.054551880417782354 0.06888258250112907 1.4672124346780455 3.978449918182469 4.13580799599126 2.7331991297804747 2.7161884954119118 0.09175355740726007 1.4575413746922652 1.2734916152038442 1.4873402242388123 2.843055269120957 0.06508296008101298 2.7809096923769907 4.205458492836642 4.01719075296888 7.025033560208991 -0.03133467823505198 2.646794339915551 8.34015456661267 4.174774100448023 1.3940253149784263 9.877388138874506 -0.07650624080317274 -0.05255552506328795 5.611329885307691 1.4440895572341323 3.9613749210509486 9.727805748652676 2.7861774516142255 2.608147829867957 5.602497760645979 1.3695330642674501 1.316068692603089 7.028202871433247 2.7184711540912865 -0.00394277408255621 8.438931433101972 4.237110546075243 9.492610896371987 1.3446035906494864 0.08807711199901107 8.114158040920865 2.8949527404181445 4.263004351434761 6.820372180734811 4.109359339226936 0.03328553577435224 5.3970285175264 0.046940428846644434 1.3731506954267898 9.381866994783813 4.2857732336824075 2.7157446142880666 8.179626067876812 -0.07010658470013259 1.4757715724485931 6.720579936174713 1.3995416476450142 2.866514386516183 5.312266087819704 2.7712297547687337 4.2327250005716515 9.488522751221371 7.011065730944387 -0.023115109524245947 8.052625020127804 8.441772272294582 4.167158210065647 6.770631971699512 9.767905969380864 -0.02347132412613183 5.375599046569957 5.631494295061175 1.2876947014640854 9.452842476783873 9.864299194235118 2.7785116246054162 8.15532246664347 5.572379316690262 1.3531105723879824 6.837033258718345 7.065666438285792 2.8081762001120003 5.333905292607164 8.466543058410771 9.779633308672858 4.056234536622316 1.448132204569554 5.513089005275431 2.6151334090544727 2.7520896007085227 9.80887064859774 1.3040994380985993 4.149512825689985 5.534037974915312 0.06112908897036064 -0.07127399205584584 6.914128751713424 4.065743579997894 4.185362884657354 8.305476353812253 2.6626542124705446 -0.0030050752084329344 6.904468788755739 1.3769170267626174 1.419379804772472 8.335626979149447 -0.0026244471447355575 2.7827440311212817 9.699342981288904 4.071910198510914 6.938382416320333 5.638685169267469 2.6633122662366455 8.447093297266678 9.724107109188235 1.2841392136620842 9.886204727696885 5.536872155891063 0.05237131439689214 5.667739408228766 6.942298557535459 4.059049852650305 9.722885326394852 8.365597832631485 2.7315600987306756 5.6179137520771265 6.984006737634775 1.3259605834479822 6.957517021866495 8.294317182358782 -0.06111466283383567 8.521238090490995 9.735923224705 9.393802958204015 1.3777093545686814 5.5161295909737715 8.046769118401475 2.86448584978021 9.704900372959447 6.676310561990806 4.23990255834423 5.54962818968757 5.467942965871931 0.04274464252349638 7.033267555056321 9.44372293909447 4.253207895031495 8.29141863862007 8.009870390279021 0.06050876509978679 6.9337627235239125 6.726854195860265 1.4320281973964448 8.308564656731408 5.328380082318099 2.845375657695859 9.74538677026538 9.35277502592699 7.113191680513102 5.570521674186969 8.058013736971287 8.364951985596289 9.791265213523225 6.724663642514089 9.819445006670547 5.649084194296356 5.478377501390725 5.573955094679913 7.011598388293002 9.421099427914884 9.736378202856939 8.374972601967098 8.069241709998954 5.558956351505179 7.034756776226823 6.767383871575774 7.086576568327337 8.384298544379087 5.333555736222136 8.516839228553687
4.16094130399894 4.228223343415856 1.2581431087530446 0.09711983864436372 2.8220997700115515 2.7609728095581376 4.072951218096603 1.3485581271347016 3.913832027898244 0.051154046209538694 0.036320024853667233 0.05555759767986446 1.343940974750574 4.240352502673794 3.9760787068261143 2.8613686116910206 2.739021380911321 0.044090601254711835 1.4861519662985108 1.3514754659311006 1.30244955935223 2.688507013227852 -0.015507426342015225 2.7125269980925393 4.228023233086083 4.086810544756336 6.77363910448784 0.03796475188994158 2.8108767283142675 8.097874832832524 4.171743889160635 1.461816076924464 9.365650218582696 -0.061830719253624426 -0.007764955324365605 5.33866479292092 1.3129036377598273 4.096370871971972 9.308616526166928 2.6962978255049412 2.867359555215495 5.387904300413592 1.3574169439807997 1.4251700296234149 6.643179535845013 2.697659250276594 -0.07043658764916788 8.054033807382359 4.077045610349583 9.671548087238344 1.2953029224625539 0.018166195611180512 8.363113205438319 2.6625387631862245 4.118342536494834 6.8576539649627914 3.9872230534498927 0.09002041879879129 5.457640501908557 -0.018549553040688067 1.462917807953547 9.635237056107362 4.007919857781958 2.7330720333542713 8.25220374148504 0.024928350856013165 1.3641060252288055 6.827413696645126 1.4124079371314213 2.747245016092693 5.462244163708655 2.61963983018746 4.212609116616939 9.745731684601731 6.687262267592374 0.08929417569186496 8.252992940650772 8.06968176064135 4.088931939094989 6.942594054659106 9.318217325134654 -0.05670766996838712 5.553597901895704 5.336236487795593 1.439367745099224 9.624228739539216 9.432235244491416 2.780742136238168 8.349700192266898 5.429053954349853 1.4866106461555169 6.896533828136073 6.774833021174458 2.8132735554101918 5.522721327697977 8.044168817810721 9.667269323670292 4.131701587330136 1.35281103375003 5.500794631788548 2.758656925966391 2.759672092414618 9.792854294617094 1.333320512473278 3.975083776253932 5.484560962339606 -0.042434632065079504 0.06258281931327414 6.938740244487985 4.237205823948892 4.1058603736214545 8.232148864109718 2.706065008342365 -0.06579807517366007 6.890610337531746 1.4684860465117608 1.336989951329327 8.267183910834566 -0.01820441893259769 2.765287548016935 9.77789211271294 4.145497957931066 6.714132138333313 5.4944057160352004 2.7049666499592893 8.043334650031557 9.727585724866595 1.4061055859589306 9.394367175120353 5.602707000409423 0.0010578866309871194 5.263073677957111 6.8684340658177705 4.078172074116054 9.381883888031638 8.224332194879906 2.8629886059899072 5.413685930709477 6.907202631672808 1.319907499301857 6.715905025917867 8.301789507301141 0.03485179962511338 7.9978736302825055 9.798266267243632 9.632943656822333 1.388837638401054 5.447803617720313 8.392229258420183 2.709405052105025 9.724968551564853 6.828892039811703 4.081093909773796 5.554972817251387 5.601989751025184 -0.0783364488138294 6.975523446060001 9.800248258880645 3.9530086839201775 8.298776610201198 8.371133357643911 -0.04930358776681308 6.980002319957826 6.874532934014481 1.3091037899248257 8.340362459687748 5.479659383475521 2.6188933512044894 9.72193991545021 9.777351365136422 6.680587801143733 5.6047991651493465 8.330852722162224 8.114466002758249 9.683745823631766 6.943062852454133 9.271889535361701 5.44855909042597 5.500608012042805 5.4150889514485545 6.8321027988107454 9.721320472800185 9.304687393568308 8.41806372683685 8.405226311917358 5.420740381941617 6.874340693192059 6.98393032834111 6.591449891383545 8.379090553790698 5.580425052453882 8.079672662330598