-6852.129056237247
-6847.807188466544
-6849.500750847316
-6851.133671842802
-6850.98045977863
-6849.667520303215
-6851.8269904202
-6847.6051748262635
-6848.211929637763
-6850.457204731206
-6850.163262328584
-6850.74639493775
-6850.712340979297
-6849.370252533428
-6849.5460813393
-6850.9223761273715
-6846.899013155967
-6847.645794891642
-6848.704858686325
-6848.390982992623
-6845.540011066286
-6850.203775589282
-6849.831915974042
-6848.6842961319935
-6847.274612703804
-6846.267554217512
-6848.725847370928
-6848.794808364717
-6848.995010543174
-6850.647274750881
-6847.031862533421
-6847.841572771197
-6847.718455000955
-6849.138796856089
-6847.721146887104
-6850.827755342824
-6849.503603144573
-6851.491657461864
-6850.5448017133485
-6849.037795954424
-6847.603624593725
-6844.316121116684
-6848.705834622607
-6851.646578673057
-6849.291042235849
-6847.596389086755
-6850.802031197144
-6850.423826567471
-6846.128261728585
-6847.311873523846
-6848.439337621752
-6851.543033370944
-6848.137727731441
-6850.200759479494
-6849.315585543526
-6851.662015827181
-6849.412614127375
-6847.834573595096
-6850.548536475784
-6849.330396563708
-6850.391598628934
-6849.712902632885
-6850.158833947974
-6851.0063281446455
-6845.565462009671
-6847.715270860872
-6846.305254909573
-6849.275611340344
-6848.965342515573
-6851.7195831424315
-6850.7030431215435
-6850.486672074851
-6850.94906927043
-6847.598039865357
-6849.987097326065
-6847.79797414774
-6851.129580747294
-6849.496396889841
-6850.127038398326
-6851.591827599979
-6848.813926946964
-6848.795816546489
-6846.936671398269
-6850.750454468051
-6849.107621862049
-6849.466162729399
-6846.768511168541
-6850.526428450906
-6851.830039727875
-6849.794529709521
-6849.748946559839
-6848.377006001357
-6848.632595591104
