0.43531476178889544 -0.6439099039259168 -0.38629230914360574 1.4989636845526377 -0.9826792277878946 0.6272517265439456 0.3563584976986508 -1.3105272767516785 -0.1975597102584662 0.6876592810977253 -0.2202368401410078 0.09142148643679095 -0.205533215382246 0.5189422061025644 0.7389137083973274 0.7488525647775941 -1.0309028386809729 1.119697429017878 -0.263553757761088 0.6542999889109893 -0.06352321736462609 1.2035195058408563 1.2141350765731735 -1.0982641988447666 -0.14023310862285526 -0.17454730852369293 0.40877197830336054 -1.0584807482992415 -1.5832359615391571 -1.9070504638635157 0.1626749825661392 0.21541884992707416 0.2051768604840918 -1.1286685221682369 -1.787133183979877 -1.1245290460785666 0.4364002815435903 1.2061793120612068 0.9013557490170541 -0.5816141312104887 -0.14988245878716122 -0.246250233485634 1.2050639675098407 1.8504442853336969 1.540881407832346 -0.5964069732489471 -0.9332741949922055 0.3848787166255307 1.059205285170092 0.7421250162457734 1.053520833190805 0.19507525327371567 -0.78429856429003 -0.4900391499149689 0.914783849497502 -0.6092136380953121 0.913306236510711 -0.2526322257525778 1.1102568524302685 -0.24088562673961098 -1.3088192929216362 0.2181514183668888 0.6966010636720454 -0.9701019053435164 -1.2984202090754993 0.49531273960908245 0.9286120136298458 0.6820661032806641 0.007123498418658699 -1.117279563605005 0.12632215496871793 -0.4337996106959497 -0.822932217501828 0.10414767575420773 -0.4705507021730541 1.1962605102855979 -0.19285202037015173 -0.38906755789589764 -0.12843868709108847 0.08267227948925117 -1.0786549092542712 -0.4162132650727542 -2.3461591454772046 -0.32696564635883046 0.1478361177810938 0.671230960338373 -1.048189907896195 -0.6411253992022442 -0.3986582869081263 1.4204825603265987 0.5537454298246786 1.8950462403137878 0.4393285109339789 0.8739315913678304 0.5662142517156507 0.07092850868976172 -1.68350744216741 0.2707356202215079 -0.8849089163149405 0.23299156870351484 -0.068827660296675 -1.0463232870011014 -0.037846124313496106 -1.2647994356972603 -0.8336922842318093 -0.6085649487677196 -0.7631350428385373 -0.7732870436708748 -1.6778805828989363 -0.6522783304952702 1.3271168056792433 -0.07770542240227908 -0.7137971158353578 0.3718126274701919 0.01975095737468211 0.5639102861728224 0.7925464061211189 0.7235372259412571 0.8800659864003424 0.013393904808402739 1.0848993475020865 1.084740710437035 0.4919947309794431 -0.12981962659901514 -1.0124335762321919 -0.5850295846499409 0.45395088883284396 1.4596576878641634 0.8955280865916836 -0.01747810218010538 2.065281037505056 0.39202329809011194 0.7741545338774926 0.29236965355151584 -0.35494387673931127 -0.8921090336078057 -0.544370930588314 0.31750218695308546 0.178812254447634 -0.6303931003864046 0.13786255150814963 -1.7075187174803432 0.2797172548948279 -0.15243762110884715 -0.9232846878796614 -0.5526005175869579 0.7126432047365726 0.34259666802786803 0.9614776540096152 -0.3635796980374384 -1.3995663789992219 1.7096838434524622 -0.1860499098466538 0.4303083097132396 0.9887616865365488 1.433031600636203 0.2304952846442224 -1.6154400570755276 -0.8690912325563936 1.0356601508603003 -0.9689996734182732 1.0219222324489174 -1.0908236834063214 0.29443296383844775 -1.1385413011972585 1.8755019996332731 0.06467481447056604 -0.8813353400310693 -0.10525839231988325 -0.009433120388441818 -1.4604853259717816 0.5038369750300098 -1.107046830133403 1.0373524509610588 -0.23066831988697692 -1.2852093668121802 0.17055875618959015 0.12308847852276866 0.5770838474403029 -1.0478209545925503 -1.273594151170755 1.2280709699279753 -0.702736487145822 1.2417330407961 0.3584436623624537 -0.2065025212740508 -0.23272006020968308 0.047052216292796385 0.39446404632112064 -0.13519631752989617 0.6508837641405887 0.3636820279432575
-2.2536634521396284 0.18471987818132057 -0.05453001272708028 -1.5647188765715763 -0.7574212802832117 -0.4235005427627868 1.3442282685485494 0.9691292570176019 1.651079660656008 -1.5452494549930549 0.00251171067826019 1.9665697022750712 -2.534204745597648 1.8641698624499055 -1.0329900602273048 0.28688960427355104 -1.208869200188544 1.707867873289646 0.5391114819615876 0.35169554500534267 0.48697542338798067 -1.4878194950103603 -1.606781352959265 -1.9863471420123147 0.7021520753972618 -0.2465687931673173 -0.1482282110131899 -1.601302589232881 1.101615888925819 0.8273005217728526 -1.7687135438221089 -0.635894489820608 -0.32292721462339874 -2.330111862206355 -0.8307555702009886 -1.20956879735873 -0.5202874072765491 0.20530515853183998 -2.555246653869612 1.3295626961165747 -1.769023875973676 1.6139583303236784 1.0967855574167111 0.07095499105232296 0.5061897915329024 -0.33415136547399227 0.17118122026493743 -0.5708931452485586 -0.5245289561617225 0.15300712045907197 1.4812603537356037 -0.9701965219398516 0.14684829994652773 -0.08036137196788741 -1.381193275808673 0.8737436437267404 -0.9549609359370199 -1.0802086268946363 0.4147603346763115 1.0415803729994773 -0.023571359562036823 0.14245711285736753 -0.5534451249754404 -2.399042366629481 1.3837677214040685 3.2195883432873194 -0.6671231088175866 1.1951109700621871 -0.7352028352046435 1.714070916776564 -0.14211772724007782 0.7354663732786753 1.2134856159146328 1.1628215139008617 1.7523255893823884 -1.8430171396316906 -0.4577489224226955 -0.6897225913846573 1.5886183088969932 -2.827883604878891 -2.233440183114218 -0.9228393728121268 -0.28842635263305166 -0.29029965839636457 0.9565071973782173 0.24200277106318963 -1.3453276722603151 -0.13185414053054065 -1.2013903753129955 -1.3386438324822365 -0.22431306709291046 -0.2033999710893271 0.7633116776257176 -1.4491398190519753 0.6517558823328968 0.4701372687847193 1.3200195325128299 -0.028249224653680384 0.4236594369381542 2.2499482080715705 -1.1526273469766795 0.9461083706423964 2.585428576769631 1.9733399311193691 2.084633216779423 0.3729220584842868 0.40118182466092844 1.6266878620752048 -1.4821854366530345 -0.2004087496714871 -1.510303020824857 -0.8934686329594935 1.3725150313083847 1.8800520808978007 -0.592098061460948 -0.17522042333131757 0.34841070360648385 -0.8730414754533932 -0.7708817766634918 -1.5401535285273862 1.503922828330126 -0.42323443358559365 -0.4646911580684836 1.3745179206710263 0.3002824806406893 -1.9957974887919374 2.3241813556545328 -1.1002912565771246 -2.1725425762978974 -0.10989537687126236 0.5696387040161673 0.20292405989417311 0.9514035576030647 -0.6329006972996069 -1.2087424448026924 1.9980114657241206 -1.189284336078081 0.4253782194014738 -1.0366898776763953 -0.6063980230233879 0.24051641632565027 -0.055925093302394 -0.5550605490916763 -0.9997444108002975 1.0447137764221361 0.34243931651439735 -0.37424206284729095 -0.2481016848720759 -1.2761593407947698 -1.2766079982964142 0.9228406583637074 0.5540143672153491 0.8793887578276597 0.3002184601719733 2.1079844899108533 0.9637556514105144 0.9060724377664331 -0.3517875904985167 1.1689019157669869 1.3252470994603565 -0.40993925913858426 0.928364159285098 -1.385230421992524 1.2022948894051357 0.3182737750117874 1.1287752229494303 -0.4160703117369866 0.28470313814519355 1.280729990884588 0.21791924775142468 0.14255892854255447 0.5096067876342514 1.0596847959096716 -1.3055714754082999 0.688270432319163 0.1386472521929741 -0.5205522309021615 0.3234319221739591 0.5410974020433649 1.3575506966890685 0.17489286478856977 -0.5293950260047722 -1.2264162079333716 -0.438055043538194 -0.18372100460316101 -0.4466096179764244 -0.3907305474206174 0.7386614831772053 -1.2487812058921333 1.0061060913522673 -0.6293489753926065 0.3709124842534257
-0.3842799066992672 -0.25004878129611774 0.6618281789672344 -1.1779588837629327 0.9002103225587013 1.0625166089315121 1.1368554288544033 -0.7825337590801232 -0.2624183586050642 -1.188966547727346 0.6246101751560404 -0.9244481120601432 -0.7050265687315794 -0.44681273512616604 -1.098902603759714 -1.6393001515225767 2.0362779654044867 2.2197230906384418 0.6281822087780149 0.0664388483495243 -0.6493192478669462 -0.8890838736282365 -0.3298205993091223 0.15681646690283313 0.6828708585701464 -0.7642604146922323 -0.4027962203358999 -2.0233985383386575 1.14710975959256 1.6536847023790229 0.3700020566240144 -1.7667852164511442 -2.220647145114608 -2.514327032837115 1.8762666457134396 1.1360984960837208 -1.0957398897610162 -1.8168312252649417 -0.1306917447913233 0.7490171153799164 1.76134630482376 0.3421271845906172 -0.09065504058441161 -2.01823010676384 0.04479658748940027 -0.6627378352656974 3.1373945460963837 0.9748507328824113 1.190756292637917 1.3373477393786322 1.3779179474915106 -2.136868519935055 0.39551022819744786 0.669965206252072 0.6812729179554073 1.1026067920841784 -0.12821243001289534 -0.7709455400218916 0.409858783609636 0.13275094131319717 1.1083398379132139 -0.31552192329826306 -2.573021718464846 -1.1587555713616045 -1.1727773395619931 -1.6763960279336099 -1.0013330954436561 -0.723273173646593 0.4949869808385476 0.5080579550898927 -1.2666989667128183 -0.8514830325563272 -0.1646051097093165 -2.0361789779327775 -0.8970141842189067 -0.4464784917151988 -0.3437441513687499 0.843874881191766 0.6603251120591467 -0.2816656368704504 0.37416672952466523 -1.5375549145622747 0.2721623253657055 0.5988834598138976 -1.4822085765814859 -0.8306313859182985 0.22139820743896066 0.618870701569102 -1.223979573467421 1.504638880560544 0.16589477505501754 -0.6584479496410918 0.199908670106617 -0.652843973190753 1.574527892242198 -1.1034089762704997 2.0248743515532355 0.3315005581147065 -0.08290136478092174 -1.4720156952088843 -0.7655809332758686 -1.8331929544524173 1.7225974661903363 -1.4918288732800695 -1.1951580212500383 -0.9075785899983144 0.5486752143906227 1.208359607541977 1.7533897689808449 1.330923066799211 1.58911993112376 -1.0397330353780931 0.150099974114606 -0.3798157002803265 0.9766875289808341 -0.18683332497989757 1.203737021168301 1.2793302823235837 2.72169267344241 -1.1287022036196497 0.7702397722041187 0.26017481398652614 -0.5236583806313111 -0.47708978884315256 0.25090470153850986 -0.5727613088055491 3.2961761071453877 1.2694976125038782 1.296298020526174 -0.4001922070541495 2.9315327437301253 0.09735867785683233 1.2652162115197048 -0.3252527774327818 0.07875520382303211 -0.3375074264304187 1.6838565979767128 0.15252143907190507 0.7225069849045298 -1.1859465299540994 0.7332549674496532 -1.2311244120423184 -0.46734762185472417 -2.173740196150424 1.109328169968412 -0.9775341932518457 0.010364116843143442 0.8284618890708055 -1.1878378334395414 0.17800544227562246 1.8046624511128917 -0.3386767641481716 -0.24981018292275045 -0.3478879983337944 0.0602453179443027 0.21379314139819308 -0.5740671721011661 -2.7960574615072296 0.1315072987140832 -0.12124756865928797 -0.15287805108037542 0.12601310836873136 -1.179607475109949 1.6347112466003137 -0.3761927588157586 0.017858625447975694 -1.2911311316132539 1.1486076842943251 0.3134269884424473 0.028914111931188913 0.6796088999894232 -0.6344533864987073 -1.9450066313923149 -1.411705328354601 1.4991829996522954 0.46520974957611494 -0.47364965281335203 -0.91184456436352 -0.5038619147306742 -0.4527463270017816 2.5249510882098645 0.07550995741285704 0.5001099038874096 0.583026438176983 0.6519021781027741 -0.6695006079108277 0.4779331106800543 -0.09015470390922538 0.7672786326932656 -0.11287811364867012 -0.3028481844853365 -0.3433327748629442
0.6025951043375299 1.0270693238674957 0.7292548451513248 -0.5309644273744211 0.3116506132683149 -1.4034325468228475 -1.252801897015752 0.784308848702675 -2.169035848696219 -1.1196388078658008 -1.9638713295073014 -1.099274642387152 0.3729554828253835 1.5585284314901482 0.7918339534351266 -1.278466648771708 -0.4646363935711482 1.1370639453207838 2.267642025806907 1.145668142050027 0.8993286912846963 0.530784450153131 -0.2607029185758542 -0.347145463740815 0.7365768327340347 0.2735237244896063 -0.7211263025069192 1.8250939794943664 1.4635989319000988 -0.6321023697680275 1.9902251369104818 -0.6347426356043521 0.5344379877453183 0.2343668517844867 -2.013705222310293 0.3637792156427542 -1.2043237469097066 -0.44123601236933685 -0.6739416744013168 -0.5539266925975491 0.49878295754587004 0.5861747539979776 0.8961551786527211 -0.5926112536519407 0.8358813214633282 -0.9309188073861516 -1.0719533288643797 -1.4851743440780292 0.5974071323786873 0.6285053964453885 0.7310952407941732 1.5969743941711723 0.8007119726510468 -0.2909375490906796 0.1553627651754421 0.8321023140368701 0.10795650797733665 2.278322131228573 0.1879836365342569 0.19592140332409483 -1.1679020137475629 1.2339528826300492 -0.6618508046750536 0.7113432549782265 0.12242461968652464 -0.049818466184023885 -1.1125628748556258 -0.21715254478872922 0.4867990457111165 -0.08903087471742732 -1.1856446824429645 -0.36982233651304053 -1.2672131873450756 0.3668642823259811 0.9581586169387111 -0.5491225863406866 -0.5190730752534737 0.9843105927437306 0.44360245571898443 0.3482682644913486 -0.9272233608124354 2.7409859744543827 -1.2898571499968368 1.1277539807737675 0.05305779905692797 1.149708887778304 -0.06340417528825855 0.7894777944981242 -0.9671813892626117 0.6581520156672278 0.9817194349777866 -0.7977955703352002 -1.0127086842704496 -0.7147319689448013 0.9081833134618488 -0.1778768871175582 0.24064985657972102 -1.7651152849478893 -0.09536015936956481 -1.3623694582339503 1.5642421940454736 1.6805244482796866 -1.138814352352987 -0.9448302752609211 0.5352460854689105 -0.8972982911182289 -0.39094369187268796 -0.49696724449337 -0.38608507822880606 -0.8527292462586025 -0.9606587576527456 -0.4054082040374502 0.5413820231633193 0.5968227206301271 1.4058648104134241 -1.8715828670845251 -1.1425630207621418 0.7014339662843145 0.18956975007445415 -0.9685859829196222 -0.9344671868590423 -0.9846844311433817 -0.25197016668854666 1.0348795639405337 0.36571114255814435 0.8146897749873776 -0.6853997956395873 -1.3815617148916852 0.062410443916421546 2.596045175943213 -1.0265569030074513 0.9494250937204552 -0.8274434751086202 -0.020345139315255285 -1.0313376122255464 0.8013141250114199 0.9145606777431023 0.47270014441588915 -0.9858535117508183 -0.9917907031708598 -0.09926463663029356 -0.31596338171105587 -1.9351274246053896 0.1372403445431185 -0.6244209419633698 0.2693132859526846 -0.05658432415294771 -0.7995994563131584 -0.800024459665719 -0.7150317595734074 -1.1584794348820824 -0.2109919245039721 -2.1305294650909046 0.24428411089819863 -0.39649701759074946 0.7439291593340478 0.44865184521743384 0.4381725429526647 1.3452759930867735 0.05681700898904408 0.9471262703839494 1.3859565015252713 -0.9676948385639205 -0.06571971079531262 0.539208155440452 -0.663302963740548 0.8893759509473587 1.2966826575591024 -0.958422669233375 2.2466448547299502 -0.5591360047126306 0.5598024346520359 -0.3264797078613474 0.4877007315897794 0.5404129743818306 0.6666880781626969 -1.8918591008350583 -0.7344178774095029 0.009167525431880987 0.04347709734702835 -0.6474845086510526 2.078859290410123 -1.3947833557882818 -1.3171254987944865 1.5769737826795291 0.9427623369882989 -0.356456970949728 -0.005889111790925342 0.6712566713699858 -0.49669110801384775 0.051408693489279206 0.046296311963378335
-1.1460831181002584 -1.6165134926453644 -0.29271520981639265 -1.067993315775367 0.02153427452735001 -0.10922843271122479 -1.3092293838758613 -0.08319986985794703 0.8329710897950687 -0.7706547482543502 0.10661104969303574 0.30308164065238125 -1.9876961998410414 1.9458134435643264 -1.104969121668768 0.5411459958931132 1.039724550737661 0.7055325618337204 -1.0459119104952954 -0.4596939619642083 0.10513626491972215 1.627319839232249 1.357873627246126 -1.2665513853913608 1.3167118082958356 -0.17832631595015094 0.577585983887702 -1.3413871995553286 0.6547841276362595 1.1155836639598207 0.8834302748868849 0.023338417615624323 -0.16468352835573574 -0.6843147901055248 -0.44117096345935636 -0.7563655853251877 0.34306075214848014 -0.6305687067323205 -1.7620528439724814 1.0566439522008189 -2.068129305587129 0.15271272914710474 0.147144748141024 -0.7793404489538062 0.38707083918084306 -0.9720734272475906 0.10792231230529155 0.23169907514433644 -0.05062913501077733 0.876726123393832 0.9186271345029922 -2.049993000997734 -1.0618522358746358 -0.8336778860541062 -0.028727449841679555 -0.461306814977283 0.35018810722188076 -1.5257232120346693 -0.42214531428647295 0.6805789772121763 -1.4575843502749026 0.09989712800796988 1.433863095398563 0.30630246158252405 -2.005814763818623 0.11522398817302737 -0.2449788229723781 1.1540571374446704 0.6115086047770759 0.021049107360815365 0.5943457198445441 0.8535198604806977 -0.6859037318591993 -0.014214600937485196 -0.5571518844030662 -0.6872484188125519 0.2020254593393037 0.9547025400693107 0.5002538856644416 -0.6886681819782139 0.5996671320574576 -1.114256460507965 -1.0452459947765225 -0.273353003239697 -1.4459832757008644 0.872061370928311 -1.5764143106316333 0.5199187110832207 -0.7830878318113804 0.9024541242875554 0.10264846550086193 0.3659908785820923 -0.49649570417359007 -1.3531235141556504 0.374730058227303 0.9508754530137365 1.5522603390932492 -0.24915763694041607 0.02394802617516521 0.9817536306498318 -0.08677164636960538 -0.6084001410550812 1.8535830880729947 1.3129356290828549 1.289525991909663 -2.1549243489955012 -0.11652805169643157 -0.38869474793751124 1.4737141659572297 -0.9398677890493231 -0.7654415794845268 0.7633397026501757 0.6082517884026751 0.5776016676169858 1.1501441755435096 0.8207778901629865 2.340668811786595 -1.3954346162190354 -1.4101318132198941 -1.8060585601294703 0.486678203862536 0.24879176896056504 0.07315354136553852 -1.2612140323388472 0.6328629020831359 0.4513306776011775 1.8357275479488124 0.45014668459540536 -0.6406142638937806 0.6604091871325206 -0.47621869909210884 -0.9520170228173477 -0.5873479483704722 0.42033757165377283 -0.5043298555060283 1.169010673430709 1.0416371943793417 -0.745375147751955 0.4057203359612303 -0.9267546487061328 0.7254737808423376 -0.5276996405802202 -0.7818256772695051 -0.09510124928122331 0.7869501429802641 -0.21224945106015705 0.045316464548612274 -0.13146204729844457 -0.3830846008395854 -0.0341992715895282 2.0886094278183513 0.14806957394813855 -0.4225811162723109 0.7905535440608062 1.5352108398101303 -0.29106147626305356 0.004300170037250658 0.9251453952374842 -0.024280212703603348 1.4234370149692324 -0.15796832111908923 2.172886075680245 -0.06223946555619603 -0.8031002703775653 -0.7959939983500871 -0.37625369396068103 -0.4233226224240258 -0.16693530050438993 1.228440437452252 -0.06470875303229502 0.32462748514395706 -1.0886081638122413 -0.5798022748127305 -0.6170403332285825 0.835550934707103 -0.4283630130614106 -1.6866367318250113 -1.4043175205309624 1.8856822826003847 0.3620524627596345 1.1860889690692349 1.4919191190010306 -1.4502937301507604 -0.18201019255964138 -0.2853662256504892 0.752257476694085 0.6831238551212171 -0.559954643959184 -0.7459199645118315 1.415982615573716 0.30525088038955817 0.013209299601422413
-1.7672104769140211 -0.440406574489506 1.005100275795572 0.1579901754959602 -0.5848753184602636 -0.9862309496948951 0.9272153903926355 0.5615885800181811 -0.2967256165273664 -0.6431943659161309 -1.3852090818362854 -1.3602048464824639 0.2658497528841164 -0.9038983129332497 -0.940530876554619 0.2895455538391594 -0.46087692652871587 0.14503207267339538 -0.4038753123326915 0.8080637850304276 0.7199111991528956 -0.2905092033040093 -2.186823254586627 -0.7017101027638366 -0.362061461620699 0.44485535428947903 -1.0002501467921225 1.0518298186416273 0.026803236235773194 2.2278896856096337 0.10555072674932145 0.5948314012317111 1.3045314641795598 -1.453030155245317 -2.5838355212508985 -1.4611908366792383 -0.34036675025608476 -1.172797394166651 -0.6892379384387548 0.8969992718205712 0.5141591828916242 0.7337884713556201 1.9361617794071753 -0.5807453554522902 1.1566680927049564 -1.846247730753846 -1.7612509168964763 -1.3336273531042517 -0.06672938300674959 2.2408390466814505 0.07468514751871654 -0.44891846861525914 0.4318324596672498 -0.31375146166140155 0.10477451070492924 0.18697293588155542 1.3638694398182447 0.25085533635781315 1.6978559975795986 -1.636353410189427 0.027949691135390576 1.6772882007305758 0.747490651433061 0.631629543896667 -0.01783728529173702 0.005620174400254837 -1.0136108843697444 0.7348806759785343 -0.4360282429161523 1.2805333014927494 -1.117457998164398 -0.7254408707218731 0.02433420586999035 1.8921316377701545 -0.6619302517627375 -1.5850825278295928 -0.7663777181455511 -1.3288186188616986 -0.412603950454941 0.08696267933448894 0.2802037076129432 -1.312667720133449 0.8915148516672324 0.8797985916715687 0.9176318604692583 2.9189099127597924 1.2285386535930132 0.11800900711733224 0.8502059656161164 -0.35673722119430823 -0.5305669348256863 0.33086678118544954 0.3585156532509696 0.4622208421511201 -0.26743535220368136 -0.37600558250561694 0.9655356261290726 0.23590591413683243 3.1647415706507687 -2.3685351991795596 -2.5013360198940857 -1.2327861160154576 0.9292136517695867 0.409368731347095 1.528534456231219 -0.5112479227821001 -1.5443302856128953 -0.3475200734714144 2.508616869826215 1.7193149387843227 2.470906499759635 -2.8341930920366867 -1.783496615668554 -1.4512936321701844 0.4662425617160035 1.497338233134073 -0.6617101653321313 -0.08201844795533617 -3.305582230950636 -0.047675965919724346 -1.6894695732881162 1.2498253308859315 -1.3331833235882975 0.8661023251313986 0.36330613266107753 0.0052123974388748944 0.6378025054765983 -1.1047541774444847 -0.07355951855470558 -0.6143568728591484 -1.5997681548662255 0.4670928255314407 0.7946966196949024 -2.2274968210465897 -0.3910575917427329 1.0200332429563206 0.7028030787176993 -1.382436918407787 -0.7978732176506711 -0.9862006106775919 0.24520765115373253 1.048570174053749 -0.7807962075637263 0.0329168053326788 0.9853125516456837 1.4470104314137984 1.229763784249366 0.24218506227732486 -1.0796270433595536 -1.8639446338129768 0.32401581970188714 0.6604390119291916 1.1967292223919002 -0.29874547517087263 1.6418632842640626 0.3969970971556195 1.2221576897673339 2.814550378105095 0.6220614405922578 -1.7678550524765557 0.5993835393787678 -0.0890874389869756 0.673658595943259 0.9568229288464233 0.9512672891355166 -1.0220356180983303 -0.4920590085584751 -0.9256182211088446 -0.10489818076698708 1.4331264743428545 0.12338698359979396 -0.11200830944920709 0.3292744969976652 0.196183655846546 2.239966157158194 0.06068883323962451 0.8170377063942639 -1.8749918927660743 -1.5091228844738267 -0.6226831333366566 0.24820324344694672 0.26043089586139023 0.4713315462031366 -0.14747899155199115 -0.9312139700290673 -0.06547725576720337 2.1618365027343027 1.229116123363038 0.22768069801356272 -0.08084705335505431 -0.4255201442959769 -1.2858865953848628
0.3925681148499884 0.376903411729538 -1.2100958735067933 -0.2907529438836992 -0.4526216284984592 0.09721341052821968 0.8608768150664011 -0.38894671604731723 -0.3601881558573861 -0.6438132304470525 2.4625324167633265 1.7202598191960954 -0.2797352526169569 0.6421255583319845 1.1207191854141731 0.42549700436752524 -0.40637262483324854 0.46085892880658696 -0.8303251675317893 0.8419121010384403 -0.9144269803787155 -0.07543719519339266 -0.7717374397955676 1.167682441537589 0.2226271947500553 0.18290853600419466 -0.5038950819614547 -0.17759637976266188 0.27686538726832965 0.4310153630825932 -0.981737946920548 0.5167495693266196 -1.7615926165066111 0.7003728720096519 1.0051632678230238 0.6871149785584811 -1.2598181804325852 0.42754591647675405 0.08690328685146324 -0.3254109002772009 1.089281278619866 0.6397100069119562 -0.10146781492919944 -0.2832455797630606 -0.6813047996346073 0.6919126570574406 0.9986858876287962 0.11070193193295771 -0.6483553412917802 -1.5499296340775435 0.5943557471468731 -0.8612938479991619 -1.2523491257490496 -0.9933068827050701 -2.045318992560832 -1.8663172478102115 2.00551343052812 0.7914020081040306 -0.5687760989055559 0.3356366917702671 0.5903273427137705 0.6517517685678389 -0.894369290396892 1.2226204883363652 -1.0271749962074246 1.6815022388119234 -0.13264089809789414 0.30188042125542847 0.3620876868729441 -0.2971879008757656 1.1289832251951781 0.6623321151868464 -1.282887660657539 -1.6083597531899783 0.6412338997556504 0.43056953379442614 0.3686730533999457 0.32215768344722584 -0.28998341270752637 0.07660319047703582 -0.33234516550318893 1.1846566074980824 0.23734058970082994 -0.4510339722963652 0.9437648101108843 -1.4656964378590758 -2.7584190823291657 0.8717793209115179 -0.8328746734265204 0.7575356943738889 0.9767127257918146 -1.3750840775871414 -0.6130803201395699 -0.008216217262205205 0.6595699790606769 -1.1113901947037634 -0.7172513929325454 -0.3215354764821946 -0.39036313677886963 0.23801601850129975 0.7298482557609496 1.3365105881893176 -0.8792270354388149 0.7592331366809698 0.30071108353767567 1.4935006045555377 0.09512670320252004 1.2153314108741198 -0.15333416478118755 -0.9194532299487133 0.15380621932159963 0.20226637170551617 0.9001419312146111 1.1273675439686262 0.5232763147015439 -0.7291676847541572 -0.44856365637900164 0.21702656073382623 1.1069167323134421 -0.22790798353302041 0.07991759956224946 -0.308579687652475 1.2146816931052626 -0.798700855758289 -0.08718225154446275 -0.955818913061941 0.014117670348304719 0.4105306128656801 -1.34538115120607 0.8781183757556684 0.8366138287539785 -1.4026038802739649 -0.2202388970235368 -0.03143816390462328 0.9740120390311998 -0.2714629853058357 -0.5764189601627943 -1.0685689857731793 0.36076562562741094 0.3123648657265201 1.0822886493521169 1.9746668774609086 2.3801211042449464 -2.480487715690167 -0.45110313497140375 -1.4580594901391084 1.112988906649451 1.9311658688544804 2.0779545192076663 -1.8101101044910246 0.34446380314359387 0.28018288167733685 -0.6008472684084878 -0.08639163732236735 -1.0477417646151828 0.3663778296078658 -1.3297876676431872 -0.8154387373382601 -0.09281836678431755 0.6231888693284816 0.4945354951234257 -0.005529928679293703 -0.03951425604453839 -0.2740633990431603 0.8187588028504287 0.46520846402453425 0.4725723605887732 -0.5270599501136923 -0.9812229549573425 -0.22791389707029133 -0.8300022369747317 0.059826228129013094 0.3680428760151146 0.0879857212823646 -0.943278614503085 -0.27938275437354465 -0.08628982163718042 -0.6231284484041915 -0.2568470351648738 0.6529280482641271 -2.272135285691571 -2.3637704308010643 1.4146530981290153 0.09641508299664041 -0.08085373822327366 1.1909072163934844 0.08937283143787834 -0.5631183863991462 -0.7045856245394189 0.401756723327792 0.7207907735443715 -1.371456251026567