An instance of this daemon is already running

     Program PWSCF v.7.1 starts on 10May2023 at 11:17:56 

     This program is part of the open-source Quantum ESPRESSO suite
     for quantum simulation of materials; please cite
         "P. Giannozzi et al., J. Phys.:Condens. Matter 21 395502 (2009);
         "P. Giannozzi et al., J. Phys.:Condens. Matter 29 465901 (2017);
         "P. Giannozzi et al., J. Chem. Phys. 152 154105 (2020);
          URL http://www.quantum-espresso.org", 
     in publications or presentations arising from this work. More details at
     http://www.quantum-espresso.org/quote

     Parallel version (MPI & OpenMP), running on       4 processor cores
     Number of MPI processes:                 4
     Threads/MPI process:                     1

     MPI processes distributed on     1 nodes
     753571 MiB available memory on the printing compute node when the environment starts
 
     Reading input from pw-si-47.in
Warning: card &CELL ignored
Warning: card / ignored

     Current dimensions of program PWSCF are:
     Max number of different atomic species (ntypx) = 10
     Max number of k-points (npk) =  40000
     Max angular momentum in pseudopotentials (lmaxx) =  4

     IMPORTANT: XC functional enforced from input :
     Exchange-correlation= PBE
                           (   1   4   3   4   0   0   0)
     Any further DFT definition will be discarded
     Please, verify this is what you really want


     gamma-point specific algorithms are used
 
     K-points division:     npool     =       2
     R & G space division:  proc/nbgrp/npool/nimage =       2
     Subspace diagonalization in iterative solution of the eigenvalue problem:
     a serial algorithm will be used

     Message from routine divide_et_impera:
     suboptimal parallelization: some nodes have no k-points
 
     Parallelization info
     --------------------
     sticks:   dense  smooth     PW     G-vecs:    dense   smooth      PW
     Min        1976    1976    521                93999    93999   12752
     Max        1977    1977    524                94000    94000   12753
     Sum        3953    3953   1045               187999   187999   25505
 
     Using Slab Decomposition
 


     bravais-lattice index     =            0
     lattice parameter (alat)  =      20.5041  a.u.
     unit-cell volume          =    8465.4936 (a.u.)^3
     number of atoms/cell      =           64
     number of atomic types    =            1
     number of electrons       =       256.00
     number of Kohn-Sham states=          154
     kinetic-energy cutoff     =      30.0000  Ry
     charge density cutoff     =     120.0000  Ry
     scf convergence threshold =      1.0E-06
     mixing beta               =       0.5000
     number of iterations used =            8  plain     mixing
     Exchange-correlation= PBE
                           (   1   4   3   4   0   0   0)

     GPU acceleration is ACTIVE.
     GPU-aware MPI enabled

     Message from routine print_cuda_info:
     High GPU oversubscription detected. Are you sure this is what you want?

     celldm(1)=  20.504067  celldm(2)=   0.000000  celldm(3)=   0.000000
     celldm(4)=   0.000000  celldm(5)=   0.000000  celldm(6)=   0.000000

     crystal axes: (cart. coord. in units of alat)
               a(1) = (   1.000000   0.000000   0.000000 )  
               a(2) = (   0.000000   0.985180   0.000000 )  
               a(3) = (   0.000000   0.000000   0.996820 )  

     reciprocal axes: (cart. coord. in units 2 pi/alat)
               b(1) = (  1.000000  0.000000  0.000000 )  
               b(2) = (  0.000000  1.015043  0.000000 )  
               b(3) = (  0.000000  0.000000  1.003190 )  


     PseudoPot. # 1 for Si read from file:
     /home/ppiaggi/pseudos/Si_ONCV_PBE_sr.upf
     MD5 check sum: 8553c464762ac42b85b1eed164b4d029
     Pseudo is Norm-conserving, Zval =  4.0
     Generated using ONCVPSP code by D. R. Hamann
     Using radial grid of 1510 points,  4 beta functions with: 
                l(1) =   0
                l(2) =   0
                l(3) =   1
                l(4) =   1

     atomic species   valence    mass     pseudopotential
        Si             4.00    28.08500     Si( 1.00)

     No symmetry found



   Cartesian axes

     site n.     atom                  positions (alat units)
         1           Si  tau(   1) = (   0.0030154   0.0039610  -0.0011850  )
         2           Si  tau(   2) = (  -0.0071897   0.2426624   0.2444189  )
         3           Si  tau(   3) = (   0.2384343  -0.0017593   0.2368432  )
         4           Si  tau(   4) = (   0.2493497   0.2418511   0.0058097  )
         5           Si  tau(   5) = (   0.1213695   0.1157023   0.1183805  )
         6           Si  tau(   6) = (   0.4978985   0.0002010   0.0043950  )
         7           Si  tau(   7) = (   0.4911754   0.2376895   0.2376340  )
         8           Si  tau(   8) = (   0.6168208   0.1146231   0.1241899  )
         9           Si  tau(   9) = (   0.7279330  -0.0084931   0.2381445  )
        10           Si  tau(  10) = (   0.7276097   0.2374643   0.0053411  )
        11           Si  tau(  11) = (   0.0085579   0.4827154   0.0041768  )
        12           Si  tau(  12) = (   0.2524212   0.4768829   0.2371397  )
        13           Si  tau(  13) = (   0.1140425   0.5981688   0.1173198  )
        14           Si  tau(  14) = (   0.3709760   0.3561223   0.1228437  )
        15           Si  tau(  15) = (   0.4850933   0.4804884   0.0038542  )
        16           Si  tau(  16) = (   0.6051790   0.5912871   0.1158421  )
        17           Si  tau(  17) = (   0.8595877   0.3582091   0.1161436  )
        18           Si  tau(  18) = (   0.7312693   0.4719006   0.2472018  )
        19           Si  tau(  19) = (  -0.0067858   0.7146134   0.2494230  )
        20           Si  tau(  20) = (   0.2448954   0.7123042   0.0070110  )
        21           Si  tau(  21) = (   0.3737543   0.8446167   0.1251325  )
        22           Si  tau(  22) = (   0.4898550   0.7192762   0.2499835  )
        23           Si  tau(  23) = (   0.7353048   0.7184132  -0.0055090  )
        24           Si  tau(  24) = (   0.8518399   0.8361959   0.1273621  )
        25           Si  tau(  25) = (  -0.0084271  -0.0033570   0.4863974  )
        26           Si  tau(  26) = (   0.2397128   0.2413896   0.4882637  )
        27           Si  tau(  27) = (   0.1267139   0.1258984   0.6199296  )
        28           Si  tau(  28) = (   0.3586915   0.1156491   0.3621650  )
        29           Si  tau(  29) = (   0.4899296  -0.0074463   0.4864491  )
        30           Si  tau(  30) = (   0.6083385   0.1160638   0.6065997  )
        31           Si  tau(  31) = (   0.8648083   0.1222081   0.3699325  )
        32           Si  tau(  32) = (   0.7330256   0.2407363   0.4821145  )
        33           Si  tau(  33) = (   0.1173990   0.3590467   0.3746156  )
        34           Si  tau(  34) = (   0.0076866   0.4865080   0.4872585  )
        35           Si  tau(  35) = (   0.1263050   0.6001472   0.6078710  )
        36           Si  tau(  36) = (   0.6155538   0.3620383   0.3731775  )
        37           Si  tau(  37) = (   0.3743259   0.5903942   0.3624870  )
        38           Si  tau(  38) = (   0.3627940   0.3539568   0.6101314  )
        39           Si  tau(  39) = (   0.4961175   0.4744385   0.4907390  )
        40           Si  tau(  40) = (   0.6044292   0.6063811   0.6103928  )
        41           Si  tau(  41) = (   0.8487607   0.5977033   0.3705150  )
        42           Si  tau(  42) = (   0.8539435   0.3608509   0.6040794  )
        43           Si  tau(  43) = (   0.1159039   0.8433594   0.3637704  )
        44           Si  tau(  44) = (   0.2450654   0.7124387   0.4807570  )
        45           Si  tau(  45) = (   0.6169991   0.8299860   0.3705337  )
        46           Si  tau(  46) = (   0.3744489   0.8464288   0.6139725  )
        47           Si  tau(  47) = (   0.7344632   0.7217120   0.4958654  )
        48           Si  tau(  48) = (   0.8590733   0.8318009   0.6036071  )
        49           Si  tau(  49) = (   0.0032388   0.2379658   0.7414400  )
        50           Si  tau(  50) = (   0.2465851  -0.0025577   0.7326961  )
        51           Si  tau(  51) = (   0.3649176   0.1120501   0.8604837  )
        52           Si  tau(  52) = (   0.4871717   0.2322810   0.7263314  )
        53           Si  tau(  53) = (   0.7364968   0.0069779   0.7426081  )
        54           Si  tau(  54) = (   0.8523985   0.1232324   0.8510133  )
        55           Si  tau(  55) = (   0.1175613   0.3579681   0.8553408  )
        56           Si  tau(  56) = (   0.2448657   0.4706518   0.7341848  )
        57           Si  tau(  57) = (   0.6033766   0.3574115   0.8542962  )
        58           Si  tau(  58) = (   0.3593056   0.5945954   0.8652118  )
        59           Si  tau(  59) = (   0.7264200   0.4703423   0.7324913  )
        60           Si  tau(  60) = (   0.8596219   0.6055366   0.8585938  )
        61           Si  tau(  61) = (  -0.0041064   0.7201319   0.7338510  )
        62           Si  tau(  62) = (   0.1257297   0.8370218   0.8650142  )
        63           Si  tau(  63) = (   0.4918853   0.7189856   0.7423293  )
        64           Si  tau(  64) = (   0.6082108   0.8433557   0.8589787  )

     number of k points=     1  Fermi-Dirac smearing, width (Ry)=  0.0100
                       cart. coord. in units 2pi/alat
        k(    1) = (   0.0000000   0.0000000   0.0000000), wk =   2.0000000

     Dense  grid:    94000 G-vectors     FFT dimensions: (  72,  72,  72)

     Estimated max dynamical RAM per process >     150.25 MB

     Estimated total dynamical RAM >     578.04 MB

     Initial potential from superposition of free atoms

     starting charge     255.9608, renormalised to     256.0000
     Starting wfcs are  256 randomized atomic wfcs

     total cpu time spent up to now is        5.2 secs

     Self-consistent Calculation

     iteration #  1     ecut=    30.00 Ry     beta= 0.50
     Davidson diagonalization with overlap
     ethr =  1.00E-02,  avg # of iterations =  3.0

     Threshold (ethr) on eigenvalues was too large:
     Diagonalizing with lowered threshold

     Davidson diagonalization with overlap
     ethr =  7.06E-04,  avg # of iterations =  4.0

     total cpu time spent up to now is        5.5 secs

     total energy              =    -503.26493426 Ry
     estimated scf accuracy    <       2.00874726 Ry

     iteration #  2     ecut=    30.00 Ry     beta= 0.50
     Davidson diagonalization with overlap
     ethr =  7.85E-04,  avg # of iterations =  2.0

     total cpu time spent up to now is        5.6 secs

     total energy              =    -503.24100539 Ry
     estimated scf accuracy    <       0.40810208 Ry

     iteration #  3     ecut=    30.00 Ry     beta= 0.50
     Davidson diagonalization with overlap
     ethr =  1.59E-04,  avg # of iterations = 15.0

     total cpu time spent up to now is        5.7 secs

     total energy              =    -503.15446371 Ry
     estimated scf accuracy    <       0.98171948 Ry

     iteration #  4     ecut=    30.00 Ry     beta= 0.50
     Davidson diagonalization with overlap
     ethr =  1.59E-04,  avg # of iterations =  5.0

     total cpu time spent up to now is        5.8 secs

     total energy              =    -503.30541864 Ry
     estimated scf accuracy    <       0.03528824 Ry

     iteration #  5     ecut=    30.00 Ry     beta= 0.50
     Davidson diagonalization with overlap
     ethr =  1.38E-05,  avg # of iterations = 13.0

     total cpu time spent up to now is        6.0 secs

     total energy              =    -503.30727800 Ry
     estimated scf accuracy    <       0.01454767 Ry

     iteration #  6     ecut=    30.00 Ry     beta= 0.50
     Davidson diagonalization with overlap
     ethr =  5.68E-06,  avg # of iterations =  6.0

     total cpu time spent up to now is        6.1 secs

     total energy              =    -503.30898939 Ry
     estimated scf accuracy    <       0.00307416 Ry

     iteration #  7     ecut=    30.00 Ry     beta= 0.50
     Davidson diagonalization with overlap
     ethr =  1.20E-06,  avg # of iterations = 11.0

     total cpu time spent up to now is        6.3 secs

     total energy              =    -503.30955515 Ry
     estimated scf accuracy    <       0.00045802 Ry

     iteration #  8     ecut=    30.00 Ry     beta= 0.50
     Davidson diagonalization with overlap
     ethr =  1.79E-07,  avg # of iterations =  3.0

     total cpu time spent up to now is        6.4 secs

     total energy              =    -503.30959457 Ry
     estimated scf accuracy    <       0.00015886 Ry

     iteration #  9     ecut=    30.00 Ry     beta= 0.50
     Davidson diagonalization with overlap
     ethr =  6.21E-08,  avg # of iterations =  3.0

     total cpu time spent up to now is        6.5 secs

     total energy              =    -503.30960635 Ry
     estimated scf accuracy    <       0.00005499 Ry

     iteration # 10     ecut=    30.00 Ry     beta= 0.50
     Davidson diagonalization with overlap
     ethr =  2.15E-08,  avg # of iterations =  3.0

     total cpu time spent up to now is        6.6 secs

     total energy              =    -503.30961257 Ry
     estimated scf accuracy    <       0.00000624 Ry

     iteration # 11     ecut=    30.00 Ry     beta= 0.50
     Davidson diagonalization with overlap
     ethr =  2.44E-09,  avg # of iterations =  5.0

     total cpu time spent up to now is        6.7 secs

     End of self-consistent calculation

          k = 0.0000 0.0000 0.0000 ( 11764 PWs)   bands (ev):

    -5.8248  -4.8813  -4.8439  -4.7803  -4.5856  -4.5808  -4.4564  -4.0081
    -3.9688  -3.8570  -3.7634  -3.7484  -3.7196  -3.6602  -3.6030  -3.5342
    -3.4564  -3.3710  -3.3402  -3.3214  -3.2080  -3.1817  -2.8225  -1.8433
    -1.7002  -1.6446  -1.6071  -1.5688  -1.5227  -1.4472  -1.4417  -1.3670
    -1.3162  -1.3034  -1.2676  -1.1872  -1.1461  -1.0558  -1.0337  -1.0059
    -0.8878  -0.7831  -0.6112  -0.5520  -0.4529   0.6530   0.6885   0.7524
     0.7915   0.8514   0.8786   0.9274   0.9624   1.0221   1.0584   1.1099
     1.1407   2.1485   2.2205   2.2384   2.2616   2.2918   2.3270   2.3467
     2.3754   2.3859   2.4008   2.4596   2.4632   2.5360   2.5386   2.5805
     2.5948   2.6523   2.6913   2.7090   2.7327   2.7580   2.7865   2.8549
     2.8983   2.9937   3.0505   3.1002   3.1441   3.1690   3.2238   3.4060
     3.4479   3.5070   3.5428   3.6311   3.6626   4.2333   4.2815   4.3497
     4.3589   4.4306   4.4872   4.5104   4.6295   4.6708   4.6784   4.7503
     4.7847   4.8560   4.8902   4.9511   4.9807   4.9885   5.0161   5.0254
     5.0729   5.0974   5.1406   5.1786   5.2013   5.2258   5.2552   5.3065
     5.3336   5.4033   5.7404   5.9294   6.0163   6.2808   6.6423   6.7116
     6.8064   6.8440   6.9180   7.0280   7.1416   7.2477   7.3897   7.4162
     7.5880   7.5911   7.6337   7.6813   7.8733   7.9078   7.9122   8.0315
     8.5066   8.5330   8.5645   8.6000   8.7148   8.7501   8.7666   8.7864
     8.8400   8.8518

     the Fermi energy is     6.7086 ev

!    total energy              =    -503.30961378 Ry
     estimated scf accuracy    <       0.00000043 Ry
     smearing contrib. (-TS)   =      -0.07908430 Ry
     internal energy E=F+TS    =    -503.23052948 Ry

     The total energy is F=E-TS. E is the sum of the following terms:
     one-electron contribution =     150.01704507 Ry
     hartree contribution      =      38.47346098 Ry
     xc contribution           =    -154.98628426 Ry
     ewald contribution        =    -536.73475127 Ry

     convergence has been achieved in  11 iterations

     Forces acting on atoms (cartesian axes, Ry/au):

     atom    1 type  1   force =    -0.08252794   -0.09158567   -0.07243828
     atom    2 type  1   force =    -0.00788533   -0.01347262   -0.00925211
     atom    3 type  1   force =     0.01967477   -0.08918973    0.02782754
     atom    4 type  1   force =    -0.03264246   -0.02906136   -0.09309952
     atom    5 type  1   force =    -0.01639715    0.06357881    0.01714705
     atom    6 type  1   force =    -0.04737029   -0.07531401   -0.07199690
     atom    7 type  1   force =     0.01581134   -0.01131662    0.07135373
     atom    8 type  1   force =    -0.02667543    0.01764885    0.00080474
     atom    9 type  1   force =     0.07237945   -0.05812180    0.07878574
     atom   10 type  1   force =     0.03503641    0.02525511   -0.09930746
     atom   11 type  1   force =    -0.12908055   -0.07157134   -0.12153277
     atom   12 type  1   force =    -0.07001778    0.00500702    0.03316168
     atom   13 type  1   force =     0.05930168    0.03969534    0.09921511
     atom   14 type  1   force =    -0.00010733    0.00169862   -0.01494594
     atom   15 type  1   force =    -0.01522699   -0.03630718   -0.10785567
     atom   16 type  1   force =     0.06234225    0.06306603    0.05173715
     atom   17 type  1   force =     0.04110300    0.01585066    0.01193642
     atom   18 type  1   force =     0.02787725    0.03573437   -0.04809994
     atom   19 type  1   force =    -0.04911332    0.01425480   -0.00906850
     atom   20 type  1   force =     0.01638541    0.05741917   -0.04665960
     atom   21 type  1   force =    -0.02424590    0.03751267   -0.01665964
     atom   22 type  1   force =     0.02066666   -0.00478860   -0.03754589
     atom   23 type  1   force =    -0.01495946    0.00851846   -0.01646832
     atom   24 type  1   force =     0.05202882    0.04843313   -0.01714236
     atom   25 type  1   force =     0.00988665   -0.03681823    0.03716805
     atom   26 type  1   force =     0.01943986   -0.03074513   -0.00318818
     atom   27 type  1   force =    -0.04052105   -0.05671072   -0.03989136
     atom   28 type  1   force =     0.02568578    0.00362309    0.00476435
     atom   29 type  1   force =     0.00073707   -0.04465495   -0.02142660
     atom   30 type  1   force =     0.04328580   -0.01078948   -0.00162346
     atom   31 type  1   force =    -0.01364519   -0.03967445   -0.04961945
     atom   32 type  1   force =     0.02899808   -0.04285818    0.04604040
     atom   33 type  1   force =     0.01606410    0.00671242   -0.08801487
     atom   34 type  1   force =    -0.11618167   -0.00200613    0.01214817
     atom   35 type  1   force =    -0.00404098    0.00994169    0.05677276
     atom   36 type  1   force =    -0.04158061   -0.04613495   -0.06324933
     atom   37 type  1   force =    -0.02516002    0.00481643    0.01792741
     atom   38 type  1   force =     0.02948512    0.01152195   -0.01063803
     atom   39 type  1   force =    -0.04710309    0.02341300    0.03048235
     atom   40 type  1   force =     0.02891672   -0.03775873    0.02752053
     atom   41 type  1   force =     0.06607120   -0.00940774   -0.00766150
     atom   42 type  1   force =     0.07575422   -0.00181505    0.02203451
     atom   43 type  1   force =     0.01204868    0.03894621    0.00459688
     atom   44 type  1   force =     0.03200966    0.06392604    0.01352269
     atom   45 type  1   force =    -0.02450478    0.10751235   -0.02594860
     atom   46 type  1   force =    -0.04018428    0.00072965   -0.01788747
     atom   47 type  1   force =    -0.00932520   -0.04355643   -0.01833608
     atom   48 type  1   force =     0.07279691    0.12478459    0.07561354
     atom   49 type  1   force =    -0.10667851    0.00038167   -0.03361335
     atom   50 type  1   force =    -0.00627876   -0.08060779    0.02428498
     atom   51 type  1   force =     0.01957042    0.02145084    0.04792834
     atom   52 type  1   force =    -0.01612252    0.00247807    0.05021607
     atom   53 type  1   force =    -0.05046898   -0.13156829   -0.07710965
     atom   54 type  1   force =     0.08695845    0.04357674    0.10975063
     atom   55 type  1   force =     0.03255304    0.01780874    0.09714596
     atom   56 type  1   force =    -0.01222158    0.03883990    0.00466352
     atom   57 type  1   force =    -0.00743049   -0.02255632    0.06798340
     atom   58 type  1   force =     0.01715528    0.00683349    0.00959872
     atom   59 type  1   force =     0.04153388    0.06506064    0.00543149
     atom   60 type  1   force =     0.02443356   -0.04838012    0.01131410
     atom   61 type  1   force =    -0.01031074    0.00982767    0.00564803
     atom   62 type  1   force =    -0.01321491    0.05645515    0.00786234
     atom   63 type  1   force =    -0.05013949    0.00863401    0.00541814
     atom   64 type  1   force =     0.04537126    0.06582424    0.05247436

     Total force =     0.664050     Total SCF correction =     0.000928


     Computing stress (Cartesian axis) and pressure

          total   stress  (Ry/bohr**3)                   (kbar)     P=       64.80
   0.00043223   0.00010017   0.00011262           63.58       14.74       16.57
   0.00010017   0.00045511   0.00012797           14.74       66.95       18.83
   0.00011262   0.00012797   0.00043411           16.57       18.83       63.86

 
     init_run     :      1.26s CPU      5.14s WALL (       1 calls)
     electrons    :      1.37s CPU      1.49s WALL (       1 calls)
     forces       :      0.04s CPU      0.04s WALL (       1 calls)
     stress       :      0.16s CPU      0.16s WALL (       1 calls)

     Called by init_run:
     wfcinit      :      0.53s CPU      4.23s WALL (       1 calls)
                                        4.23s GPU  (       1 calls)
     potinit      :      0.20s CPU      0.29s WALL (       1 calls)
     hinit0       :      0.51s CPU      0.54s WALL (       1 calls)

     Called by electrons:
     c_bands      :      0.90s CPU      0.96s WALL (      12 calls)
     sum_band     :      0.24s CPU      0.28s WALL (      12 calls)
     v_of_rho     :      0.12s CPU      0.23s WALL (      12 calls)
     mix_rho      :      0.09s CPU      0.11s WALL (      12 calls)

     Called by c_bands:
     init_us_2    :      0.04s CPU      0.05s WALL (      25 calls)
     init_us_2:gp :      0.04s CPU      0.05s WALL (      25 calls)
     regterg      :      0.80s CPU      0.85s WALL (      12 calls)

     Called by *egterg:
     rdiaghg      :      0.39s CPU      1.14s WALL (      84 calls)
                                        1.12s GPU  (      84 calls)
     h_psi        :      0.78s CPU      3.77s WALL (      86 calls)
                                        3.77s GPU  (      86 calls)
     g_psi        :      0.00s CPU      0.00s WALL (      73 calls)
                                        0.00s GPU  (      73 calls)

     Called by h_psi:
     h_psi:calbec :      0.47s CPU      3.38s WALL (      86 calls)
                                        3.38s GPU  (      86 calls)
     vloc_psi     :      0.26s CPU      0.33s WALL (      86 calls)
                                        0.33s GPU  (      86 calls)
     add_vuspsi   :      0.04s CPU      0.05s WALL (      86 calls)
                                        0.05s GPU  (      86 calls)

     General routines
     calbec       :      0.47s CPU      3.38s WALL (      91 calls)
     fft          :      0.57s CPU      0.71s WALL (     103 calls)
                                        0.13s GPU  (      66 calls)
     ffts         :      0.03s CPU      0.03s WALL (      12 calls)
     fftw         :      0.31s CPU      0.43s WALL (    1340 calls)
                                        0.38s GPU  (    1340 calls)
 
     Parallel routines
 
     PWSCF        :      2.87s CPU      6.92s WALL

 
   This run was terminated on:  11:18: 3  10May2023            

=------------------------------------------------------------------------------=
   JOB DONE.
=------------------------------------------------------------------------------=
