
     Program PWSCF v.7.0 starts on  8Jul2023 at 22:11:16 

     This program is part of the open-source Quantum ESPRESSO suite
     for quantum simulation of materials; please cite
         "P. Giannozzi et al., J. Phys.:Condens. Matter 21 395502 (2009);
         "P. Giannozzi et al., J. Phys.:Condens. Matter 29 465901 (2017);
         "P. Giannozzi et al., J. Chem. Phys. 152 154105 (2020);
          URL http://www.quantum-espresso.org", 
     in publications or presentations arising from this work. More details at
     http://www.quantum-espresso.org/quote

     Parallel version (MPI & OpenMP), running on       1 processor cores
     Number of MPI processes:                 1
     Threads/MPI process:                     1

     MPI processes distributed on     1 nodes
     109231 MiB available memory on the printing compute node when the environment starts
 
     Reading input from pw-si-9.in
Warning: card &CELL ignored
Warning: card / ignored

     Current dimensions of program PWSCF are:
     Max number of different atomic species (ntypx) = 10
     Max number of k-points (npk) =  40000
     Max angular momentum in pseudopotentials (lmaxx) =  4

     IMPORTANT: XC functional enforced from input :
     Exchange-correlation= PBE
                           (   1   4   3   4   0   0   0)
     Any further DFT definition will be discarded
     Please, verify this is what you really want


     gamma-point specific algorithms are used

     Subspace diagonalization in iterative solution of the eigenvalue problem:
     a serial algorithm will be used

 
     G-vector sticks info
     --------------------
     sticks:   dense  smooth     PW     G-vecs:    dense   smooth      PW
     Sum        4071    4071   1023               193037   193037   24129
 
     Using Slab Decomposition
 


     bravais-lattice index     =            0
     lattice parameter (alat)  =      20.2945  a.u.
     unit-cell volume          =    8694.0206 (a.u.)^3
     number of atoms/cell      =           64
     number of atomic types    =            1
     number of electrons       =       256.00
     number of Kohn-Sham states=          128
     kinetic-energy cutoff     =      30.0000  Ry
     charge density cutoff     =     120.0000  Ry
     scf convergence threshold =      1.0E-06
     mixing beta               =       0.5000
     number of iterations used =            8  plain     mixing
     Exchange-correlation= PBE
                           (   1   4   3   4   0   0   0)

     GPU acceleration is ACTIVE.


     celldm(1)=  20.294520  celldm(2)=   0.000000  celldm(3)=   0.000000
     celldm(4)=   0.000000  celldm(5)=   0.000000  celldm(6)=   0.000000

     crystal axes: (cart. coord. in units of alat)
               a(1) = (   1.000000   0.000000   0.000000 )  
               a(2) = (   0.000000   1.033687   0.000000 )  
               a(3) = (   0.000000   0.000000   1.006225 )  

     reciprocal axes: (cart. coord. in units 2 pi/alat)
               b(1) = (  1.000000  0.000000  0.000000 )  
               b(2) = (  0.000000  0.967411  0.000000 )  
               b(3) = (  0.000000  0.000000  0.993813 )  


     PseudoPot. # 1 for Si read from file:
     ./Si_ONCV_PBE-1.0.upf
     MD5 check sum: 2de5a83d12544a9ea852f39b88f19b1f
     Pseudo is Norm-conserving, Zval =  4.0
     Generated using ONCVPSP code by D. R. Hamann
     Using radial grid of  602 points,  4 beta functions with: 
                l(1) =   0
                l(2) =   0
                l(3) =   1
                l(4) =   1

     atomic species   valence    mass     pseudopotential
        Si             4.00    28.08500     Si( 1.00)

     No symmetry found



   Cartesian axes

     site n.     atom                  positions (alat units)
         1           Si  tau(   1) = (   0.3636151   0.3938039   0.1364786  )
         2           Si  tau(   2) = (  -0.0039926   0.2655299   0.2476296  )
         3           Si  tau(   3) = (   0.3762210   0.1364177   0.3778541  )
         4           Si  tau(   4) = (   0.0001494   0.0039566   0.0021080  )
         5           Si  tau(   5) = (   0.1222280   0.3796455   0.3835056  )
         6           Si  tau(   6) = (   0.2536771   0.2600591  -0.0022090  )
         7           Si  tau(   7) = (   0.1153519   0.1220225   0.1308855  )
         8           Si  tau(   8) = (   0.2426031  -0.0086149   0.2521310  )
         9           Si  tau(   9) = (   0.3781086   0.3844421   0.6400738  )
        10           Si  tau(  10) = (  -0.0082141   0.2656444   0.7592045  )
        11           Si  tau(  11) = (   0.3766100   0.1310205   0.8845891  )
        12           Si  tau(  12) = (  -0.0032617   0.0085243   0.5134220  )
        13           Si  tau(  13) = (   0.1216884   0.3934012   0.8900759  )
        14           Si  tau(  14) = (   0.2404446   0.2532991   0.5152046  )
        15           Si  tau(  15) = (   0.1152027   0.1266879   0.6368291  )
        16           Si  tau(  16) = (   0.2454600   0.0047434   0.7598431  )
        17           Si  tau(  17) = (   0.3798225   0.9036974   0.1339125  )
        18           Si  tau(  18) = (   0.0002005   0.7719570   0.2471548  )
        19           Si  tau(  19) = (   0.3783005   0.6365957   0.3790952  )
        20           Si  tau(  20) = (   0.0042115   0.5220782   0.0074199  )
        21           Si  tau(  21) = (   0.1185799   0.8938282   0.3908488  )
        22           Si  tau(  22) = (   0.2449013   0.7702629   0.0043208  )
        23           Si  tau(  23) = (   0.1247408   0.6386410   0.1249456  )
        24           Si  tau(  24) = (   0.2437155   0.5101778   0.2483670  )
        25           Si  tau(  25) = (   0.3717417   0.9038715   0.6333787  )
        26           Si  tau(  26) = (   0.0080420   0.7732150   0.7624677  )
        27           Si  tau(  27) = (   0.3692767   0.6397156   0.8967713  )
        28           Si  tau(  28) = (  -0.0026452   0.5241500   0.5169620  )
        29           Si  tau(  29) = (   0.1188717   0.8956094   0.8994332  )
        30           Si  tau(  30) = (   0.2468161   0.7787971   0.5066280  )
        31           Si  tau(  31) = (   0.1256095   0.6508077   0.6290730  )
        32           Si  tau(  32) = (   0.2502100   0.5231699   0.7704103  )
        33           Si  tau(  33) = (   0.8613734   0.3873543   0.1224480  )
        34           Si  tau(  34) = (   0.4952273   0.2552368   0.2492463  )
        35           Si  tau(  35) = (   0.8652317   0.1262287   0.3884323  )
        36           Si  tau(  36) = (   0.4888677   0.0058240   0.0068540  )
        37           Si  tau(  37) = (   0.6121975   0.3785134   0.3891968  )
        38           Si  tau(  38) = (   0.7479122   0.2587323   0.0046535  )
        39           Si  tau(  39) = (   0.6126634   0.1257223   0.1258761  )
        40           Si  tau(  40) = (   0.7356992   0.0077231   0.2510484  )
        41           Si  tau(  41) = (   0.8678350   0.3952805   0.6373996  )
        42           Si  tau(  42) = (   0.4990770   0.2631177   0.7675057  )
        43           Si  tau(  43) = (   0.8608980   0.1373124   0.8880863  )
        44           Si  tau(  44) = (   0.4934790   0.0042226   0.5120299  )
        45           Si  tau(  45) = (   0.6139994   0.3954598   0.8884840  )
        46           Si  tau(  46) = (   0.7371500   0.2550236   0.5068465  )
        47           Si  tau(  47) = (   0.6224882   0.1202881   0.6317885  )
        48           Si  tau(  48) = (   0.7482883  -0.0021810   0.7638162  )
        49           Si  tau(  49) = (   0.8734583   0.9015877   0.1342515  )
        50           Si  tau(  50) = (   0.5048578   0.7662694   0.2481590  )
        51           Si  tau(  51) = (   0.8595978   0.6352626   0.3775788  )
        52           Si  tau(  52) = (   0.4883859   0.5091624  -0.0078567  )
        53           Si  tau(  53) = (   0.6187777   0.8983116   0.3840924  )
        54           Si  tau(  54) = (   0.7377928   0.7746521   0.0024424  )
        55           Si  tau(  55) = (   0.6162145   0.6445492   0.1277158  )
        56           Si  tau(  56) = (   0.7486156   0.5132900   0.2465858  )
        57           Si  tau(  57) = (   0.8706124   0.9084640   0.6458132  )
        58           Si  tau(  58) = (   0.4902066   0.7734080   0.7566921  )
        59           Si  tau(  59) = (   0.8639389   0.6343369   0.8931483  )
        60           Si  tau(  60) = (   0.4928273   0.5228078   0.5194200  )
        61           Si  tau(  61) = (   0.6263603   0.8958852   0.8970209  )
        62           Si  tau(  62) = (   0.7425541   0.7681865   0.5077522  )
        63           Si  tau(  63) = (   0.6223862   0.6531214   0.6296709  )
        64           Si  tau(  64) = (   0.7385206   0.5089203   0.7582816  )

     number of k points=     1
                       cart. coord. in units 2pi/alat
        k(    1) = (   0.0000000   0.0000000   0.0000000), wk =   2.0000000

     Dense  grid:    96519 G-vectors     FFT dimensions: (  72,  75,  72)

     Estimated max dynamical RAM per process >     281.11 MB

     Initial potential from superposition of free atoms

     starting charge     253.0416, renormalised to     256.0000
     Starting wfcs are random

     total cpu time spent up to now is        1.4 secs

     Self-consistent Calculation

     iteration #  1     ecut=    30.00 Ry     beta= 0.50
     Davidson diagonalization with overlap
     ethr =  1.00E-02,  avg # of iterations = 12.0

     Threshold (ethr) on eigenvalues was too large:
     Diagonalizing with lowered threshold

     Davidson diagonalization with overlap
     ethr =  6.36E-04,  avg # of iterations = 16.0

     total cpu time spent up to now is        1.8 secs

     total energy              =    -503.45340756 Ry
     estimated scf accuracy    <       1.92349719 Ry

     iteration #  2     ecut=    30.00 Ry     beta= 0.50
     Davidson diagonalization with overlap
     ethr =  7.51E-04,  avg # of iterations =  1.0

     total cpu time spent up to now is        2.0 secs

     total energy              =    -503.46072859 Ry
     estimated scf accuracy    <       0.34313353 Ry

     iteration #  3     ecut=    30.00 Ry     beta= 0.50
     Davidson diagonalization with overlap
     ethr =  1.34E-04,  avg # of iterations =  2.0

     total cpu time spent up to now is        2.1 secs

     total energy              =    -503.48947626 Ry
     estimated scf accuracy    <       0.00756335 Ry

     iteration #  4     ecut=    30.00 Ry     beta= 0.50
     Davidson diagonalization with overlap
     ethr =  2.95E-06,  avg # of iterations = 15.0

     total cpu time spent up to now is        2.3 secs

     total energy              =    -503.49826056 Ry
     estimated scf accuracy    <       0.00515276 Ry

     iteration #  5     ecut=    30.00 Ry     beta= 0.50
     Davidson diagonalization with overlap
     ethr =  2.01E-06,  avg # of iterations =  4.0

     total cpu time spent up to now is        2.4 secs

     total energy              =    -503.49909187 Ry
     estimated scf accuracy    <       0.00119499 Ry

     iteration #  6     ecut=    30.00 Ry     beta= 0.50
     Davidson diagonalization with overlap
     ethr =  4.67E-07,  avg # of iterations = 12.0

     total cpu time spent up to now is        2.6 secs

     total energy              =    -503.49931448 Ry
     estimated scf accuracy    <       0.00028364 Ry

     iteration #  7     ecut=    30.00 Ry     beta= 0.50
     Davidson diagonalization with overlap
     ethr =  1.11E-07,  avg # of iterations =  8.0

     total cpu time spent up to now is        2.8 secs

     total energy              =    -503.49935074 Ry
     estimated scf accuracy    <       0.00003575 Ry

     iteration #  8     ecut=    30.00 Ry     beta= 0.50
     Davidson diagonalization with overlap
     ethr =  1.40E-08,  avg # of iterations = 12.0

     total cpu time spent up to now is        3.0 secs

     total energy              =    -503.49936001 Ry
     estimated scf accuracy    <       0.00001018 Ry

     iteration #  9     ecut=    30.00 Ry     beta= 0.50
     Davidson diagonalization with overlap
     ethr =  3.98E-09,  avg # of iterations = 12.0

     total cpu time spent up to now is        3.2 secs

     total energy              =    -503.49936126 Ry
     estimated scf accuracy    <       0.00000409 Ry

     iteration # 10     ecut=    30.00 Ry     beta= 0.50
     Davidson diagonalization with overlap
     ethr =  1.60E-09,  avg # of iterations =  8.0

     total cpu time spent up to now is        3.3 secs

     End of self-consistent calculation

          k = 0.0000 0.0000 0.0000 ( 12065 PWs)   bands (ev):

    -5.8036  -4.8759  -4.7980  -4.7338  -4.6900  -4.6528  -4.6021  -3.9638
    -3.9543  -3.9002  -3.8263  -3.8171  -3.7803  -3.7351  -3.6533  -3.6397
    -3.6067  -3.5551  -3.5291  -3.4907  -3.3629  -3.2912  -3.2449  -1.9601
    -1.8582  -1.7848  -1.7670  -1.7261  -1.6358  -1.6023  -1.5818  -1.5039
    -1.4714  -1.4436  -1.3901  -1.3657  -1.3444  -1.2778  -1.2473  -1.1643
    -1.1056  -0.8468  -0.7547  -0.6938  -0.5650   0.4133   0.5391   0.5990
     0.6649   0.6817   0.7232   0.7559   0.7700   0.8091   0.8408   0.9169
     0.9651   2.0767   2.0866   2.1415   2.1656   2.2126   2.2140   2.2691
     2.3038   2.3238   2.3294   2.3382   2.3706   2.3912   2.4032   2.4201
     2.4321   2.4592   2.4931   2.5415   2.5565   2.5828   2.6134   2.6321
     2.6852   2.7174   2.7563   2.7803   2.8485   2.9391   3.0282   3.2248
     3.2527   3.2682   3.3720   3.4908   3.5648   4.0932   4.1079   4.1393
     4.1900   4.2257   4.3120   4.3147   4.3523   4.4287   4.4402   4.4887
     4.5360   4.5602   4.6364   4.6986   4.7165   4.7437   4.7760   4.8372
     4.9059   4.9263   4.9556   5.0045   5.0472   5.0676   5.1279   5.1374
     5.2050   5.2632   5.3066   5.4191   5.4775   6.0936   6.2599   6.5293

     highest occupied level (ev):     6.5293

!    total energy              =    -503.49936178 Ry
     estimated scf accuracy    <       0.00000077 Ry

     The total energy is the sum of the following terms:
     one-electron contribution =     148.51747596 Ry
     hartree contribution      =      37.17351930 Ry
     xc contribution           =    -154.31186867 Ry
     ewald contribution        =    -534.87848837 Ry

     convergence has been achieved in  10 iterations

     Forces acting on atoms (cartesian axes, Ry/au):

     atom    1 type  1   force =     0.06530792   -0.07231953   -0.07676499
     atom    2 type  1   force =    -0.03107697   -0.04194157    0.03225490
     atom    3 type  1   force =    -0.05714332   -0.04756050    0.01887869
     atom    4 type  1   force =    -0.06361669   -0.02225612    0.00635208
     atom    5 type  1   force =    -0.01757224    0.04105630    0.00958969
     atom    6 type  1   force =    -0.04247085   -0.01000480    0.05195409
     atom    7 type  1   force =     0.05064206    0.04870505   -0.00910941
     atom    8 type  1   force =     0.00925445    0.01362726    0.04782424
     atom    9 type  1   force =    -0.05726506    0.02005267    0.00468134
     atom   10 type  1   force =     0.00503850   -0.00825132    0.01766274
     atom   11 type  1   force =    -0.02700399    0.00169756   -0.02196031
     atom   12 type  1   force =    -0.03115405   -0.07284094   -0.02156295
     atom   13 type  1   force =     0.00566443   -0.02658315   -0.02563112
     atom   14 type  1   force =     0.04821853    0.01397180   -0.01746678
     atom   15 type  1   force =     0.01491604    0.03529891    0.03082669
     atom   16 type  1   force =    -0.00610726   -0.04288459    0.02387805
     atom   17 type  1   force =    -0.04386731   -0.02176406   -0.01629703
     atom   18 type  1   force =    -0.01705664   -0.02742231    0.05524335
     atom   19 type  1   force =    -0.04306572    0.03376781   -0.01452320
     atom   20 type  1   force =    -0.07570625   -0.05353568   -0.01439408
     atom   21 type  1   force =    -0.02510732    0.05902581   -0.04684868
     atom   22 type  1   force =     0.04478392    0.01644142    0.05037084
     atom   23 type  1   force =     0.01184170    0.04948026    0.04149301
     atom   24 type  1   force =    -0.02847314    0.04195222    0.09237404
     atom   25 type  1   force =    -0.02225749    0.02725436    0.00496503
     atom   26 type  1   force =    -0.06778301   -0.01008262    0.00762656
     atom   27 type  1   force =     0.00198653    0.06858760   -0.06523356
     atom   28 type  1   force =    -0.01756381   -0.03431139   -0.05791591
     atom   29 type  1   force =     0.01915505    0.05073316   -0.05918417
     atom   30 type  1   force =     0.04869441   -0.04346417   -0.00345424
     atom   31 type  1   force =     0.02556815   -0.00861989    0.04202354
     atom   32 type  1   force =    -0.02717158   -0.03489181   -0.06419611
     atom   33 type  1   force =     0.08224592    0.01657474    0.01133823
     atom   34 type  1   force =    -0.00618197    0.04279969    0.01251395
     atom   35 type  1   force =     0.01237596    0.03232398   -0.05206483
     atom   36 type  1   force =     0.02983987   -0.05904468   -0.02236043
     atom   37 type  1   force =     0.00465528    0.05228490   -0.03774070
     atom   38 type  1   force =    -0.08321156    0.00968141    0.00615612
     atom   39 type  1   force =     0.03177931    0.04384484   -0.00908212
     atom   40 type  1   force =     0.03976651   -0.06049566    0.04158020
     atom   41 type  1   force =     0.00002158   -0.04200033   -0.03736549
     atom   42 type  1   force =     0.02446104   -0.04465771   -0.04018021
     atom   43 type  1   force =     0.06786938   -0.03962701   -0.03848840
     atom   44 type  1   force =    -0.00331562   -0.03363599   -0.04211568
     atom   45 type  1   force =     0.06018516   -0.07131527   -0.01852868
     atom   46 type  1   force =     0.04625292    0.00789780    0.03151809
     atom   47 type  1   force =    -0.00044735    0.03878729    0.04802521
     atom   48 type  1   force =    -0.03916422    0.00500673    0.02747684
     atom   49 type  1   force =    -0.03250999    0.03814711   -0.03906916
     atom   50 type  1   force =    -0.04180675    0.03789708    0.06489710
     atom   51 type  1   force =     0.06772698    0.03972727    0.01170029
     atom   52 type  1   force =     0.00382888    0.03058205    0.12654695
     atom   53 type  1   force =    -0.00295631    0.02823192   -0.00921434
     atom   54 type  1   force =     0.08726878   -0.05603110    0.07424392
     atom   55 type  1   force =     0.03119184   -0.05621081   -0.05386098
     atom   56 type  1   force =    -0.07667038   -0.01929311    0.03696228
     atom   57 type  1   force =     0.03749172   -0.04029487   -0.04703979
     atom   58 type  1   force =     0.02704871   -0.00283217    0.04416682
     atom   59 type  1   force =     0.02278063    0.03921594   -0.04406359
     atom   60 type  1   force =     0.02049010   -0.04332438   -0.03351542
     atom   61 type  1   force =    -0.08840412    0.08458666   -0.08645999
     atom   62 type  1   force =     0.05090190    0.05685547   -0.01476931
     atom   63 type  1   force =    -0.02172225   -0.03859363    0.05593833
     atom   64 type  1   force =    -0.00140097    0.05999409    0.00939845

     Total force =     0.586593     Total SCF correction =     0.001403


     Computing stress (Cartesian axis) and pressure

          total   stress  (Ry/bohr**3)                   (kbar)     P=       34.82
   0.00031983  -0.00009000   0.00005109           47.05      -13.24        7.52
  -0.00009000   0.00011712   0.00003178          -13.24       17.23        4.68
   0.00005109   0.00003178   0.00027315            7.52        4.68       40.18

 
     init_run     :      0.89s CPU      1.39s WALL (       1 calls)
     electrons    :      1.84s CPU      1.92s WALL (       1 calls)
     forces       :      0.06s CPU      0.07s WALL (       1 calls)
     stress       :      0.23s CPU      0.25s WALL (       1 calls)

     Called by init_run:
     wfcinit      :      0.52s CPU      0.89s WALL (       1 calls)
                                        0.89s GPU  (       1 calls)
     potinit      :      0.21s CPU      0.28s WALL (       1 calls)
     hinit0       :      0.11s CPU      0.12s WALL (       1 calls)

     Called by electrons:
     c_bands      :      1.26s CPU      1.28s WALL (      11 calls)
     sum_band     :      0.22s CPU      0.24s WALL (      11 calls)
     v_of_rho     :      0.15s CPU      0.22s WALL (      11 calls)
     mix_rho      :      0.20s CPU      0.22s WALL (      11 calls)

     Called by c_bands:
     init_us_2    :      0.03s CPU      0.04s WALL (      23 calls)
     init_us_2:gp :      0.03s CPU      0.04s WALL (      23 calls)
     regterg      :      1.15s CPU      1.16s WALL (      11 calls)

     Called by *egterg:
     rdiaghg      :      0.47s CPU      0.55s WALL (     112 calls)
                                        0.53s GPU  (     112 calls)
     h_psi        :      0.99s CPU      1.28s WALL (     114 calls)
                                        1.28s GPU  (     114 calls)
     g_psi        :      0.00s CPU      0.01s WALL (     102 calls)
                                        0.00s GPU  (     102 calls)

     Called by h_psi:
     h_psi:calbec :      0.43s CPU      0.74s WALL (     114 calls)
                                        0.74s GPU  (     114 calls)
     vloc_psi     :      0.43s CPU      0.45s WALL (     114 calls)
                                        0.44s GPU  (     114 calls)
     add_vuspsi   :      0.05s CPU      0.09s WALL (     114 calls)
                                        0.09s GPU  (     114 calls)

     General routines
     calbec       :      0.43s CPU      0.71s WALL (     119 calls)
     fft          :      0.15s CPU      0.18s WALL (      95 calls)
                                        0.03s GPU  (      59 calls)
     ffts         :      0.04s CPU      0.04s WALL (      11 calls)
     fftw         :      0.04s CPU      0.49s WALL (    1140 calls)
                                        0.40s GPU  (    1140 calls)
 
     Parallel routines
 
     PWSCF        :      3.05s CPU      3.68s WALL

 
   This run was terminated on:  22:11:19   8Jul2023            

=------------------------------------------------------------------------------=
   JOB DONE.
=------------------------------------------------------------------------------=
