An instance of this daemon is already running
An instance of this daemon is already running

     Program PWSCF v.7.1 starts on 10May2023 at 11:11:50 

     This program is part of the open-source Quantum ESPRESSO suite
     for quantum simulation of materials; please cite
         "P. Giannozzi et al., J. Phys.:Condens. Matter 21 395502 (2009);
         "P. Giannozzi et al., J. Phys.:Condens. Matter 29 465901 (2017);
         "P. Giannozzi et al., J. Chem. Phys. 152 154105 (2020);
          URL http://www.quantum-espresso.org", 
     in publications or presentations arising from this work. More details at
     http://www.quantum-espresso.org/quote

     Parallel version (MPI & OpenMP), running on       4 processor cores
     Number of MPI processes:                 4
     Threads/MPI process:                     1

     MPI processes distributed on     1 nodes
     753562 MiB available memory on the printing compute node when the environment starts
 
     Reading input from pw-si-8.in
Warning: card &CELL ignored
Warning: card / ignored

     Current dimensions of program PWSCF are:
     Max number of different atomic species (ntypx) = 10
     Max number of k-points (npk) =  40000
     Max angular momentum in pseudopotentials (lmaxx) =  4

     IMPORTANT: XC functional enforced from input :
     Exchange-correlation= PBE
                           (   1   4   3   4   0   0   0)
     Any further DFT definition will be discarded
     Please, verify this is what you really want


     gamma-point specific algorithms are used
 
     K-points division:     npool     =       2
     R & G space division:  proc/nbgrp/npool/nimage =       2
     Subspace diagonalization in iterative solution of the eigenvalue problem:
     a serial algorithm will be used

     Message from routine divide_et_impera:
     suboptimal parallelization: some nodes have no k-points
 
     Parallelization info
     --------------------
     sticks:   dense  smooth     PW     G-vecs:    dense   smooth      PW
     Min        2128    2128    557               100616   100616   13669
     Max        2129    2129    560               100619   100619   13672
     Sum        4257    4257   1117               201235   201235   27341
 
     Using Slab Decomposition
 


     bravais-lattice index     =            0
     lattice parameter (alat)  =      21.1674  a.u.
     unit-cell volume          =    9069.0013 (a.u.)^3
     number of atoms/cell      =           64
     number of atomic types    =            1
     number of electrons       =       256.00
     number of Kohn-Sham states=          154
     kinetic-energy cutoff     =      30.0000  Ry
     charge density cutoff     =     120.0000  Ry
     scf convergence threshold =      1.0E-06
     mixing beta               =       0.5000
     number of iterations used =            8  plain     mixing
     Exchange-correlation= PBE
                           (   1   4   3   4   0   0   0)

     GPU acceleration is ACTIVE.
     GPU-aware MPI enabled

     Message from routine print_cuda_info:
     High GPU oversubscription detected. Are you sure this is what you want?

     celldm(1)=  21.167407  celldm(2)=   0.000000  celldm(3)=   0.000000
     celldm(4)=   0.000000  celldm(5)=   0.000000  celldm(6)=   0.000000

     crystal axes: (cart. coord. in units of alat)
               a(1) = (   1.000000   0.000000   0.000000 )  
               a(2) = (   0.000000   0.995692   0.000000 )  
               a(3) = (   0.000000   0.000000   0.960355 )  

     reciprocal axes: (cart. coord. in units 2 pi/alat)
               b(1) = (  1.000000  0.000000  0.000000 )  
               b(2) = (  0.000000  1.004327  0.000000 )  
               b(3) = (  0.000000  0.000000  1.041282 )  


     PseudoPot. # 1 for Si read from file:
     /home/ppiaggi/pseudos/Si_ONCV_PBE_sr.upf
     MD5 check sum: 8553c464762ac42b85b1eed164b4d029
     Pseudo is Norm-conserving, Zval =  4.0
     Generated using ONCVPSP code by D. R. Hamann
     Using radial grid of 1510 points,  4 beta functions with: 
                l(1) =   0
                l(2) =   0
                l(3) =   1
                l(4) =   1

     atomic species   valence    mass     pseudopotential
        Si             4.00    28.08500     Si( 1.00)

     No symmetry found



   Cartesian axes

     site n.     atom                  positions (alat units)
         1           Si  tau(   1) = (   0.0075681   0.0043605  -0.0056950  )
         2           Si  tau(   2) = (  -0.0032662   0.2476988   0.2373568  )
         3           Si  tau(   3) = (   0.2403090   0.0064619   0.2399452  )
         4           Si  tau(   4) = (   0.2474537   0.2515816  -0.0077110  )
         5           Si  tau(   5) = (   0.1168293   0.1225041   0.1223859  )
         6           Si  tau(   6) = (   0.4927669   0.0024750   0.0025397  )
         7           Si  tau(   7) = (   0.4884817   0.2589438   0.2365912  )
         8           Si  tau(   8) = (   0.6155341   0.1264093   0.1180504  )
         9           Si  tau(   9) = (   0.7243343  -0.0050939   0.2345190  )
        10           Si  tau(  10) = (   0.7262951   0.2569516   0.0032563  )
        11           Si  tau(  11) = (  -0.0016406   0.5208360   0.0030935  )
        12           Si  tau(  12) = (   0.2498948   0.5052867   0.2362108  )
        13           Si  tau(  13) = (   0.1135524   0.6358961   0.1189812  )
        14           Si  tau(  14) = (   0.3571310   0.3779189   0.1296653  )
        15           Si  tau(  15) = (   0.4782954   0.5168655  -0.0011603  )
        16           Si  tau(  16) = (   0.6127787   0.6421289   0.1233237  )
        17           Si  tau(  17) = (   0.8546546   0.3918723   0.1158569  )
        18           Si  tau(  18) = (   0.7243785   0.5201980   0.2356063  )
        19           Si  tau(  19) = (  -0.0047452   0.7655213   0.2400985  )
        20           Si  tau(  20) = (   0.2492433   0.7657043   0.0044723  )
        21           Si  tau(  21) = (   0.3686120   0.9024971   0.1284714  )
        22           Si  tau(  22) = (   0.4790125   0.7613268   0.2441991  )
        23           Si  tau(  23) = (   0.7285678   0.7777087   0.0045674  )
        24           Si  tau(  24) = (   0.8475402   0.9013327   0.1290721  )
        25           Si  tau(  25) = (  -0.0072666   0.0019533   0.4818258  )
        26           Si  tau(  26) = (   0.2478777   0.2653429   0.4815015  )
        27           Si  tau(  27) = (   0.1206905   0.1347879   0.6135775  )
        28           Si  tau(  28) = (   0.3714250   0.1252764   0.3555045  )
        29           Si  tau(  29) = (   0.4873341   0.0000342   0.4856540  )
        30           Si  tau(  30) = (   0.6051063   0.1330166   0.6046779  )
        31           Si  tau(  31) = (   0.8570192   0.1343255   0.3632179  )
        32           Si  tau(  32) = (   0.7303288   0.2582322   0.4776203  )
        33           Si  tau(  33) = (   0.1185386   0.3915465   0.3715022  )
        34           Si  tau(  34) = (  -0.0050907   0.5048728   0.4816063  )
        35           Si  tau(  35) = (   0.1194010   0.6381159   0.6095762  )
        36           Si  tau(  36) = (   0.6072220   0.3914229   0.3556988  )
        37           Si  tau(  37) = (   0.3699496   0.6388081   0.3595098  )
        38           Si  tau(  38) = (   0.3720864   0.3918297   0.5978855  )
        39           Si  tau(  39) = (   0.4872902   0.5201069   0.4769335  )
        40           Si  tau(  40) = (   0.6063464   0.6318100   0.6117477  )
        41           Si  tau(  41) = (   0.8567886   0.6362093   0.3722116  )
        42           Si  tau(  42) = (   0.8522197   0.3799794   0.6072127  )
        43           Si  tau(  43) = (   0.1219590   0.8888574   0.3697380  )
        44           Si  tau(  44) = (   0.2479194   0.7740281   0.4836528  )
        45           Si  tau(  45) = (   0.6057043   0.8926273   0.3587579  )
        46           Si  tau(  46) = (   0.3599908   0.8951983   0.6153022  )
        47           Si  tau(  47) = (   0.7239141   0.7633104   0.4835327  )
        48           Si  tau(  48) = (   0.8602779   0.8923840   0.6089457  )
        49           Si  tau(  49) = (  -0.0029566   0.2584552   0.7366906  )
        50           Si  tau(  50) = (   0.2467739  -0.0019086   0.7239991  )
        51           Si  tau(  51) = (   0.3656425   0.1343824   0.8524064  )
        52           Si  tau(  52) = (   0.4896501   0.2486807   0.7331936  )
        53           Si  tau(  53) = (   0.7374150   0.0026659   0.7268106  )
        54           Si  tau(  54) = (   0.8531510   0.1368131   0.8572696  )
        55           Si  tau(  55) = (   0.1231006   0.3853452   0.8563646  )
        56           Si  tau(  56) = (   0.2428476   0.5095391   0.7274472  )
        57           Si  tau(  57) = (   0.6051048   0.3932788   0.8549846  )
        58           Si  tau(  58) = (   0.3657615   0.6461787   0.8507326  )
        59           Si  tau(  59) = (   0.7242047   0.5164834   0.7232464  )
        60           Si  tau(  60) = (   0.8478035   0.6329962   0.8436529  )
        61           Si  tau(  61) = (   0.0018603   0.7658441   0.7220414  )
        62           Si  tau(  62) = (   0.1281605   0.9026039   0.8521575  )
        63           Si  tau(  63) = (   0.4937798   0.7665986   0.7253799  )
        64           Si  tau(  64) = (   0.6091254   0.8896470   0.8520453  )

     number of k points=     1  Fermi-Dirac smearing, width (Ry)=  0.0100
                       cart. coord. in units 2pi/alat
        k(    1) = (   0.0000000   0.0000000   0.0000000), wk =   2.0000000

     Dense  grid:   100618 G-vectors     FFT dimensions: (  75,  75,  72)

     Estimated max dynamical RAM per process >     160.91 MB

     Estimated total dynamical RAM >     619.08 MB

     Initial potential from superposition of free atoms

     starting charge     255.9608, renormalised to     256.0000
     Starting wfcs are  256 randomized atomic wfcs

     total cpu time spent up to now is        5.0 secs

     Self-consistent Calculation

     iteration #  1     ecut=    30.00 Ry     beta= 0.50
     Davidson diagonalization with overlap
     ethr =  1.00E-02,  avg # of iterations =  3.0

     Threshold (ethr) on eigenvalues was too large:
     Diagonalizing with lowered threshold

     Davidson diagonalization with overlap
     ethr =  6.26E-04,  avg # of iterations =  4.0

     total cpu time spent up to now is        5.3 secs

     total energy              =    -503.30931839 Ry
     estimated scf accuracy    <       1.78560110 Ry

     iteration #  2     ecut=    30.00 Ry     beta= 0.50
     Davidson diagonalization with overlap
     ethr =  6.98E-04,  avg # of iterations =  2.0

     total cpu time spent up to now is        5.4 secs

     total energy              =    -503.26571170 Ry
     estimated scf accuracy    <       0.42048110 Ry

     iteration #  3     ecut=    30.00 Ry     beta= 0.50
     Davidson diagonalization with overlap
     ethr =  1.64E-04,  avg # of iterations =  8.0

     total cpu time spent up to now is        5.6 secs

     total energy              =    -503.15083142 Ry
     estimated scf accuracy    <       1.34366163 Ry

     iteration #  4     ecut=    30.00 Ry     beta= 0.50
     Davidson diagonalization with overlap
     ethr =  1.64E-04,  avg # of iterations =  5.0

     total cpu time spent up to now is        5.7 secs

     total energy              =    -503.34223826 Ry
     estimated scf accuracy    <       0.04603035 Ry

     iteration #  5     ecut=    30.00 Ry     beta= 0.50
     Davidson diagonalization with overlap
     c_bands:  1 eigenvalues not converged
     ethr =  1.80E-05,  avg # of iterations = 20.0

     total cpu time spent up to now is        5.9 secs

     total energy              =    -503.34506404 Ry
     estimated scf accuracy    <       0.02272058 Ry

     iteration #  6     ecut=    30.00 Ry     beta= 0.50
     Davidson diagonalization with overlap
     ethr =  8.88E-06,  avg # of iterations = 11.0

     total cpu time spent up to now is        6.1 secs

     total energy              =    -503.34727642 Ry
     estimated scf accuracy    <       0.00461236 Ry

     iteration #  7     ecut=    30.00 Ry     beta= 0.50
     Davidson diagonalization with overlap
     ethr =  1.80E-06,  avg # of iterations = 16.0

     total cpu time spent up to now is        6.3 secs

     total energy              =    -503.34814608 Ry
     estimated scf accuracy    <       0.00050614 Ry

     iteration #  8     ecut=    30.00 Ry     beta= 0.50
     Davidson diagonalization with overlap
     ethr =  1.98E-07,  avg # of iterations =  4.0

     total cpu time spent up to now is        6.4 secs

     total energy              =    -503.34817426 Ry
     estimated scf accuracy    <       0.00022572 Ry

     iteration #  9     ecut=    30.00 Ry     beta= 0.50
     Davidson diagonalization with overlap
     ethr =  8.82E-08,  avg # of iterations =  4.0

     total cpu time spent up to now is        6.6 secs

     total energy              =    -503.34819424 Ry
     estimated scf accuracy    <       0.00006682 Ry

     iteration # 10     ecut=    30.00 Ry     beta= 0.50
     Davidson diagonalization with overlap
     ethr =  2.61E-08,  avg # of iterations =  3.0

     total cpu time spent up to now is        6.7 secs

     total energy              =    -503.34820229 Ry
     estimated scf accuracy    <       0.00000422 Ry

     iteration # 11     ecut=    30.00 Ry     beta= 0.50
     Davidson diagonalization with overlap
     ethr =  1.65E-09,  avg # of iterations =  5.0

     total cpu time spent up to now is        6.8 secs

     total energy              =    -503.34820344 Ry
     estimated scf accuracy    <       0.00000101 Ry

     iteration # 12     ecut=    30.00 Ry     beta= 0.50
     Davidson diagonalization with overlap
     ethr =  3.96E-10,  avg # of iterations =  5.0

     total cpu time spent up to now is        7.0 secs

     End of self-consistent calculation

          k = 0.0000 0.0000 0.0000 ( 12572 PWs)   bands (ev):

    -6.1073  -5.2408  -5.1540  -5.0291  -5.0084  -4.8478  -4.7988  -4.4256
    -4.3330  -4.2210  -4.1800  -4.0669  -4.0307  -3.9974  -3.9752  -3.9219
    -3.8461  -3.7826  -3.7574  -3.6760  -3.6001  -3.5119  -3.2445  -2.5292
    -2.2944  -2.1246  -2.0810  -2.0507  -2.0077  -1.9535  -1.9305  -1.8884
    -1.8342  -1.7854  -1.7712  -1.7350  -1.6562  -1.5499  -1.5296  -1.4110
    -1.3718  -1.2450  -1.0316  -0.9356  -0.7559   0.0232   0.0760   0.1658
     0.1731   0.2269   0.2549   0.3195   0.3825   0.4770   0.4825   0.5405
     0.6679   1.5802   1.6786   1.6897   1.7596   1.7895   1.8400   1.9150
     1.9325   1.9670   1.9957   2.0466   2.0724   2.0922   2.0979   2.1435
     2.1627   2.1992   2.2173   2.2415   2.2576   2.2792   2.3090   2.3548
     2.3652   2.4277   2.4485   2.4638   2.5517   2.6117   2.6872   2.7951
     2.8604   2.9889   3.0640   3.0692   3.1539   3.5992   3.6834   3.7530
     3.8067   3.8231   3.8589   3.8828   3.9784   4.0340   4.0569   4.1070
     4.1478   4.1786   4.2376   4.3019   4.3606   4.4009   4.4215   4.5095
     4.5327   4.5504   4.5751   4.5855   4.6302   4.6551   4.7350   4.7827
     4.8346   4.8799   4.8965   5.0196   5.4276   5.4989   5.9887   6.0430
     6.1105   6.1791   6.3569   6.4583   6.5471   6.6734   6.7025   6.7173
     6.8612   6.8723   6.9068   6.9796   6.9889   7.0489   7.0971   7.1791
     7.5731   7.6492   7.7611   7.8589   7.9017   7.9769   8.0313   8.0748
     8.1260   8.1491

     the Fermi energy is     6.0538 ev

!    total energy              =    -503.34820319 Ry
     estimated scf accuracy    <       0.00000083 Ry
     smearing contrib. (-TS)   =      -0.07286278 Ry
     internal energy E=F+TS    =    -503.27534041 Ry

     The total energy is F=E-TS. E is the sum of the following terms:
     one-electron contribution =     133.80463401 Ry
     hartree contribution      =      40.21303750 Ry
     xc contribution           =    -152.65847449 Ry
     ewald contribution        =    -524.63453743 Ry

     convergence has been achieved in  12 iterations

     Forces acting on atoms (cartesian axes, Ry/au):

     atom    1 type  1   force =    -0.16106807    0.09101249    0.09389832
     atom    2 type  1   force =    -0.04186736    0.05512726    0.02333416
     atom    3 type  1   force =    -0.01969333    0.04014754    0.03998263
     atom    4 type  1   force =    -0.05870048    0.03596070    0.09925189
     atom    5 type  1   force =     0.02164378    0.04036017   -0.02432904
     atom    6 type  1   force =    -0.03488273    0.08762934    0.02092659
     atom    7 type  1   force =     0.02049463   -0.02252904    0.01227631
     atom    8 type  1   force =    -0.03031589    0.02724093    0.01633739
     atom    9 type  1   force =    -0.01870513    0.14137158    0.08524486
     atom   10 type  1   force =     0.02328439    0.04029992    0.01315175
     atom   11 type  1   force =    -0.07411774   -0.04922091   -0.02926358
     atom   12 type  1   force =    -0.07167619    0.04902603    0.05093432
     atom   13 type  1   force =     0.05221016    0.03539607    0.03423387
     atom   14 type  1   force =     0.03769114   -0.01185939   -0.07676107
     atom   15 type  1   force =     0.01737429   -0.01911127    0.06777018
     atom   16 type  1   force =    -0.05262280    0.03016825   -0.03451446
     atom   17 type  1   force =     0.03290639   -0.00976150    0.02061131
     atom   18 type  1   force =     0.06937170   -0.03791021    0.03435710
     atom   19 type  1   force =    -0.04103274   -0.00182254    0.02577668
     atom   20 type  1   force =    -0.03472829    0.02442161    0.03622239
     atom   21 type  1   force =    -0.00353059   -0.10048860   -0.01951544
     atom   22 type  1   force =     0.05120883    0.02845731   -0.03242689
     atom   23 type  1   force =     0.04909171   -0.07041955    0.02319334
     atom   24 type  1   force =     0.15570224   -0.11218841   -0.10004116
     atom   25 type  1   force =    -0.02975995    0.07481150    0.03265388
     atom   26 type  1   force =    -0.00482631   -0.03713110    0.00671412
     atom   27 type  1   force =    -0.00190137   -0.00349334   -0.03330680
     atom   28 type  1   force =    -0.02228693    0.03727589    0.03191132
     atom   29 type  1   force =    -0.01307849    0.06330179    0.00780473
     atom   30 type  1   force =     0.03591643   -0.01703969   -0.00396272
     atom   31 type  1   force =     0.02005165   -0.03012655   -0.02246364
     atom   32 type  1   force =    -0.00492483    0.01264063    0.01485471
     atom   33 type  1   force =     0.01971216   -0.04499340   -0.06559898
     atom   34 type  1   force =    -0.05714330    0.03857283    0.04950421
     atom   35 type  1   force =     0.01108829   -0.00783963   -0.03742882
     atom   36 type  1   force =     0.00529225   -0.01026589    0.01132131
     atom   37 type  1   force =    -0.06205386   -0.00040699    0.01445561
     atom   38 type  1   force =    -0.01036188   -0.01872438    0.03834524
     atom   39 type  1   force =     0.02332359   -0.03260936    0.01950901
     atom   40 type  1   force =    -0.01481720    0.04972297   -0.05618095
     atom   41 type  1   force =     0.01738727    0.00444813   -0.03245928
     atom   42 type  1   force =     0.03608621    0.01134600    0.00328548
     atom   43 type  1   force =    -0.01510762   -0.03033702   -0.04351719
     atom   44 type  1   force =    -0.00633740   -0.06408216    0.02228112
     atom   45 type  1   force =    -0.01387587   -0.08438963    0.02884779
     atom   46 type  1   force =     0.09848818   -0.11267412   -0.08962102
     atom   47 type  1   force =     0.03519143   -0.00175388    0.01965794
     atom   48 type  1   force =     0.03077048   -0.06648573   -0.03527606
     atom   49 type  1   force =    -0.04356280    0.00612796   -0.00963738
     atom   50 type  1   force =    -0.05921227    0.15880967    0.05961963
     atom   51 type  1   force =     0.03268577   -0.07276451   -0.05637783
     atom   52 type  1   force =     0.00047609    0.06655270   -0.02555722
     atom   53 type  1   force =    -0.02128069    0.07474848    0.01913477
     atom   54 type  1   force =     0.05713720   -0.02827010   -0.04764043
     atom   55 type  1   force =    -0.01941420    0.01704113   -0.03623298
     atom   56 type  1   force =     0.01315616    0.00763113   -0.00133509
     atom   57 type  1   force =     0.00444096   -0.02973962   -0.04183134
     atom   58 type  1   force =    -0.00755490   -0.01498208   -0.06059829
     atom   59 type  1   force =     0.04334569   -0.06737956    0.02210744
     atom   60 type  1   force =     0.05842803    0.05079418    0.01204134
     atom   61 type  1   force =    -0.05178549    0.00528874    0.03380294
     atom   62 type  1   force =     0.03394082   -0.15565511   -0.06170172
     atom   63 type  1   force =    -0.02755078   -0.00859371    0.01280720
     atom   64 type  1   force =     0.02187959   -0.03068396   -0.08058347

     Total force =     0.686205     Total SCF correction =     0.001763


     Computing stress (Cartesian axis) and pressure

          total   stress  (Ry/bohr**3)                   (kbar)     P=       -1.34
  -0.00004327  -0.00018564  -0.00015718           -6.37      -27.31      -23.12
  -0.00018564  -0.00007788   0.00008043          -27.31      -11.46       11.83
  -0.00015718   0.00008043   0.00009382          -23.12       11.83       13.80

 
     init_run     :      1.07s CPU      4.94s WALL (       1 calls)
     electrons    :      1.81s CPU      1.94s WALL (       1 calls)
     forces       :      0.04s CPU      0.05s WALL (       1 calls)
     stress       :      0.17s CPU      0.17s WALL (       1 calls)

     Called by init_run:
     wfcinit      :      0.56s CPU      4.25s WALL (       1 calls)
                                        4.25s GPU  (       1 calls)
     potinit      :      0.21s CPU      0.31s WALL (       1 calls)
     hinit0       :      0.27s CPU      0.31s WALL (       1 calls)

     Called by electrons:
     c_bands      :      1.21s CPU      1.28s WALL (      13 calls)
     sum_band     :      0.31s CPU      0.34s WALL (      13 calls)
     v_of_rho     :      0.15s CPU      0.25s WALL (      13 calls)
     mix_rho      :      0.12s CPU      0.13s WALL (      13 calls)

     Called by c_bands:
     init_us_2    :      0.05s CPU      0.05s WALL (      27 calls)
     init_us_2:gp :      0.05s CPU      0.05s WALL (      27 calls)
     regterg      :      1.10s CPU      1.16s WALL (      13 calls)

     Called by *egterg:
     rdiaghg      :      0.46s CPU      1.22s WALL (     102 calls)
                                        1.20s GPU  (     102 calls)
     h_psi        :      1.02s CPU      3.99s WALL (     104 calls)
                                        3.99s GPU  (     104 calls)
     g_psi        :      0.00s CPU      0.00s WALL (      90 calls)
                                        0.00s GPU  (      90 calls)

     Called by h_psi:
     h_psi:calbec :      0.51s CPU      3.40s WALL (     104 calls)
                                        3.40s GPU  (     104 calls)
     vloc_psi     :      0.45s CPU      0.53s WALL (     104 calls)
                                        0.52s GPU  (     104 calls)
     add_vuspsi   :      0.04s CPU      0.06s WALL (     104 calls)
                                        0.06s GPU  (     104 calls)

     General routines
     calbec       :      0.52s CPU      3.40s WALL (     109 calls)
     fft          :      0.37s CPU      0.50s WALL (     111 calls)
                                        0.13s GPU  (      71 calls)
     ffts         :      0.04s CPU      0.05s WALL (      13 calls)
     fftw         :      0.47s CPU      0.65s WALL (    1475 calls)
                                        0.58s GPU  (    1475 calls)
 
     Parallel routines
 
     PWSCF        :      3.13s CPU      7.19s WALL

 
   This run was terminated on:  11:11:57  10May2023            

=------------------------------------------------------------------------------=
   JOB DONE.
=------------------------------------------------------------------------------=
