
     Program PWSCF v.7.0 starts on  8Jul2023 at 22:35:42 

     This program is part of the open-source Quantum ESPRESSO suite
     for quantum simulation of materials; please cite
         "P. Giannozzi et al., J. Phys.:Condens. Matter 21 395502 (2009);
         "P. Giannozzi et al., J. Phys.:Condens. Matter 29 465901 (2017);
         "P. Giannozzi et al., J. Chem. Phys. 152 154105 (2020);
          URL http://www.quantum-espresso.org", 
     in publications or presentations arising from this work. More details at
     http://www.quantum-espresso.org/quote

     Parallel version (MPI & OpenMP), running on       1 processor cores
     Number of MPI processes:                 1
     Threads/MPI process:                     1

     MPI processes distributed on     1 nodes
     109168 MiB available memory on the printing compute node when the environment starts
 
     Reading input from pw-si-89.in
Warning: card &CELL ignored
Warning: card / ignored

     Current dimensions of program PWSCF are:
     Max number of different atomic species (ntypx) = 10
     Max number of k-points (npk) =  40000
     Max angular momentum in pseudopotentials (lmaxx) =  4

     IMPORTANT: XC functional enforced from input :
     Exchange-correlation= PBE
                           (   1   4   3   4   0   0   0)
     Any further DFT definition will be discarded
     Please, verify this is what you really want


     gamma-point specific algorithms are used

     Subspace diagonalization in iterative solution of the eigenvalue problem:
     a serial algorithm will be used

 
     G-vector sticks info
     --------------------
     sticks:   dense  smooth     PW     G-vecs:    dense   smooth      PW
     Sum        4127    4127   1027               193633   193633   24193
 
     Using Slab Decomposition
 


     bravais-lattice index     =            0
     lattice parameter (alat)  =      21.2207  a.u.
     unit-cell volume          =    8723.1215 (a.u.)^3
     number of atoms/cell      =           64
     number of atomic types    =            1
     number of electrons       =       256.00
     number of Kohn-Sham states=          128
     kinetic-energy cutoff     =      30.0000  Ry
     charge density cutoff     =     120.0000  Ry
     scf convergence threshold =      1.0E-06
     mixing beta               =       0.5000
     number of iterations used =            8  plain     mixing
     Exchange-correlation= PBE
                           (   1   4   3   4   0   0   0)

     GPU acceleration is ACTIVE.


     celldm(1)=  21.220717  celldm(2)=   0.000000  celldm(3)=   0.000000
     celldm(4)=   0.000000  celldm(5)=   0.000000  celldm(6)=   0.000000

     crystal axes: (cart. coord. in units of alat)
               a(1) = (   1.000000   0.000000   0.000000 )  
               a(2) = (   0.000000   0.959202   0.000000 )  
               a(3) = (   0.000000   0.000000   0.951660 )  

     reciprocal axes: (cart. coord. in units 2 pi/alat)
               b(1) = (  1.000000  0.000000  0.000000 )  
               b(2) = (  0.000000  1.042533  0.000000 )  
               b(3) = (  0.000000  0.000000  1.050796 )  


     PseudoPot. # 1 for Si read from file:
     ./Si_ONCV_PBE-1.0.upf
     MD5 check sum: 2de5a83d12544a9ea852f39b88f19b1f
     Pseudo is Norm-conserving, Zval =  4.0
     Generated using ONCVPSP code by D. R. Hamann
     Using radial grid of  602 points,  4 beta functions with: 
                l(1) =   0
                l(2) =   0
                l(3) =   1
                l(4) =   1

     atomic species   valence    mass     pseudopotential
        Si             4.00    28.08500     Si( 1.00)

     No symmetry found



   Cartesian axes

     site n.     atom                  positions (alat units)
         1           Si  tau(   1) = (   0.3785581   0.3459140   0.1206684  )
         2           Si  tau(   2) = (   0.0046900   0.2402681   0.2365594  )
         3           Si  tau(   3) = (   0.3673876   0.1225360   0.3585602  )
         4           Si  tau(   4) = (  -0.0084480   0.0077362   0.0018055  )
         5           Si  tau(   5) = (   0.1162973   0.3606912   0.3575981  )
         6           Si  tau(   6) = (   0.2539186   0.2374955   0.0021557  )
         7           Si  tau(   7) = (   0.1300091   0.1110570   0.1201537  )
         8           Si  tau(   8) = (   0.2538122  -0.0044011   0.2379363  )
         9           Si  tau(   9) = (   0.3745170   0.3514077   0.6137608  )
        10           Si  tau(  10) = (  -0.0056480   0.2298160   0.7375814  )
        11           Si  tau(  11) = (   0.3795563   0.1139934   0.8447160  )
        12           Si  tau(  12) = (   0.0069592   0.0031322   0.4830055  )
        13           Si  tau(  13) = (   0.1330816   0.3521529   0.8538248  )
        14           Si  tau(  14) = (   0.2479233   0.2287664   0.4881571  )
        15           Si  tau(  15) = (   0.1179752   0.1265766   0.6044511  )
        16           Si  tau(  16) = (   0.2447416   0.0080959   0.7320116  )
        17           Si  tau(  17) = (   0.3676468   0.8269123   0.1284019  )
        18           Si  tau(  18) = (  -0.0086284   0.7067122   0.2417761  )
        19           Si  tau(  19) = (   0.3752277   0.5968610   0.3608563  )
        20           Si  tau(  20) = (   0.0061792   0.4703590   0.0084115  )
        21           Si  tau(  21) = (   0.1199366   0.8342643   0.3697091  )
        22           Si  tau(  22) = (   0.2428618   0.7073289  -0.0082352  )
        23           Si  tau(  23) = (   0.1289374   0.5827450   0.1282064  )
        24           Si  tau(  24) = (   0.2419135   0.4761931   0.2393218  )
        25           Si  tau(  25) = (   0.3732481   0.8311060   0.6162616  )
        26           Si  tau(  26) = (   0.0089759   0.7122088   0.7280702  )
        27           Si  tau(  27) = (   0.3751063   0.5869848   0.8535779  )
        28           Si  tau(  28) = (   0.0045411   0.4724188   0.4912639  )
        29           Si  tau(  29) = (   0.1190920   0.8281738   0.8564986  )
        30           Si  tau(  30) = (   0.2570333   0.7147168   0.4880733  )
        31           Si  tau(  31) = (   0.1254456   0.5956153   0.6101218  )
        32           Si  tau(  32) = (   0.2550140   0.4670054   0.7357623  )
        33           Si  tau(  33) = (   0.8691331   0.3615501   0.1181911  )
        34           Si  tau(  34) = (   0.4914637   0.2301639   0.2500351  )
        35           Si  tau(  35) = (   0.8809082   0.1126759   0.3715842  )
        36           Si  tau(  36) = (   0.4906635  -0.0031428  -0.0063840  )
        37           Si  tau(  37) = (   0.6318612   0.3507245   0.3625561  )
        38           Si  tau(  38) = (   0.7423242   0.2427479   0.0033518  )
        39           Si  tau(  39) = (   0.6286382   0.1233633   0.1302475  )
        40           Si  tau(  40) = (   0.7522218   0.0035870   0.2378730  )
        41           Si  tau(  41) = (   0.8736030   0.3551292   0.6019305  )
        42           Si  tau(  42) = (   0.5007164   0.2368163   0.7316650  )
        43           Si  tau(  43) = (   0.8719816   0.1141816   0.8465822  )
        44           Si  tau(  44) = (   0.4929948  -0.0076313   0.4817334  )
        45           Si  tau(  45) = (   0.6270387   0.3470141   0.8557543  )
        46           Si  tau(  46) = (   0.7505592   0.2321182   0.4878074  )
        47           Si  tau(  47) = (   0.6181678   0.1232224   0.6043777  )
        48           Si  tau(  48) = (   0.7446310  -0.0065460   0.7361591  )
        49           Si  tau(  49) = (   0.8814136   0.8253099   0.1278644  )
        50           Si  tau(  50) = (   0.4994776   0.7065209   0.2458400  )
        51           Si  tau(  51) = (   0.8741026   0.5825295   0.3618962  )
        52           Si  tau(  52) = (   0.5003017   0.4718097   0.0018128  )
        53           Si  tau(  53) = (   0.6171707   0.8244935   0.3611014  )
        54           Si  tau(  54) = (   0.7420940   0.7065135   0.0010240  )
        55           Si  tau(  55) = (   0.6226153   0.5949394   0.1273048  )
        56           Si  tau(  56) = (   0.7478713   0.4684835   0.2419313  )
        57           Si  tau(  57) = (   0.8645316   0.8281535   0.6110482  )
        58           Si  tau(  58) = (   0.5026814   0.7092203   0.7296188  )
        59           Si  tau(  59) = (   0.8805491   0.5826242   0.8489545  )
        60           Si  tau(  60) = (   0.5031466   0.4721880   0.4907460  )
        61           Si  tau(  61) = (   0.6284235   0.8226287   0.8510113  )
        62           Si  tau(  62) = (   0.7513236   0.7098768   0.4863800  )
        63           Si  tau(  63) = (   0.6177967   0.5957032   0.6053971  )
        64           Si  tau(  64) = (   0.7460181   0.4644022   0.7369598  )

     number of k points=     1
                       cart. coord. in units 2pi/alat
        k(    1) = (   0.0000000   0.0000000   0.0000000), wk =   2.0000000

     Dense  grid:    96817 G-vectors     FFT dimensions: (  75,  72,  72)

     Estimated max dynamical RAM per process >     281.94 MB

     Initial potential from superposition of free atoms

     starting charge     253.0416, renormalised to     256.0000
     Starting wfcs are random

     total cpu time spent up to now is        1.4 secs

     Self-consistent Calculation

     iteration #  1     ecut=    30.00 Ry     beta= 0.50
     Davidson diagonalization with overlap
     ethr =  1.00E-02,  avg # of iterations = 12.0

     Threshold (ethr) on eigenvalues was too large:
     Diagonalizing with lowered threshold

     Davidson diagonalization with overlap
     ethr =  6.15E-04,  avg # of iterations = 16.0

     total cpu time spent up to now is        1.8 secs

     total energy              =    -503.35409079 Ry
     estimated scf accuracy    <       1.89550556 Ry

     iteration #  2     ecut=    30.00 Ry     beta= 0.50
     Davidson diagonalization with overlap
     ethr =  7.40E-04,  avg # of iterations =  1.0

     total cpu time spent up to now is        1.9 secs

     total energy              =    -503.36241281 Ry
     estimated scf accuracy    <       0.33708288 Ry

     iteration #  3     ecut=    30.00 Ry     beta= 0.50
     Davidson diagonalization with overlap
     ethr =  1.32E-04,  avg # of iterations =  2.0

     total cpu time spent up to now is        2.0 secs

     total energy              =    -503.38849003 Ry
     estimated scf accuracy    <       0.01086925 Ry

     iteration #  4     ecut=    30.00 Ry     beta= 0.50
     Davidson diagonalization with overlap
     c_bands:  1 eigenvalues not converged
     ethr =  4.25E-06,  avg # of iterations = 20.0

     total cpu time spent up to now is        2.3 secs

     total energy              =    -503.39877290 Ry
     estimated scf accuracy    <       0.01012936 Ry

     iteration #  5     ecut=    30.00 Ry     beta= 0.50
     Davidson diagonalization with overlap
     c_bands:  1 eigenvalues not converged
     ethr =  3.96E-06,  avg # of iterations = 20.0

     total cpu time spent up to now is        2.5 secs

     total energy              =    -503.39876441 Ry
     estimated scf accuracy    <       0.00607925 Ry

     iteration #  6     ecut=    30.00 Ry     beta= 0.50
     Davidson diagonalization with overlap
     c_bands:  1 eigenvalues not converged
     ethr =  2.37E-06,  avg # of iterations = 20.0

     total cpu time spent up to now is        2.7 secs

     total energy              =    -503.39925035 Ry
     estimated scf accuracy    <       0.00579034 Ry

     iteration #  7     ecut=    30.00 Ry     beta= 0.50
     Davidson diagonalization with overlap
     c_bands:  1 eigenvalues not converged
     ethr =  2.26E-06,  avg # of iterations = 20.0

     total cpu time spent up to now is        2.9 secs

     total energy              =    -503.40003539 Ry
     estimated scf accuracy    <       0.00130990 Ry

     iteration #  8     ecut=    30.00 Ry     beta= 0.50
     Davidson diagonalization with overlap
     ethr =  5.12E-07,  avg # of iterations = 16.0

     total cpu time spent up to now is        3.1 secs

     total energy              =    -503.40011379 Ry
     estimated scf accuracy    <       0.00038967 Ry

     iteration #  9     ecut=    30.00 Ry     beta= 0.50
     Davidson diagonalization with overlap
     c_bands:  1 eigenvalues not converged
     ethr =  1.52E-07,  avg # of iterations = 20.0

     total cpu time spent up to now is        3.3 secs

     total energy              =    -503.40016308 Ry
     estimated scf accuracy    <       0.00002085 Ry

     iteration # 10     ecut=    30.00 Ry     beta= 0.50
     Davidson diagonalization with overlap
     ethr =  8.15E-09,  avg # of iterations =  9.0

     total cpu time spent up to now is        3.5 secs

     total energy              =    -503.40016709 Ry
     estimated scf accuracy    <       0.00001022 Ry

     iteration # 11     ecut=    30.00 Ry     beta= 0.50
     Davidson diagonalization with overlap
     ethr =  3.99E-09,  avg # of iterations = 15.0

     total cpu time spent up to now is        3.7 secs

     total energy              =    -503.40016914 Ry
     estimated scf accuracy    <       0.00000143 Ry

     iteration # 12     ecut=    30.00 Ry     beta= 0.50
     Davidson diagonalization with overlap
     ethr =  5.58E-10,  avg # of iterations =  8.0

     total cpu time spent up to now is        3.9 secs

     total energy              =    -503.40016924 Ry
     estimated scf accuracy    <       0.00000116 Ry

     iteration # 13     ecut=    30.00 Ry     beta= 0.50
     Davidson diagonalization with overlap
     ethr =  4.52E-10,  avg # of iterations = 16.0

     total cpu time spent up to now is        4.1 secs

     End of self-consistent calculation

          k = 0.0000 0.0000 0.0000 ( 12097 PWs)   bands (ev):

    -5.8620  -4.9121  -4.8344  -4.8319  -4.7755  -4.6986  -4.5528  -4.0993
    -3.9754  -3.9137  -3.8966  -3.8637  -3.8164  -3.7423  -3.7070  -3.6594
    -3.6487  -3.6207  -3.5108  -3.4132  -3.3437  -3.3203  -3.1984  -2.2550
    -1.8566  -1.8466  -1.7309  -1.6888  -1.6246  -1.5939  -1.5627  -1.5177
    -1.5074  -1.4853  -1.4595  -1.3875  -1.3654  -1.3138  -1.2794  -1.2364
    -1.1827  -0.8930  -0.7625  -0.7491  -0.6086   0.4601   0.4916   0.5472
     0.5954   0.6174   0.6498   0.6960   0.7194   0.8017   0.8135   0.8506
     0.9178   1.9216   2.0133   2.0720   2.1177   2.1619   2.1835   2.2330
     2.2636   2.2730   2.3159   2.3268   2.3699   2.3863   2.3897   2.4072
     2.4590   2.4800   2.4976   2.5043   2.5219   2.5687   2.5911   2.6139
     2.6851   2.7187   2.7406   2.7614   2.8326   2.8542   2.8995   3.1255
     3.2133   3.2514   3.3030   3.5780   3.6126   3.9371   4.0468   4.1023
     4.1171   4.1373   4.2529   4.2964   4.3451   4.3894   4.4045   4.4178
     4.4495   4.4991   4.5892   4.6777   4.6929   4.7280   4.7589   4.8133
     4.8305   4.8892   4.9222   4.9908   5.0661   5.1287   5.1417   5.1875
     5.2049   5.2804   5.3188   5.3302   5.5082   6.0174   6.3392   6.3894

     highest occupied level (ev):     6.3894

!    total energy              =    -503.40016926 Ry
     estimated scf accuracy    <       0.00000016 Ry

     The total energy is the sum of the following terms:
     one-electron contribution =     146.18104317 Ry
     hartree contribution      =      37.90078621 Ry
     xc contribution           =    -154.10354536 Ry
     ewald contribution        =    -533.37845329 Ry

     convergence has been achieved in  13 iterations

     Forces acting on atoms (cartesian axes, Ry/au):

     atom    1 type  1   force =    -0.01555150    0.04836812    0.03200119
     atom    2 type  1   force =    -0.03892797   -0.03114781    0.00631367
     atom    3 type  1   force =    -0.00872628   -0.07326498    0.04818352
     atom    4 type  1   force =     0.05886632   -0.09639079    0.07641232
     atom    5 type  1   force =     0.04400964   -0.02677644    0.04046048
     atom    6 type  1   force =     0.02651421   -0.06555970    0.04193711
     atom    7 type  1   force =    -0.01710875    0.03513060   -0.00065734
     atom    8 type  1   force =    -0.04111161   -0.01672856    0.04231708
     atom    9 type  1   force =    -0.00057205   -0.00412249   -0.03209098
     atom   10 type  1   force =     0.02589323    0.06122356   -0.04689730
     atom   11 type  1   force =    -0.06120401    0.05888883   -0.05623015
     atom   12 type  1   force =    -0.03060230   -0.05109930    0.04173783
     atom   13 type  1   force =    -0.06023635   -0.00045187   -0.06347288
     atom   14 type  1   force =    -0.00044297    0.06965835   -0.02797581
     atom   15 type  1   force =     0.00366284   -0.03654473    0.04020438
     atom   16 type  1   force =    -0.01352635   -0.05701916   -0.01669216
     atom   17 type  1   force =     0.02279743   -0.00444920   -0.05124337
     atom   18 type  1   force =     0.07045395   -0.01651157    0.04351372
     atom   19 type  1   force =    -0.01923139   -0.05099577    0.03034448
     atom   20 type  1   force =     0.00099214   -0.00239173    0.01990345
     atom   21 type  1   force =     0.03194103   -0.01855267   -0.03470464
     atom   22 type  1   force =     0.03883823   -0.01705655    0.11644585
     atom   23 type  1   force =    -0.05985637    0.09579339   -0.05159098
     atom   24 type  1   force =     0.09950651   -0.05292693    0.05489618
     atom   25 type  1   force =    -0.00512481    0.03529495   -0.00463417
     atom   26 type  1   force =    -0.06809086    0.00678784    0.00492978
     atom   27 type  1   force =     0.00498208    0.02612594   -0.07775658
     atom   28 type  1   force =    -0.01833571    0.01671289   -0.01951389
     atom   29 type  1   force =    -0.02539271    0.09193174   -0.07628408
     atom   30 type  1   force =    -0.03092224    0.00120450   -0.00423764
     atom   31 type  1   force =     0.04793747   -0.02514194   -0.00864728
     atom   32 type  1   force =    -0.02494228    0.03493027   -0.03453080
     atom   33 type  1   force =     0.02088403   -0.03767793    0.01535525
     atom   34 type  1   force =     0.06933717    0.04382676   -0.02261885
     atom   35 type  1   force =    -0.02851643    0.03267196   -0.05659534
     atom   36 type  1   force =     0.09008361   -0.07481882    0.11917274
     atom   37 type  1   force =    -0.04985865   -0.01172017    0.02436091
     atom   38 type  1   force =     0.10553262   -0.09283804    0.08621545
     atom   39 type  1   force =    -0.05755374   -0.02062922   -0.03582036
     atom   40 type  1   force =     0.01687810   -0.06616569    0.05056059
     atom   41 type  1   force =    -0.00385068   -0.01525314    0.05300220
     atom   42 type  1   force =     0.00671451   -0.00258087   -0.00793814
     atom   43 type  1   force =    -0.07502996    0.02782979   -0.02682103
     atom   44 type  1   force =     0.00465206    0.00852651    0.00564528
     atom   45 type  1   force =    -0.08776723    0.06807487   -0.10870489
     atom   46 type  1   force =     0.01573041    0.00059083   -0.01824607
     atom   47 type  1   force =     0.00799879   -0.05466701    0.01009164
     atom   48 type  1   force =    -0.00872802    0.00270370   -0.04616917
     atom   49 type  1   force =    -0.06998302    0.06090112   -0.05225944
     atom   50 type  1   force =    -0.01394901    0.02818558   -0.02593069
     atom   51 type  1   force =    -0.00479805    0.02085412    0.03208259
     atom   52 type  1   force =     0.02468793   -0.01338139    0.07523918
     atom   53 type  1   force =     0.04573523    0.05347743    0.01625266
     atom   54 type  1   force =     0.10156273   -0.03046851    0.07308150
     atom   55 type  1   force =    -0.00162578   -0.03187309   -0.00979258
     atom   56 type  1   force =    -0.00383249    0.02855108    0.00026669
     atom   57 type  1   force =     0.05097710    0.03342980    0.00350799
     atom   58 type  1   force =    -0.02719623    0.00622015    0.01413295
     atom   59 type  1   force =    -0.02084773    0.03728680   -0.04480812
     atom   60 type  1   force =    -0.02291388   -0.01086080   -0.04186128
     atom   61 type  1   force =    -0.06873403    0.07183801   -0.05596094
     atom   62 type  1   force =    -0.01857195   -0.01316241   -0.02919408
     atom   63 type  1   force =     0.05004098   -0.02150967    0.02527407
     atom   64 type  1   force =     0.01645303    0.03771947   -0.05396170

     Total force =     0.628634     Total SCF correction =     0.000721


     Computing stress (Cartesian axis) and pressure

          total   stress  (Ry/bohr**3)                   (kbar)     P=       31.39
   0.00007135  -0.00011500   0.00007320           10.50      -16.92       10.77
  -0.00011500   0.00030536  -0.00004409          -16.92       44.92       -6.49
   0.00007320  -0.00004409   0.00026354           10.77       -6.49       38.77

 
     init_run     :      0.92s CPU      1.35s WALL (       1 calls)
     electrons    :      2.59s CPU      2.68s WALL (       1 calls)
     forces       :      0.06s CPU      0.06s WALL (       1 calls)
     stress       :      0.22s CPU      0.23s WALL (       1 calls)

     Called by init_run:
     wfcinit      :      0.56s CPU      0.87s WALL (       1 calls)
                                        0.87s GPU  (       1 calls)
     potinit      :      0.21s CPU      0.27s WALL (       1 calls)
     hinit0       :      0.11s CPU      0.12s WALL (       1 calls)

     Called by electrons:
     c_bands      :      1.79s CPU      1.83s WALL (      14 calls)
     sum_band     :      0.28s CPU      0.30s WALL (      14 calls)
     v_of_rho     :      0.19s CPU      0.26s WALL (      14 calls)
     mix_rho      :      0.30s CPU      0.32s WALL (      14 calls)

     Called by c_bands:
     init_us_2    :      0.04s CPU      0.04s WALL (      29 calls)
     init_us_2:gp :      0.04s CPU      0.04s WALL (      29 calls)
     regterg      :      1.66s CPU      1.69s WALL (      14 calls)

     Called by *egterg:
     rdiaghg      :      0.79s CPU      0.84s WALL (     208 calls)
                                        0.81s GPU  (     208 calls)
     h_psi        :      1.13s CPU      1.41s WALL (     210 calls)
                                        1.41s GPU  (     210 calls)
     g_psi        :      0.00s CPU      0.01s WALL (     195 calls)
                                        0.01s GPU  (     195 calls)

     Called by h_psi:
     h_psi:calbec :      0.43s CPU      0.74s WALL (     210 calls)
                                        0.74s GPU  (     210 calls)
     vloc_psi     :      0.51s CPU      0.53s WALL (     210 calls)
                                        0.52s GPU  (     210 calls)
     add_vuspsi   :      0.08s CPU      0.13s WALL (     210 calls)
                                        0.13s GPU  (     210 calls)

     General routines
     calbec       :      0.42s CPU      0.69s WALL (     215 calls)
     fft          :      0.19s CPU      0.20s WALL (     119 calls)
                                        0.03s GPU  (      74 calls)
     ffts         :      0.05s CPU      0.05s WALL (      14 calls)
     fftw         :      0.04s CPU      0.58s WALL (    1558 calls)
                                        0.47s GPU  (    1558 calls)
 
     Parallel routines
 
     PWSCF        :      3.81s CPU      4.37s WALL

 
   This run was terminated on:  22:35:47   8Jul2023            

=------------------------------------------------------------------------------=
   JOB DONE.
=------------------------------------------------------------------------------=
