
     Program PWSCF v.7.0 starts on  8Jul2023 at 22:11:42 

     This program is part of the open-source Quantum ESPRESSO suite
     for quantum simulation of materials; please cite
         "P. Giannozzi et al., J. Phys.:Condens. Matter 21 395502 (2009);
         "P. Giannozzi et al., J. Phys.:Condens. Matter 29 465901 (2017);
         "P. Giannozzi et al., J. Chem. Phys. 152 154105 (2020);
          URL http://www.quantum-espresso.org", 
     in publications or presentations arising from this work. More details at
     http://www.quantum-espresso.org/quote

     Parallel version (MPI & OpenMP), running on       1 processor cores
     Number of MPI processes:                 1
     Threads/MPI process:                     1

     MPI processes distributed on     1 nodes
     109227 MiB available memory on the printing compute node when the environment starts
 
     Reading input from pw-si-14.in
Warning: card &CELL ignored
Warning: card / ignored

     Current dimensions of program PWSCF are:
     Max number of different atomic species (ntypx) = 10
     Max number of k-points (npk) =  40000
     Max angular momentum in pseudopotentials (lmaxx) =  4

     IMPORTANT: XC functional enforced from input :
     Exchange-correlation= PBE
                           (   1   4   3   4   0   0   0)
     Any further DFT definition will be discarded
     Please, verify this is what you really want


     gamma-point specific algorithms are used

     Subspace diagonalization in iterative solution of the eigenvalue problem:
     a serial algorithm will be used

 
     G-vector sticks info
     --------------------
     sticks:   dense  smooth     PW     G-vecs:    dense   smooth      PW
     Sum        4071    4071   1019               194593   194593   24281
 
     Using Slab Decomposition
 


     bravais-lattice index     =            0
     lattice parameter (alat)  =      20.7566  a.u.
     unit-cell volume          =    8767.7191 (a.u.)^3
     number of atoms/cell      =           64
     number of atomic types    =            1
     number of electrons       =       256.00
     number of Kohn-Sham states=          128
     kinetic-energy cutoff     =      30.0000  Ry
     charge density cutoff     =     120.0000  Ry
     scf convergence threshold =      1.0E-06
     mixing beta               =       0.5000
     number of iterations used =            8  plain     mixing
     Exchange-correlation= PBE
                           (   1   4   3   4   0   0   0)

     GPU acceleration is ACTIVE.


     celldm(1)=  20.756599  celldm(2)=   0.000000  celldm(3)=   0.000000
     celldm(4)=   0.000000  celldm(5)=   0.000000  celldm(6)=   0.000000

     crystal axes: (cart. coord. in units of alat)
               a(1) = (   1.000000   0.000000   0.000000 )  
               a(2) = (   0.000000   0.991201   0.000000 )  
               a(3) = (   0.000000   0.000000   0.989137 )  

     reciprocal axes: (cart. coord. in units 2 pi/alat)
               b(1) = (  1.000000  0.000000  0.000000 )  
               b(2) = (  0.000000  1.008878  0.000000 )  
               b(3) = (  0.000000  0.000000  1.010982 )  


     PseudoPot. # 1 for Si read from file:
     ./Si_ONCV_PBE-1.0.upf
     MD5 check sum: 2de5a83d12544a9ea852f39b88f19b1f
     Pseudo is Norm-conserving, Zval =  4.0
     Generated using ONCVPSP code by D. R. Hamann
     Using radial grid of  602 points,  4 beta functions with: 
                l(1) =   0
                l(2) =   0
                l(3) =   1
                l(4) =   1

     atomic species   valence    mass     pseudopotential
        Si             4.00    28.08500     Si( 1.00)

     No symmetry found



   Cartesian axes

     site n.     atom                  positions (alat units)
         1           Si  tau(   1) = (   0.3735920   0.3786701   0.1177662  )
         2           Si  tau(   2) = (   0.0026901   0.2453221   0.2429786  )
         3           Si  tau(   3) = (   0.3874973   0.1280764   0.3676311  )
         4           Si  tau(   4) = (  -0.0070324  -0.0059099  -0.0034294  )
         5           Si  tau(   5) = (   0.1294449   0.3832369   0.3548213  )
         6           Si  tau(   6) = (   0.2540308   0.2585975   0.0066123  )
         7           Si  tau(   7) = (   0.1284411   0.1310805   0.1152896  )
         8           Si  tau(   8) = (   0.2509261  -0.0050727   0.2434348  )
         9           Si  tau(   9) = (   0.3732359   0.3749846   0.6055556  )
        10           Si  tau(  10) = (   0.0022338   0.2466339   0.7194114  )
        11           Si  tau(  11) = (   0.3763749   0.1182575   0.8519898  )
        12           Si  tau(  12) = (  -0.0029340   0.0085842   0.4791087  )
        13           Si  tau(  13) = (   0.1267077   0.3709100   0.8363544  )
        14           Si  tau(  14) = (   0.2597401   0.2549670   0.4892889  )
        15           Si  tau(  15) = (   0.1319462   0.1265429   0.6003951  )
        16           Si  tau(  16) = (   0.2556713   0.0054002   0.7315188  )
        17           Si  tau(  17) = (   0.3744473   0.8737812   0.1173809  )
        18           Si  tau(  18) = (  -0.0076329   0.7488122   0.2482153  )
        19           Si  tau(  19) = (   0.3736027   0.6283995   0.3665834  )
        20           Si  tau(  20) = (  -0.0053774   0.4920267   0.0009339  )
        21           Si  tau(  21) = (   0.1251656   0.8662112   0.3697349  )
        22           Si  tau(  22) = (   0.2446856   0.7480230   0.0051292  )
        23           Si  tau(  23) = (   0.1203470   0.6196302   0.1151334  )
        24           Si  tau(  24) = (   0.2445068   0.5022640   0.2447979  )
        25           Si  tau(  25) = (   0.3778722   0.8789179   0.6002363  )
        26           Si  tau(  26) = (  -0.0021516   0.7547921   0.7228813  )
        27           Si  tau(  27) = (   0.3871929   0.6219404   0.8505972  )
        28           Si  tau(  28) = (  -0.0030574   0.5035301   0.4777170  )
        29           Si  tau(  29) = (   0.1220829   0.8657826   0.8384748  )
        30           Si  tau(  30) = (   0.2545517   0.7442711   0.4876167  )
        31           Si  tau(  31) = (   0.1307537   0.6243822   0.6070760  )
        32           Si  tau(  32) = (   0.2485199   0.4971517   0.7204897  )
        33           Si  tau(  33) = (   0.8870779   0.3662177   0.1225934  )
        34           Si  tau(  34) = (   0.5125940   0.2437173   0.2424299  )
        35           Si  tau(  35) = (   0.8795868   0.1334848   0.3653795  )
        36           Si  tau(  36) = (   0.4990358   0.0058295  -0.0018327  )
        37           Si  tau(  37) = (   0.6289476   0.3775323   0.3697353  )
        38           Si  tau(  38) = (   0.7489420   0.2425710   0.0040040  )
        39           Si  tau(  39) = (   0.6335053   0.1217219   0.1178034  )
        40           Si  tau(  40) = (   0.7569486   0.0016203   0.2450713  )
        41           Si  tau(  41) = (   0.8811614   0.3831812   0.6046895  )
        42           Si  tau(  42) = (   0.5017960   0.2579165   0.7174952  )
        43           Si  tau(  43) = (   0.8832964   0.1260236   0.8477131  )
        44           Si  tau(  44) = (   0.5011086  -0.0022571   0.4738008  )
        45           Si  tau(  45) = (   0.6360096   0.3664217   0.8375286  )
        46           Si  tau(  46) = (   0.7580278   0.2557064   0.4803352  )
        47           Si  tau(  47) = (   0.6379053   0.1286978   0.6109263  )
        48           Si  tau(  48) = (   0.7487769  -0.0090788   0.7236945  )
        49           Si  tau(  49) = (   0.8864811   0.8699759   0.1179510  )
        50           Si  tau(  50) = (   0.5000794   0.7546819   0.2455061  )
        51           Si  tau(  51) = (   0.8772483   0.6325673   0.3612125  )
        52           Si  tau(  52) = (   0.5064344   0.4957930   0.0015242  )
        53           Si  tau(  53) = (   0.6265988   0.8735598   0.3544078  )
        54           Si  tau(  54) = (   0.7501698   0.7484443  -0.0016379  )
        55           Si  tau(  55) = (   0.6298485   0.6316349   0.1208776  )
        56           Si  tau(  56) = (   0.7619659   0.4914233   0.2487272  )
        57           Si  tau(  57) = (   0.8750853   0.8773328   0.5985423  )
        58           Si  tau(  58) = (   0.5072016   0.7503543   0.7169304  )
        59           Si  tau(  59) = (   0.8899721   0.6252545   0.8349433  )
        60           Si  tau(  60) = (   0.5052042   0.5062612   0.4814283  )
        61           Si  tau(  61) = (   0.6344678   0.8811459   0.8461986  )
        62           Si  tau(  62) = (   0.7608198   0.7512904   0.4891501  )
        63           Si  tau(  63) = (   0.6344106   0.6265497   0.6061210  )
        64           Si  tau(  64) = (   0.7575086   0.5063466   0.7176549  )

     number of k points=     1
                       cart. coord. in units 2pi/alat
        k(    1) = (   0.0000000   0.0000000   0.0000000), wk =   2.0000000

     Dense  grid:    97297 G-vectors     FFT dimensions: (  75,  72,  72)

     Estimated max dynamical RAM per process >     283.22 MB

     Initial potential from superposition of free atoms

     starting charge     253.0416, renormalised to     256.0000
     Starting wfcs are random

     total cpu time spent up to now is        1.4 secs

     Self-consistent Calculation

     iteration #  1     ecut=    30.00 Ry     beta= 0.50
     Davidson diagonalization with overlap
     ethr =  1.00E-02,  avg # of iterations = 12.0

     Threshold (ethr) on eigenvalues was too large:
     Diagonalizing with lowered threshold

     Davidson diagonalization with overlap
     ethr =  6.15E-04,  avg # of iterations = 18.0

     total cpu time spent up to now is        1.8 secs

     total energy              =    -503.39181834 Ry
     estimated scf accuracy    <       1.90619963 Ry

     iteration #  2     ecut=    30.00 Ry     beta= 0.50
     Davidson diagonalization with overlap
     ethr =  7.45E-04,  avg # of iterations =  1.0

     total cpu time spent up to now is        2.0 secs

     total energy              =    -503.39896544 Ry
     estimated scf accuracy    <       0.33804810 Ry

     iteration #  3     ecut=    30.00 Ry     beta= 0.50
     Davidson diagonalization with overlap
     ethr =  1.32E-04,  avg # of iterations =  2.0

     total cpu time spent up to now is        2.1 secs

     total energy              =    -503.42346678 Ry
     estimated scf accuracy    <       0.00752307 Ry

     iteration #  4     ecut=    30.00 Ry     beta= 0.50
     Davidson diagonalization with overlap
     ethr =  2.94E-06,  avg # of iterations = 12.0

     total cpu time spent up to now is        2.3 secs

     total energy              =    -503.43127219 Ry
     estimated scf accuracy    <       0.00448795 Ry

     iteration #  5     ecut=    30.00 Ry     beta= 0.50
     Davidson diagonalization with overlap
     ethr =  1.75E-06,  avg # of iterations =  6.0

     total cpu time spent up to now is        2.4 secs

     total energy              =    -503.43217229 Ry
     estimated scf accuracy    <       0.00167412 Ry

     iteration #  6     ecut=    30.00 Ry     beta= 0.50
     Davidson diagonalization with overlap
     ethr =  6.54E-07,  avg # of iterations =  9.0

     total cpu time spent up to now is        2.6 secs

     total energy              =    -503.43231767 Ry
     estimated scf accuracy    <       0.00028737 Ry

     iteration #  7     ecut=    30.00 Ry     beta= 0.50
     Davidson diagonalization with overlap
     ethr =  1.12E-07,  avg # of iterations =  7.0

     total cpu time spent up to now is        2.8 secs

     total energy              =    -503.43238136 Ry
     estimated scf accuracy    <       0.00005505 Ry

     iteration #  8     ecut=    30.00 Ry     beta= 0.50
     Davidson diagonalization with overlap
     ethr =  2.15E-08,  avg # of iterations =  5.0

     total cpu time spent up to now is        2.9 secs

     total energy              =    -503.43239404 Ry
     estimated scf accuracy    <       0.00000663 Ry

     iteration #  9     ecut=    30.00 Ry     beta= 0.50
     Davidson diagonalization with overlap
     ethr =  2.59E-09,  avg # of iterations = 11.0

     total cpu time spent up to now is        3.1 secs

     total energy              =    -503.43239499 Ry
     estimated scf accuracy    <       0.00000635 Ry

     iteration # 10     ecut=    30.00 Ry     beta= 0.50
     Davidson diagonalization with overlap
     ethr =  2.48E-09,  avg # of iterations =  5.0

     total cpu time spent up to now is        3.2 secs

     End of self-consistent calculation

          k = 0.0000 0.0000 0.0000 ( 12141 PWs)   bands (ev):

    -5.8854  -4.9239  -4.9030  -4.8497  -4.7973  -4.7280  -4.5842  -4.1033
    -4.0330  -3.9439  -3.9143  -3.8942  -3.8472  -3.8212  -3.7482  -3.7210
    -3.6521  -3.6113  -3.5716  -3.5099  -3.4558  -3.3997  -3.0261  -2.0135
    -1.9651  -1.8937  -1.8291  -1.8065  -1.7394  -1.6860  -1.6722  -1.5883
    -1.5601  -1.5236  -1.4733  -1.4215  -1.3711  -1.3162  -1.2835  -1.2041
    -1.1166  -1.0487  -0.7666  -0.7038  -0.6362   0.3605   0.4626   0.5012
     0.5252   0.5653   0.5893   0.6382   0.7108   0.7460   0.7928   0.8682
     0.9392   1.9526   1.9710   2.0424   2.0852   2.1160   2.1595   2.1765
     2.2066   2.2101   2.2350   2.2611   2.2871   2.3134   2.3410   2.3746
     2.3921   2.3978   2.4326   2.4588   2.4707   2.5000   2.5388   2.6083
     2.6513   2.6743   2.7114   2.7622   2.8012   2.8863   2.9202   3.1517
     3.1765   3.2443   3.2774   3.3874   3.5021   3.9567   4.0558   4.1260
     4.1735   4.1947   4.2198   4.2471   4.2901   4.3079   4.3615   4.3947
     4.4402   4.5305   4.5496   4.5757   4.6584   4.6645   4.7110   4.7490
     4.8118   4.8257   4.8736   4.9168   4.9393   5.0074   5.0523   5.0755
     5.1291   5.1615   5.1994   5.2237   5.7986   5.9080   6.3005   6.4619

     highest occupied level (ev):     6.4619

!    total energy              =    -503.43239544 Ry
     estimated scf accuracy    <       0.00000062 Ry

     The total energy is the sum of the following terms:
     one-electron contribution =     143.98303264 Ry
     hartree contribution      =      38.61001569 Ry
     xc contribution           =    -154.04906248 Ry
     ewald contribution        =    -531.97638130 Ry

     convergence has been achieved in  10 iterations

     Forces acting on atoms (cartesian axes, Ry/au):

     atom    1 type  1   force =     0.04653314    0.00742595    0.05785383
     atom    2 type  1   force =     0.05003211    0.01676034   -0.00749176
     atom    3 type  1   force =    -0.05681181    0.00435263   -0.04001325
     atom    4 type  1   force =     0.08791837    0.07064721   -0.08754305
     atom    5 type  1   force =    -0.03899743   -0.06907938    0.06499358
     atom    6 type  1   force =    -0.02411137   -0.03392193   -0.11770950
     atom    7 type  1   force =    -0.01393816   -0.05955536    0.01594413
     atom    8 type  1   force =    -0.00168409    0.06138819    0.00787934
     atom    9 type  1   force =     0.04180012    0.05430774   -0.01017516
     atom   10 type  1   force =     0.00427690    0.01251264    0.00799113
     atom   11 type  1   force =     0.02626508    0.08641695    0.04830154
     atom   12 type  1   force =     0.04741706   -0.01259019    0.02272380
     atom   13 type  1   force =    -0.00371496    0.00113931    0.09844714
     atom   14 type  1   force =    -0.03929666   -0.01708623   -0.06368706
     atom   15 type  1   force =    -0.00751095   -0.00696692    0.01120454
     atom   16 type  1   force =    -0.03498420   -0.02347659   -0.02798779
     atom   17 type  1   force =     0.00649466   -0.01997528    0.00650361
     atom   18 type  1   force =     0.08583783    0.00672768   -0.05466257
     atom   19 type  1   force =     0.02092905   -0.01765447   -0.03503103
     atom   20 type  1   force =     0.04243121    0.02170095   -0.10943411
     atom   21 type  1   force =    -0.00613689    0.00352523   -0.02108124
     atom   22 type  1   force =     0.02081345   -0.00627634   -0.09536091
     atom   23 type  1   force =    -0.01791481    0.00944475    0.03669834
     atom   24 type  1   force =     0.06189878    0.03664651   -0.05434975
     atom   25 type  1   force =    -0.00244349   -0.03231005    0.01761512
     atom   26 type  1   force =     0.02846406   -0.01347782   -0.05290691
     atom   27 type  1   force =    -0.03082824    0.00156507    0.02781849
     atom   28 type  1   force =     0.04977283    0.01236428    0.01186365
     atom   29 type  1   force =     0.03128543    0.02923272    0.10167212
     atom   30 type  1   force =    -0.01582430    0.03568095    0.02188912
     atom   31 type  1   force =    -0.04703813    0.00025944   -0.01823194
     atom   32 type  1   force =     0.03557798    0.02328031    0.05331416
     atom   33 type  1   force =    -0.07081684   -0.00014630   -0.00331632
     atom   34 type  1   force =    -0.02680732    0.04709206   -0.01307600
     atom   35 type  1   force =    -0.02683992   -0.01745993   -0.02674622
     atom   36 type  1   force =     0.02421002   -0.01175060   -0.05138306
     atom   37 type  1   force =    -0.00644441   -0.01256055   -0.03811197
     atom   38 type  1   force =     0.05567082    0.04504118   -0.09717849
     atom   39 type  1   force =    -0.03290830   -0.02602510    0.02600120
     atom   40 type  1   force =     0.02304920    0.01414791   -0.03158943
     atom   41 type  1   force =    -0.00206538   -0.03478661   -0.02026906
     atom   42 type  1   force =     0.00220085   -0.06090732    0.04468044
     atom   43 type  1   force =    -0.04503052   -0.02874318    0.04106658
     atom   44 type  1   force =     0.05087644    0.03453605    0.06001935
     atom   45 type  1   force =    -0.00418815    0.03660693    0.08081432
     atom   46 type  1   force =    -0.01173390    0.00495291    0.05737511
     atom   47 type  1   force =    -0.04392497   -0.00970360   -0.05179229
     atom   48 type  1   force =     0.06894020    0.10306556    0.00009640
     atom   49 type  1   force =    -0.08320800   -0.02719588    0.03174475
     atom   50 type  1   force =    -0.01426538   -0.03548872   -0.04437161
     atom   51 type  1   force =    -0.03707185   -0.05669216    0.02922122
     atom   52 type  1   force =     0.02017948    0.01294175   -0.06786389
     atom   53 type  1   force =     0.03412455   -0.02195491    0.04828023
     atom   54 type  1   force =     0.03976318    0.02073532   -0.07336258
     atom   55 type  1   force =    -0.01117890   -0.06012931    0.02687719
     atom   56 type  1   force =    -0.02281145    0.03880355   -0.03523178
     atom   57 type  1   force =     0.03189726    0.00124266    0.02470792
     atom   58 type  1   force =    -0.01148807    0.01895840    0.05342858
     atom   59 type  1   force =    -0.06278576   -0.02842432    0.11614743
     atom   60 type  1   force =    -0.01802476   -0.01373447    0.02977804
     atom   61 type  1   force =    -0.08065430   -0.08394336    0.09440393
     atom   62 type  1   force =    -0.06308446   -0.00762362   -0.04990761
     atom   63 type  1   force =    -0.02304439    0.00633588   -0.03233459
     atom   64 type  1   force =     0.00095247   -0.03019851    0.05484459

     Total force =     0.606440     Total SCF correction =     0.001427


     Computing stress (Cartesian axis) and pressure

          total   stress  (Ry/bohr**3)                   (kbar)     P=       28.91
   0.00016915   0.00010542  -0.00005673           24.88       15.51       -8.35
   0.00010542   0.00023037  -0.00007543           15.51       33.89      -11.10
  -0.00005673  -0.00007543   0.00019002           -8.35      -11.10       27.95

 
     init_run     :      0.93s CPU      1.38s WALL (       1 calls)
     electrons    :      1.74s CPU      1.81s WALL (       1 calls)
     forces       :      0.06s CPU      0.06s WALL (       1 calls)
     stress       :      0.22s CPU      0.23s WALL (       1 calls)

     Called by init_run:
     wfcinit      :      0.56s CPU      0.86s WALL (       1 calls)
                                        0.86s GPU  (       1 calls)
     potinit      :      0.23s CPU      0.29s WALL (       1 calls)
     hinit0       :      0.11s CPU      0.12s WALL (       1 calls)

     Called by electrons:
     c_bands      :      1.14s CPU      1.17s WALL (      11 calls)
     sum_band     :      0.23s CPU      0.24s WALL (      11 calls)
     v_of_rho     :      0.16s CPU      0.23s WALL (      11 calls)
     mix_rho      :      0.21s CPU      0.22s WALL (      11 calls)

     Called by c_bands:
     init_us_2    :      0.03s CPU      0.04s WALL (      23 calls)
     init_us_2:gp :      0.03s CPU      0.04s WALL (      23 calls)
     regterg      :      1.05s CPU      1.06s WALL (      11 calls)

     Called by *egterg:
     rdiaghg      :      0.44s CPU      0.49s WALL (      98 calls)
                                        0.47s GPU  (      98 calls)
     h_psi        :      0.96s CPU      1.23s WALL (     100 calls)
                                        1.23s GPU  (     100 calls)
     g_psi        :      0.00s CPU      0.00s WALL (      88 calls)
                                        0.00s GPU  (      88 calls)

     Called by h_psi:
     h_psi:calbec :      0.42s CPU      0.71s WALL (     100 calls)
                                        0.71s GPU  (     100 calls)
     vloc_psi     :      0.43s CPU      0.43s WALL (     100 calls)
                                        0.43s GPU  (     100 calls)
     add_vuspsi   :      0.04s CPU      0.07s WALL (     100 calls)
                                        0.07s GPU  (     100 calls)

     General routines
     calbec       :      0.42s CPU      0.68s WALL (     105 calls)
     fft          :      0.16s CPU      0.17s WALL (      95 calls)
                                        0.03s GPU  (      59 calls)
     ffts         :      0.04s CPU      0.04s WALL (      11 calls)
     fftw         :      0.03s CPU      0.48s WALL (    1112 calls)
                                        0.39s GPU  (    1112 calls)
 
     Parallel routines
 
     PWSCF        :      2.98s CPU      3.54s WALL

 
   This run was terminated on:  22:11:45   8Jul2023            

=------------------------------------------------------------------------------=
   JOB DONE.
=------------------------------------------------------------------------------=
