
     Program PWSCF v.7.0 starts on  8Jul2023 at 22:10:50 

     This program is part of the open-source Quantum ESPRESSO suite
     for quantum simulation of materials; please cite
         "P. Giannozzi et al., J. Phys.:Condens. Matter 21 395502 (2009);
         "P. Giannozzi et al., J. Phys.:Condens. Matter 29 465901 (2017);
         "P. Giannozzi et al., J. Chem. Phys. 152 154105 (2020);
          URL http://www.quantum-espresso.org", 
     in publications or presentations arising from this work. More details at
     http://www.quantum-espresso.org/quote

     Parallel version (MPI & OpenMP), running on       1 processor cores
     Number of MPI processes:                 1
     Threads/MPI process:                     1

     MPI processes distributed on     1 nodes
     109231 MiB available memory on the printing compute node when the environment starts
 
     Reading input from pw-si-4.in
Warning: card &CELL ignored
Warning: card / ignored

     Current dimensions of program PWSCF are:
     Max number of different atomic species (ntypx) = 10
     Max number of k-points (npk) =  40000
     Max angular momentum in pseudopotentials (lmaxx) =  4

     IMPORTANT: XC functional enforced from input :
     Exchange-correlation= PBE
                           (   1   4   3   4   0   0   0)
     Any further DFT definition will be discarded
     Please, verify this is what you really want


     gamma-point specific algorithms are used

     Subspace diagonalization in iterative solution of the eigenvalue problem:
     a serial algorithm will be used

 
     G-vector sticks info
     --------------------
     sticks:   dense  smooth     PW     G-vecs:    dense   smooth      PW
     Sum        4201    4201   1049               202453   202453   25261
 
     Using Slab Decomposition
 


     bravais-lattice index     =            0
     lattice parameter (alat)  =      20.7618  a.u.
     unit-cell volume          =    9123.0371 (a.u.)^3
     number of atoms/cell      =           64
     number of atomic types    =            1
     number of electrons       =       256.00
     number of Kohn-Sham states=          128
     kinetic-energy cutoff     =      30.0000  Ry
     charge density cutoff     =     120.0000  Ry
     scf convergence threshold =      1.0E-06
     mixing beta               =       0.5000
     number of iterations used =            8  plain     mixing
     Exchange-correlation= PBE
                           (   1   4   3   4   0   0   0)

     GPU acceleration is ACTIVE.


     celldm(1)=  20.761751  celldm(2)=   0.000000  celldm(3)=   0.000000
     celldm(4)=   0.000000  celldm(5)=   0.000000  celldm(6)=   0.000000

     crystal axes: (cart. coord. in units of alat)
               a(1) = (   1.000000   0.000000   0.000000 )  
               a(2) = (   0.000000   1.019482   0.000000 )  
               a(3) = (   0.000000   0.000000   0.999926 )  

     reciprocal axes: (cart. coord. in units 2 pi/alat)
               b(1) = (  1.000000  0.000000  0.000000 )  
               b(2) = (  0.000000  0.980891  0.000000 )  
               b(3) = (  0.000000  0.000000  1.000074 )  


     PseudoPot. # 1 for Si read from file:
     ./Si_ONCV_PBE-1.0.upf
     MD5 check sum: 2de5a83d12544a9ea852f39b88f19b1f
     Pseudo is Norm-conserving, Zval =  4.0
     Generated using ONCVPSP code by D. R. Hamann
     Using radial grid of  602 points,  4 beta functions with: 
                l(1) =   0
                l(2) =   0
                l(3) =   1
                l(4) =   1

     atomic species   valence    mass     pseudopotential
        Si             4.00    28.08500     Si( 1.00)

     No symmetry found



   Cartesian axes

     site n.     atom                  positions (alat units)
         1           Si  tau(   1) = (   0.3721555   0.3901257   0.1215400  )
         2           Si  tau(   2) = (  -0.0019514   0.2576549   0.2484437  )
         3           Si  tau(   3) = (   0.3705941   0.1267396   0.3684054  )
         4           Si  tau(   4) = (  -0.0027701   0.0001595   0.0021968  )
         5           Si  tau(   5) = (   0.1291159   0.3753338   0.3775001  )
         6           Si  tau(   6) = (   0.2418590   0.2491135  -0.0049153  )
         7           Si  tau(   7) = (   0.1274753   0.1289008   0.1267116  )
         8           Si  tau(   8) = (   0.2377351  -0.0089695   0.2538132  )
         9           Si  tau(   9) = (   0.3620578   0.3814858   0.6210929  )
        10           Si  tau(  10) = (  -0.0009090   0.2524299   0.7461113  )
        11           Si  tau(  11) = (   0.3644457   0.1249435   0.8718781  )
        12           Si  tau(  12) = (  -0.0052428   0.0089935   0.5047757  )
        13           Si  tau(  13) = (   0.1156461   0.3879121   0.8876823  )
        14           Si  tau(  14) = (   0.2427216   0.2644098   0.4978903  )
        15           Si  tau(  15) = (   0.1242840   0.1356770   0.6213673  )
        16           Si  tau(  16) = (   0.2510226  -0.0033219   0.7461417  )
        17           Si  tau(  17) = (   0.3692373   0.8901852   0.1201057  )
        18           Si  tau(  18) = (   0.0083474   0.7714304   0.2568155  )
        19           Si  tau(  19) = (   0.3672413   0.6378685   0.3709694  )
        20           Si  tau(  20) = (  -0.0070618   0.5196476  -0.0021265  )
        21           Si  tau(  21) = (   0.1270048   0.8953043   0.3766330  )
        22           Si  tau(  22) = (   0.2408497   0.7760358   0.0032932  )
        23           Si  tau(  23) = (   0.1231558   0.6313893   0.1219543  )
        24           Si  tau(  24) = (   0.2444163   0.5026528   0.2424715  )
        25           Si  tau(  25) = (   0.3747624   0.8879036   0.6305920  )
        26           Si  tau(  26) = (  -0.0074712   0.7674771   0.7452397  )
        27           Si  tau(  27) = (   0.3601571   0.6476901   0.8710934  )
        28           Si  tau(  28) = (   0.0002205   0.5194583   0.5023419  )
        29           Si  tau(  29) = (   0.1259180   0.8918492   0.8816099  )
        30           Si  tau(  30) = (   0.2438163   0.7683191   0.4968676  )
        31           Si  tau(  31) = (   0.1224215   0.6371480   0.6316746  )
        32           Si  tau(  32) = (   0.2529155   0.5074058   0.7475785  )
        33           Si  tau(  33) = (   0.8479346   0.3876723   0.1236603  )
        34           Si  tau(  34) = (   0.4813401   0.2589776   0.2487209  )
        35           Si  tau(  35) = (   0.8574534   0.1272022   0.3697346  )
        36           Si  tau(  36) = (   0.4959690  -0.0000723   0.0009575  )
        37           Si  tau(  37) = (   0.6023059   0.3858908   0.3781786  )
        38           Si  tau(  38) = (   0.7285514   0.2468685  -0.0017007  )
        39           Si  tau(  39) = (   0.6044606   0.1243427   0.1167432  )
        40           Si  tau(  40) = (   0.7400666   0.0065897   0.2603548  )
        41           Si  tau(  41) = (   0.8603805   0.3796942   0.6222689  )
        42           Si  tau(  42) = (   0.4955632   0.2528003   0.7478609  )
        43           Si  tau(  43) = (   0.8543643   0.1215593   0.8818630  )
        44           Si  tau(  44) = (   0.4811954   0.0071891   0.5103973  )
        45           Si  tau(  45) = (   0.6124924   0.3765769   0.8813439  )
        46           Si  tau(  46) = (   0.7269296   0.2493758   0.4993996  )
        47           Si  tau(  47) = (   0.6088702   0.1323646   0.6222528  )
        48           Si  tau(  48) = (   0.7323043   0.0052383   0.7541617  )
        49           Si  tau(  49) = (   0.8594870   0.8945832   0.1270403  )
        50           Si  tau(  50) = (   0.4884842   0.7738976   0.2542604  )
        51           Si  tau(  51) = (   0.8534115   0.6418644   0.3837616  )
        52           Si  tau(  52) = (   0.4861129   0.5084989  -0.0003280  )
        53           Si  tau(  53) = (   0.6086789   0.8956193   0.3825652  )
        54           Si  tau(  54) = (   0.7246364   0.7650328  -0.0061780  )
        55           Si  tau(  55) = (   0.6102665   0.6465906   0.1347271  )
        56           Si  tau(  56) = (   0.7343869   0.5173486   0.2574015  )
        57           Si  tau(  57) = (   0.8539425   0.8998561   0.6229026  )
        58           Si  tau(  58) = (   0.4963623   0.7695901   0.7597634  )
        59           Si  tau(  59) = (   0.8541888   0.6420460   0.8836137  )
        60           Si  tau(  60) = (   0.4953010   0.5027397   0.5050075  )
        61           Si  tau(  61) = (   0.6040006   0.8874973   0.8869788  )
        62           Si  tau(  62) = (   0.7322606   0.7698551   0.5006900  )
        63           Si  tau(  63) = (   0.6082286   0.6419871   0.6348227  )
        64           Si  tau(  64) = (   0.7256944   0.5050623   0.7543551  )

     number of k points=     1
                       cart. coord. in units 2pi/alat
        k(    1) = (   0.0000000   0.0000000   0.0000000), wk =   2.0000000

     Dense  grid:   101227 G-vectors     FFT dimensions: (  75,  75,  75)

     Estimated max dynamical RAM per process >     295.80 MB

     Initial potential from superposition of free atoms

     starting charge     253.0416, renormalised to     256.0000
     Starting wfcs are random

     total cpu time spent up to now is        1.4 secs

     Self-consistent Calculation

     iteration #  1     ecut=    30.00 Ry     beta= 0.50
     Davidson diagonalization with overlap
     ethr =  1.00E-02,  avg # of iterations = 13.0

     Threshold (ethr) on eigenvalues was too large:
     Diagonalizing with lowered threshold

     Davidson diagonalization with overlap
     ethr =  6.22E-04,  avg # of iterations =  5.0

     total cpu time spent up to now is        1.9 secs

     total energy              =    -503.49454230 Ry
     estimated scf accuracy    <       1.77245066 Ry

     iteration #  2     ecut=    30.00 Ry     beta= 0.50
     Davidson diagonalization with overlap
     ethr =  6.92E-04,  avg # of iterations =  1.0

     total cpu time spent up to now is        2.0 secs

     total energy              =    -503.50141953 Ry
     estimated scf accuracy    <       0.32568274 Ry

     iteration #  3     ecut=    30.00 Ry     beta= 0.50
     Davidson diagonalization with overlap
     ethr =  1.27E-04,  avg # of iterations =  2.0

     total cpu time spent up to now is        2.1 secs

     total energy              =    -503.52606545 Ry
     estimated scf accuracy    <       0.00641147 Ry

     iteration #  4     ecut=    30.00 Ry     beta= 0.50
     Davidson diagonalization with overlap
     ethr =  2.50E-06,  avg # of iterations = 11.0

     total cpu time spent up to now is        2.4 secs

     total energy              =    -503.53693741 Ry
     estimated scf accuracy    <       0.00402776 Ry

     iteration #  5     ecut=    30.00 Ry     beta= 0.50
     Davidson diagonalization with overlap
     ethr =  1.57E-06,  avg # of iterations =  3.0

     total cpu time spent up to now is        2.5 secs

     total energy              =    -503.53764842 Ry
     estimated scf accuracy    <       0.00115054 Ry

     iteration #  6     ecut=    30.00 Ry     beta= 0.50
     Davidson diagonalization with overlap
     ethr =  4.49E-07,  avg # of iterations =  8.0

     total cpu time spent up to now is        2.7 secs

     total energy              =    -503.53776314 Ry
     estimated scf accuracy    <       0.00019253 Ry

     iteration #  7     ecut=    30.00 Ry     beta= 0.50
     Davidson diagonalization with overlap
     ethr =  7.52E-08,  avg # of iterations =  7.0

     total cpu time spent up to now is        2.9 secs

     total energy              =    -503.53780943 Ry
     estimated scf accuracy    <       0.00005547 Ry

     iteration #  8     ecut=    30.00 Ry     beta= 0.50
     Davidson diagonalization with overlap
     ethr =  2.17E-08,  avg # of iterations =  4.0

     total cpu time spent up to now is        3.1 secs

     total energy              =    -503.53781905 Ry
     estimated scf accuracy    <       0.00000443 Ry

     iteration #  9     ecut=    30.00 Ry     beta= 0.50
     Davidson diagonalization with overlap
     ethr =  1.73E-09,  avg # of iterations =  8.0

     total cpu time spent up to now is        3.3 secs

     total energy              =    -503.53782017 Ry
     estimated scf accuracy    <       0.00000699 Ry

     iteration # 10     ecut=    30.00 Ry     beta= 0.50
     Davidson diagonalization with overlap
     ethr =  1.73E-09,  avg # of iterations =  3.0

     total cpu time spent up to now is        3.4 secs

     End of self-consistent calculation

          k = 0.0000 0.0000 0.0000 ( 12631 PWs)   bands (ev):

    -6.0088  -5.1755  -5.0498  -4.9626  -4.9307  -4.8820  -4.7179  -4.3844
    -4.2167  -4.1857  -4.1006  -4.0808  -4.0442  -3.9724  -3.9433  -3.9178
    -3.8453  -3.8316  -3.7726  -3.6945  -3.6654  -3.6023  -3.2845  -2.2374
    -2.2104  -2.1503  -2.0952  -2.0256  -1.9941  -1.9750  -1.9315  -1.8734
    -1.8246  -1.8130  -1.7396  -1.7374  -1.6973  -1.6487  -1.5698  -1.5270
    -1.4668  -1.1229  -1.0053  -0.9604  -0.9100   0.0620   0.1226   0.1602
     0.2166   0.2620   0.3000   0.3452   0.3804   0.3954   0.4350   0.4821
     0.5635   1.7303   1.7349   1.8016   1.8276   1.8915   1.9065   1.9272
     1.9443   1.9807   2.0002   2.0141   2.0246   2.0701   2.0887   2.0999
     2.1320   2.1423   2.1670   2.1823   2.2148   2.2559   2.2677   2.3210
     2.3321   2.3567   2.3816   2.4128   2.4618   2.4785   2.5857   2.8522
     2.8599   2.9772   2.9878   3.1323   3.1617   3.6512   3.6831   3.7577
     3.8106   3.8874   3.9043   3.9603   3.9725   4.0246   4.0297   4.0707
     4.1152   4.1351   4.2167   4.2786   4.3081   4.3500   4.3695   4.4083
     4.4418   4.4867   4.5511   4.5532   4.5932   4.5976   4.6748   4.7010
     4.7274   4.7648   4.8131   4.8404   5.2164   5.6625   5.8008   5.9338

     highest occupied level (ev):     5.9338

!    total energy              =    -503.53782032 Ry
     estimated scf accuracy    <       0.00000093 Ry

     The total energy is the sum of the following terms:
     one-electron contribution =     135.35186505 Ry
     hartree contribution      =      39.35148646 Ry
     xc contribution           =    -152.73312311 Ry
     ewald contribution        =    -525.50804872 Ry

     convergence has been achieved in  10 iterations

     Forces acting on atoms (cartesian axes, Ry/au):

     atom    1 type  1   force =    -0.04457554   -0.06287237   -0.01138481
     atom    2 type  1   force =    -0.04153833    0.00083755   -0.00424831
     atom    3 type  1   force =    -0.05092092   -0.00323596    0.03239742
     atom    4 type  1   force =    -0.02997370    0.00414651    0.01178800
     atom    5 type  1   force =    -0.07730908    0.07568010   -0.04297646
     atom    6 type  1   force =     0.02104723    0.04043885    0.02744085
     atom    7 type  1   force =    -0.04067950   -0.01787925    0.00408915
     atom    8 type  1   force =     0.06329267    0.05281288   -0.04926101
     atom    9 type  1   force =     0.05121194   -0.00693579    0.02246452
     atom   10 type  1   force =    -0.05217166    0.02546705    0.04338930
     atom   11 type  1   force =     0.03435997    0.00090772   -0.00640517
     atom   12 type  1   force =    -0.02661561   -0.01715882   -0.02941794
     atom   13 type  1   force =     0.01334294   -0.02452522   -0.06853295
     atom   14 type  1   force =     0.04109691   -0.08043743    0.00593958
     atom   15 type  1   force =     0.00572302   -0.03031152    0.01505466
     atom   16 type  1   force =    -0.03780764    0.00419751    0.00901166
     atom   17 type  1   force =    -0.00196916    0.03409922    0.03572891
     atom   18 type  1   force =    -0.07973204   -0.04129948   -0.03242491
     atom   19 type  1   force =    -0.00111732   -0.01794198    0.01362015
     atom   20 type  1   force =    -0.05934119   -0.01641884    0.02647031
     atom   21 type  1   force =    -0.05669101    0.00388538    0.05576840
     atom   22 type  1   force =     0.01191327   -0.07801378    0.00448150
     atom   23 type  1   force =    -0.00952816    0.04488568    0.02378390
     atom   24 type  1   force =     0.00081868    0.02311637    0.03319664
     atom   25 type  1   force =    -0.02667741   -0.00055286   -0.02166976
     atom   26 type  1   force =    -0.02672971    0.00785754    0.03713202
     atom   27 type  1   force =     0.01945678   -0.02678493    0.02332334
     atom   28 type  1   force =    -0.04333768   -0.04065360   -0.01063174
     atom   29 type  1   force =    -0.05623980    0.03391779   -0.06131276
     atom   30 type  1   force =     0.02022162   -0.03045727    0.03509988
     atom   31 type  1   force =     0.00399239    0.01423478   -0.01931061
     atom   32 type  1   force =    -0.05262813    0.01457468    0.03698317
     atom   33 type  1   force =     0.06037332   -0.00969069    0.00093143
     atom   34 type  1   force =     0.03818414   -0.00337488   -0.02366300
     atom   35 type  1   force =     0.07209291    0.05106507    0.05015458
     atom   36 type  1   force =    -0.08381322   -0.00453222   -0.01511782
     atom   37 type  1   force =     0.05731836   -0.03655504   -0.02977094
     atom   38 type  1   force =     0.02968919    0.02365723    0.02246513
     atom   39 type  1   force =     0.04473349    0.03192318    0.09103753
     atom   40 type  1   force =    -0.05427377   -0.05484540   -0.07024450
     atom   41 type  1   force =     0.01892877    0.00967646    0.00284522
     atom   42 type  1   force =    -0.04905342    0.02461445    0.01755397
     atom   43 type  1   force =     0.07139844    0.01750792   -0.02491593
     atom   44 type  1   force =     0.02568583   -0.01852196   -0.03702757
     atom   45 type  1   force =    -0.02284420    0.01634853   -0.01961531
     atom   46 type  1   force =     0.04546728    0.04051324   -0.02899048
     atom   47 type  1   force =     0.01578001   -0.03604502    0.02821644
     atom   48 type  1   force =    -0.02052425   -0.03040818   -0.00369885
     atom   49 type  1   force =     0.03060749   -0.00825519    0.00176253
     atom   50 type  1   force =    -0.00511306   -0.01489962   -0.00133014
     atom   51 type  1   force =     0.08123398    0.00575899   -0.01643579
     atom   52 type  1   force =     0.03074764    0.05971020   -0.01132049
     atom   53 type  1   force =     0.00016725    0.03598243   -0.00094435
     atom   54 type  1   force =     0.05536289   -0.00614399    0.08451182
     atom   55 type  1   force =    -0.00242073   -0.03123563   -0.03095924
     atom   56 type  1   force =    -0.01463394   -0.01646463   -0.00649275
     atom   57 type  1   force =     0.04777873   -0.00251677    0.01262600
     atom   58 type  1   force =    -0.04234012   -0.02255072   -0.02399905
     atom   59 type  1   force =     0.03249776   -0.01666067   -0.06559973
     atom   60 type  1   force =    -0.05461926    0.07334137    0.01408160
     atom   61 type  1   force =     0.04613152    0.05802642   -0.05640745
     atom   62 type  1   force =    -0.00707907   -0.01109898    0.02925816
     atom   63 type  1   force =     0.02656929   -0.02177877   -0.02901167
     atom   64 type  1   force =     0.05507296    0.01187237    0.00051376

     Total force =     0.511392     Total SCF correction =     0.001786


     Computing stress (Cartesian axis) and pressure

          total   stress  (Ry/bohr**3)                   (kbar)     P=       -8.59
  -0.00004039  -0.00000875   0.00001156           -5.94       -1.29        1.70
  -0.00000875  -0.00012606   0.00003809           -1.29      -18.54        5.60
   0.00001156   0.00003809  -0.00000865            1.70        5.60       -1.27

 
     init_run     :      0.93s CPU      1.40s WALL (       1 calls)
     electrons    :      1.90s CPU      1.99s WALL (       1 calls)
     forces       :      0.06s CPU      0.07s WALL (       1 calls)
     stress       :      0.25s CPU      0.27s WALL (       1 calls)

     Called by init_run:
     wfcinit      :      0.55s CPU      0.88s WALL (       1 calls)
                                        0.88s GPU  (       1 calls)
     potinit      :      0.25s CPU      0.29s WALL (       1 calls)
     hinit0       :      0.12s CPU      0.12s WALL (       1 calls)

     Called by electrons:
     c_bands      :      1.24s CPU      1.26s WALL (      11 calls)
     sum_band     :      0.27s CPU      0.28s WALL (      11 calls)
     v_of_rho     :      0.17s CPU      0.24s WALL (      11 calls)
     mix_rho      :      0.21s CPU      0.24s WALL (      11 calls)

     Called by c_bands:
     init_us_2    :      0.03s CPU      0.04s WALL (      23 calls)
     init_us_2:gp :      0.03s CPU      0.04s WALL (      23 calls)
     regterg      :      1.13s CPU      1.15s WALL (      11 calls)

     Called by *egterg:
     rdiaghg      :      0.35s CPU      0.41s WALL (      75 calls)
                                        0.40s GPU  (      75 calls)
     h_psi        :      1.15s CPU      1.43s WALL (      77 calls)
                                        1.42s GPU  (      77 calls)
     g_psi        :      0.00s CPU      0.00s WALL (      65 calls)
                                        0.00s GPU  (      65 calls)

     Called by h_psi:
     h_psi:calbec :      0.42s CPU      0.71s WALL (      77 calls)
                                        0.71s GPU  (      77 calls)
     vloc_psi     :      0.63s CPU      0.64s WALL (      77 calls)
                                        0.64s GPU  (      77 calls)
     add_vuspsi   :      0.03s CPU      0.06s WALL (      77 calls)
                                        0.06s GPU  (      77 calls)

     General routines
     calbec       :      0.42s CPU      0.68s WALL (      82 calls)
     fft          :      0.17s CPU      0.19s WALL (      95 calls)
                                        0.03s GPU  (      59 calls)
     ffts         :      0.04s CPU      0.05s WALL (      11 calls)
     fftw         :      0.03s CPU      0.72s WALL (    1072 calls)
                                        0.61s GPU  (    1072 calls)
 
     Parallel routines
 
     PWSCF        :      3.17s CPU      3.78s WALL

 
   This run was terminated on:  22:10:54   8Jul2023            

=------------------------------------------------------------------------------=
   JOB DONE.
=------------------------------------------------------------------------------=
