
     Program PWSCF v.7.0 starts on  8Jul2023 at 22:16:48 

     This program is part of the open-source Quantum ESPRESSO suite
     for quantum simulation of materials; please cite
         "P. Giannozzi et al., J. Phys.:Condens. Matter 21 395502 (2009);
         "P. Giannozzi et al., J. Phys.:Condens. Matter 29 465901 (2017);
         "P. Giannozzi et al., J. Chem. Phys. 152 154105 (2020);
          URL http://www.quantum-espresso.org", 
     in publications or presentations arising from this work. More details at
     http://www.quantum-espresso.org/quote

     Parallel version (MPI & OpenMP), running on       1 processor cores
     Number of MPI processes:                 1
     Threads/MPI process:                     1

     MPI processes distributed on     1 nodes
     109177 MiB available memory on the printing compute node when the environment starts
 
     Reading input from pw-si-36.in
Warning: card &CELL ignored
Warning: card / ignored

     Current dimensions of program PWSCF are:
     Max number of different atomic species (ntypx) = 10
     Max number of k-points (npk) =  40000
     Max angular momentum in pseudopotentials (lmaxx) =  4

     IMPORTANT: XC functional enforced from input :
     Exchange-correlation= PBE
                           (   1   4   3   4   0   0   0)
     Any further DFT definition will be discarded
     Please, verify this is what you really want


     gamma-point specific algorithms are used

     Subspace diagonalization in iterative solution of the eigenvalue problem:
     a serial algorithm will be used

 
     G-vector sticks info
     --------------------
     sticks:   dense  smooth     PW     G-vecs:    dense   smooth      PW
     Sum        4161    4161   1041               204953   204953   25593
 
     Using Slab Decomposition
 


     bravais-lattice index     =            0
     lattice parameter (alat)  =      20.6905  a.u.
     unit-cell volume          =    9238.6517 (a.u.)^3
     number of atoms/cell      =           64
     number of atomic types    =            1
     number of electrons       =       256.00
     number of Kohn-Sham states=          128
     kinetic-energy cutoff     =      30.0000  Ry
     charge density cutoff     =     120.0000  Ry
     scf convergence threshold =      1.0E-06
     mixing beta               =       0.5000
     number of iterations used =            8  plain     mixing
     Exchange-correlation= PBE
                           (   1   4   3   4   0   0   0)

     GPU acceleration is ACTIVE.


     celldm(1)=  20.690512  celldm(2)=   0.000000  celldm(3)=   0.000000
     celldm(4)=   0.000000  celldm(5)=   0.000000  celldm(6)=   0.000000

     crystal axes: (cart. coord. in units of alat)
               a(1) = (   1.000000   0.000000   0.000000 )  
               a(2) = (   0.000000   1.020272   0.000000 )  
               a(3) = (   0.000000   0.000000   1.022301 )  

     reciprocal axes: (cart. coord. in units 2 pi/alat)
               b(1) = (  1.000000  0.000000  0.000000 )  
               b(2) = (  0.000000  0.980131  0.000000 )  
               b(3) = (  0.000000  0.000000  0.978185 )  


     PseudoPot. # 1 for Si read from file:
     ./Si_ONCV_PBE-1.0.upf
     MD5 check sum: 2de5a83d12544a9ea852f39b88f19b1f
     Pseudo is Norm-conserving, Zval =  4.0
     Generated using ONCVPSP code by D. R. Hamann
     Using radial grid of  602 points,  4 beta functions with: 
                l(1) =   0
                l(2) =   0
                l(3) =   1
                l(4) =   1

     atomic species   valence    mass     pseudopotential
        Si             4.00    28.08500     Si( 1.00)

     No symmetry found



   Cartesian axes

     site n.     atom                  positions (alat units)
         1           Si  tau(   1) = (   0.3708622   0.3747585   0.1246974  )
         2           Si  tau(   2) = (  -0.0074076   0.2601291   0.2522134  )
         3           Si  tau(   3) = (   0.3724903   0.1282629   0.3806577  )
         4           Si  tau(   4) = (  -0.0043773  -0.0015814   0.0064908  )
         5           Si  tau(   5) = (   0.1197260   0.3859349   0.3751364  )
         6           Si  tau(   6) = (   0.2436287   0.2547745   0.0075793  )
         7           Si  tau(   7) = (   0.1144021   0.1296307   0.1284700  )
         8           Si  tau(   8) = (   0.2461840  -0.0034600   0.2588399  )
         9           Si  tau(   9) = (   0.3652230   0.3862190   0.6399696  )
        10           Si  tau(  10) = (  -0.0027071   0.2481910   0.7655178  )
        11           Si  tau(  11) = (   0.3743526   0.1279649   0.8922969  )
        12           Si  tau(  12) = (  -0.0081924   0.0050815   0.5172480  )
        13           Si  tau(  13) = (   0.1196323   0.3827838   0.8843427  )
        14           Si  tau(  14) = (   0.2482726   0.2433248   0.5088643  )
        15           Si  tau(  15) = (   0.1251169   0.1273549   0.6435982  )
        16           Si  tau(  16) = (   0.2354350  -0.0051336   0.7703865  )
        17           Si  tau(  17) = (   0.3744367   0.8819660   0.1266550  )
        18           Si  tau(  18) = (   0.0048573   0.7564593   0.2597865  )
        19           Si  tau(  19) = (   0.3613089   0.6305753   0.3820536  )
        20           Si  tau(  20) = (   0.0011865   0.4956533  -0.0003125  )
        21           Si  tau(  21) = (   0.1212399   0.8800677   0.3804221  )
        22           Si  tau(  22) = (   0.2430848   0.7583271   0.0086007  )
        23           Si  tau(  23) = (   0.1196297   0.6343993   0.1271842  )
        24           Si  tau(  24) = (   0.2420582   0.4992192   0.2490359  )
        25           Si  tau(  25) = (   0.3710471   0.8784900   0.6457737  )
        26           Si  tau(  26) = (   0.0064645   0.7465607   0.7633320  )
        27           Si  tau(  27) = (   0.3662994   0.6369369   0.8937688  )
        28           Si  tau(  28) = (  -0.0005674   0.5073724   0.5029792  )
        29           Si  tau(  29) = (   0.1299214   0.8863185   0.8895212  )
        30           Si  tau(  30) = (   0.2413127   0.7629589   0.5110989  )
        31           Si  tau(  31) = (   0.1199704   0.6270560   0.6354975  )
        32           Si  tau(  32) = (   0.2493532   0.5018342   0.7576341  )
        33           Si  tau(  33) = (   0.8601385   0.3741376   0.1188103  )
        34           Si  tau(  34) = (   0.4939535   0.2478377   0.2581712  )
        35           Si  tau(  35) = (   0.8483714   0.1348016   0.3828254  )
        36           Si  tau(  36) = (   0.4799767  -0.0072947  -0.0085781  )
        37           Si  tau(  37) = (   0.6148866   0.3744759   0.3916603  )
        38           Si  tau(  38) = (   0.7270621   0.2464208  -0.0004058  )
        39           Si  tau(  39) = (   0.6159121   0.1264831   0.1226583  )
        40           Si  tau(  40) = (   0.7331858   0.0060077   0.2497321  )
        41           Si  tau(  41) = (   0.8497930   0.3826407   0.6459361  )
        42           Si  tau(  42) = (   0.4843150   0.2595985   0.7570943  )
        43           Si  tau(  43) = (   0.8573763   0.1255519   0.8896039  )
        44           Si  tau(  44) = (   0.4797785  -0.0018965   0.5110627  )
        45           Si  tau(  45) = (   0.6188156   0.3731912   0.8911066  )
        46           Si  tau(  46) = (   0.7321413   0.2508160   0.5107089  )
        47           Si  tau(  47) = (   0.6165382   0.1279311   0.6463081  )
        48           Si  tau(  48) = (   0.7271183   0.0022946   0.7596413  )
        49           Si  tau(  49) = (   0.8599497   0.8776586   0.1313252  )
        50           Si  tau(  50) = (   0.4862027   0.7552952   0.2644995  )
        51           Si  tau(  51) = (   0.8466529   0.6313347   0.3740443  )
        52           Si  tau(  52) = (   0.4957473   0.4943397  -0.0059259  )
        53           Si  tau(  53) = (   0.6096683   0.8848295   0.3813828  )
        54           Si  tau(  54) = (   0.7299135   0.7527609  -0.0047172  )
        55           Si  tau(  55) = (   0.6026236   0.6260665   0.1277775  )
        56           Si  tau(  56) = (   0.7351900   0.4965077   0.2572489  )
        57           Si  tau(  57) = (   0.8613622   0.8849034   0.6433573  )
        58           Si  tau(  58) = (   0.4801704   0.7632363   0.7718021  )
        59           Si  tau(  59) = (   0.8572170   0.6203484   0.8974221  )
        60           Si  tau(  60) = (   0.4925090   0.5057966   0.5174238  )
        61           Si  tau(  61) = (   0.6065319   0.8887628   0.8879873  )
        62           Si  tau(  62) = (   0.7386040   0.7516514   0.5194058  )
        63           Si  tau(  63) = (   0.6178963   0.6365558   0.6435060  )
        64           Si  tau(  64) = (   0.7362348   0.5002112   0.7678316  )

     number of k points=     1
                       cart. coord. in units 2pi/alat
        k(    1) = (   0.0000000   0.0000000   0.0000000), wk =   2.0000000

     Dense  grid:   102477 G-vectors     FFT dimensions: (  75,  75,  75)

     Estimated max dynamical RAM per process >     299.15 MB

     Initial potential from superposition of free atoms

     starting charge     253.0416, renormalised to     256.0000
     Starting wfcs are random

     total cpu time spent up to now is        1.4 secs

     Self-consistent Calculation

     iteration #  1     ecut=    30.00 Ry     beta= 0.50
     Davidson diagonalization with overlap
     ethr =  1.00E-02,  avg # of iterations = 13.0

     Threshold (ethr) on eigenvalues was too large:
     Diagonalizing with lowered threshold

     Davidson diagonalization with overlap
     ethr =  5.64E-04,  avg # of iterations =  9.0

     total cpu time spent up to now is        1.9 secs

     total energy              =    -503.47885959 Ry
     estimated scf accuracy    <       1.73067734 Ry

     iteration #  2     ecut=    30.00 Ry     beta= 0.50
     Davidson diagonalization with overlap
     ethr =  6.76E-04,  avg # of iterations =  1.0

     total cpu time spent up to now is        2.0 secs

     total energy              =    -503.48773322 Ry
     estimated scf accuracy    <       0.32352937 Ry

     iteration #  3     ecut=    30.00 Ry     beta= 0.50
     Davidson diagonalization with overlap
     ethr =  1.26E-04,  avg # of iterations =  4.0

     total cpu time spent up to now is        2.2 secs

     total energy              =    -503.51722328 Ry
     estimated scf accuracy    <       0.00737953 Ry

     iteration #  4     ecut=    30.00 Ry     beta= 0.50
     Davidson diagonalization with overlap
     ethr =  2.88E-06,  avg # of iterations = 12.0

     total cpu time spent up to now is        2.4 secs

     total energy              =    -503.52506684 Ry
     estimated scf accuracy    <       0.00601646 Ry

     iteration #  5     ecut=    30.00 Ry     beta= 0.50
     Davidson diagonalization with overlap
     ethr =  2.35E-06,  avg # of iterations =  3.0

     total cpu time spent up to now is        2.6 secs

     total energy              =    -503.52644695 Ry
     estimated scf accuracy    <       0.00165048 Ry

     iteration #  6     ecut=    30.00 Ry     beta= 0.50
     Davidson diagonalization with overlap
     ethr =  6.45E-07,  avg # of iterations =  7.0

     total cpu time spent up to now is        2.8 secs

     total energy              =    -503.52646737 Ry
     estimated scf accuracy    <       0.00040867 Ry

     iteration #  7     ecut=    30.00 Ry     beta= 0.50
     Davidson diagonalization with overlap
     ethr =  1.60E-07,  avg # of iterations =  5.0

     total cpu time spent up to now is        2.9 secs

     total energy              =    -503.52657740 Ry
     estimated scf accuracy    <       0.00009448 Ry

     iteration #  8     ecut=    30.00 Ry     beta= 0.50
     Davidson diagonalization with overlap
     ethr =  3.69E-08,  avg # of iterations =  4.0

     total cpu time spent up to now is        3.1 secs

     total energy              =    -503.52659450 Ry
     estimated scf accuracy    <       0.00000401 Ry

     iteration #  9     ecut=    30.00 Ry     beta= 0.50
     Davidson diagonalization with overlap
     ethr =  1.57E-09,  avg # of iterations = 11.0

     total cpu time spent up to now is        3.4 secs

     total energy              =    -503.52659493 Ry
     estimated scf accuracy    <       0.00001632 Ry

     iteration # 10     ecut=    30.00 Ry     beta= 0.50
     Davidson diagonalization with overlap
     ethr =  1.57E-09,  avg # of iterations =  3.0

     total cpu time spent up to now is        3.5 secs

     End of self-consistent calculation

          k = 0.0000 0.0000 0.0000 ( 12797 PWs)   bands (ev):

    -6.0362  -5.1728  -5.1161  -5.0114  -4.9719  -4.9448  -4.7994  -4.3246
    -4.2987  -4.2845  -4.2192  -4.1476  -4.0901  -4.0410  -4.0136  -3.9830
    -3.9435  -3.8918  -3.8457  -3.7594  -3.7341  -3.6895  -3.3859  -2.3108
    -2.2421  -2.2116  -2.1768  -2.1242  -2.0891  -2.0497  -2.0021  -1.9685
    -1.9206  -1.8879  -1.8659  -1.7982  -1.7640  -1.7512  -1.6951  -1.6718
    -1.5271  -1.2232  -1.1008  -1.0537  -1.0092   0.0498   0.0849   0.1040
     0.1295   0.1818   0.1952   0.2115   0.2531   0.2729   0.3007   0.3581
     0.4329   1.6699   1.6882   1.7205   1.7428   1.7655   1.7872   1.8272
     1.8417   1.8843   1.9074   1.9096   1.9349   1.9624   1.9707   1.9901
     2.0176   2.0522   2.0741   2.1004   2.1230   2.1496   2.2102   2.2413
     2.2695   2.2850   2.3352   2.3767   2.4057   2.4494   2.4919   2.7344
     2.7881   2.8825   2.9686   3.0128   3.0547   3.5288   3.6220   3.6638
     3.7182   3.7445   3.7737   3.8480   3.8685   3.8858   3.9414   3.9509
     3.9747   4.0439   4.0714   4.1603   4.1990   4.2251   4.2523   4.3091
     4.3506   4.3759   4.3964   4.4168   4.4712   4.5106   4.5316   4.5728
     4.6405   4.7000   4.7139   4.9075   5.0427   5.5852   5.6809   5.8036

     highest occupied level (ev):     5.8036

!    total energy              =    -503.52659675 Ry
     estimated scf accuracy    <       0.00000056 Ry

     The total energy is the sum of the following terms:
     one-electron contribution =     132.67230821 Ry
     hartree contribution      =      39.57790309 Ry
     xc contribution           =    -152.31742868 Ry
     ewald contribution        =    -523.45937937 Ry

     convergence has been achieved in  10 iterations

     Forces acting on atoms (cartesian axes, Ry/au):

     atom    1 type  1   force =     0.00597946    0.00365800    0.02235425
     atom    2 type  1   force =    -0.03846147   -0.02091022    0.01000694
     atom    3 type  1   force =    -0.02885998   -0.03613739    0.00522657
     atom    4 type  1   force =    -0.03797244   -0.03301271   -0.03982574
     atom    5 type  1   force =    -0.00111633   -0.05392563    0.03290766
     atom    6 type  1   force =    -0.00865366   -0.01472375   -0.05747631
     atom    7 type  1   force =     0.01820747   -0.01867275    0.02221483
     atom    8 type  1   force =    -0.00900584   -0.00660375   -0.02950563
     atom    9 type  1   force =     0.01204434   -0.05364122   -0.06233207
     atom   10 type  1   force =    -0.05267794    0.02854178    0.00344196
     atom   11 type  1   force =    -0.06750503    0.00829284   -0.00644584
     atom   12 type  1   force =    -0.02430807   -0.03098041   -0.02919192
     atom   13 type  1   force =     0.02174213   -0.03246548    0.02768711
     atom   14 type  1   force =    -0.01932291    0.06188300   -0.00000043
     atom   15 type  1   force =    -0.02354510   -0.01899729   -0.02439617
     atom   16 type  1   force =     0.07687882    0.01720539   -0.02407045
     atom   17 type  1   force =    -0.03235169    0.02324807    0.02681651
     atom   18 type  1   force =    -0.09400595   -0.01271778   -0.02097441
     atom   19 type  1   force =    -0.00473850   -0.01789145    0.02343938
     atom   20 type  1   force =    -0.04952566    0.03815393   -0.00510182
     atom   21 type  1   force =    -0.00420216    0.07378213    0.03676204
     atom   22 type  1   force =     0.01394098    0.01446619   -0.04107168
     atom   23 type  1   force =    -0.00870467   -0.03928956    0.00240644
     atom   24 type  1   force =     0.02733910    0.03770280   -0.00832056
     atom   25 type  1   force =    -0.06776187    0.07229442   -0.05008339
     atom   26 type  1   force =    -0.07273086    0.04180418    0.04148687
     atom   27 type  1   force =    -0.01656765   -0.05084146    0.02458807
     atom   28 type  1   force =    -0.07929797    0.00336935    0.01536494
     atom   29 type  1   force =    -0.06446054   -0.02407131    0.05729164
     atom   30 type  1   force =     0.01195052   -0.02780531    0.01557167
     atom   31 type  1   force =     0.02222556   -0.00166135   -0.02942655
     atom   32 type  1   force =    -0.04352371    0.05783429    0.05330106
     atom   33 type  1   force =     0.01789195    0.00324113    0.02123076
     atom   34 type  1   force =     0.01492134    0.02811868   -0.02142244
     atom   35 type  1   force =     0.07989327   -0.02844853   -0.01431773
     atom   36 type  1   force =     0.05598933    0.00478023    0.02953272
     atom   37 type  1   force =    -0.02592827    0.01760466   -0.02571143
     atom   38 type  1   force =     0.06660223    0.02090113   -0.03308909
     atom   39 type  1   force =    -0.06366610   -0.04062645    0.00843786
     atom   40 type  1   force =     0.01900822   -0.06251986    0.02181937
     atom   41 type  1   force =     0.09947155   -0.04676418   -0.06518569
     atom   42 type  1   force =     0.03878970   -0.02433768    0.04367129
     atom   43 type  1   force =     0.03060714   -0.02035324    0.02140849
     atom   44 type  1   force =     0.05574644   -0.02277761    0.02400183
     atom   45 type  1   force =    -0.03314929   -0.00475477   -0.01194317
     atom   46 type  1   force =     0.01233429    0.01133928    0.05181015
     atom   47 type  1   force =    -0.06740167    0.01469383   -0.07565002
     atom   48 type  1   force =     0.06023564   -0.06048870    0.05014547
     atom   49 type  1   force =     0.02909734    0.03362942   -0.00797372
     atom   50 type  1   force =     0.01606712    0.00026589   -0.04016213
     atom   51 type  1   force =     0.09269948    0.00741373    0.03419621
     atom   52 type  1   force =    -0.02752966    0.03738404   -0.00147314
     atom   53 type  1   force =     0.01779478    0.02783331    0.02999402
     atom   54 type  1   force =     0.00712375    0.01210022    0.01491354
     atom   55 type  1   force =     0.02845270    0.00048478    0.01212729
     atom   56 type  1   force =    -0.01592451    0.00383077   -0.04034115
     atom   57 type  1   force =     0.03638195    0.00937741   -0.00499536
     atom   58 type  1   force =     0.06924363   -0.03568305   -0.00558893
     atom   59 type  1   force =     0.05823197    0.02222535   -0.00251716
     atom   60 type  1   force =     0.00081221    0.02520292   -0.02448685
     atom   61 type  1   force =     0.01999030    0.00934755    0.01935899
     atom   62 type  1   force =     0.00618936    0.05278114   -0.04579094
     atom   63 type  1   force =    -0.04333995   -0.02551869    0.02643581
     atom   64 type  1   force =    -0.01764459    0.04182977    0.01892017

     Total force =     0.507872     Total SCF correction =     0.001394


     Computing stress (Cartesian axis) and pressure

          total   stress  (Ry/bohr**3)                   (kbar)     P=      -19.05
  -0.00006980   0.00000846  -0.00003209          -10.27        1.24       -4.72
   0.00000846  -0.00015537  -0.00000642            1.24      -22.86       -0.94
  -0.00003209  -0.00000642  -0.00016343           -4.72       -0.94      -24.04

 
     init_run     :      0.96s CPU      1.40s WALL (       1 calls)
     electrons    :      2.00s CPU      2.08s WALL (       1 calls)
     forces       :      0.07s CPU      0.07s WALL (       1 calls)
     stress       :      0.25s CPU      0.26s WALL (       1 calls)

     Called by init_run:
     wfcinit      :      0.58s CPU      0.88s WALL (       1 calls)
                                        0.88s GPU  (       1 calls)
     potinit      :      0.22s CPU      0.29s WALL (       1 calls)
     hinit0       :      0.12s CPU      0.13s WALL (       1 calls)

     Called by electrons:
     c_bands      :      1.30s CPU      1.33s WALL (      11 calls)
     sum_band     :      0.28s CPU      0.29s WALL (      11 calls)
     v_of_rho     :      0.18s CPU      0.25s WALL (      11 calls)
     mix_rho      :      0.23s CPU      0.24s WALL (      11 calls)

     Called by c_bands:
     init_us_2    :      0.04s CPU      0.04s WALL (      23 calls)
     init_us_2:gp :      0.04s CPU      0.04s WALL (      23 calls)
     regterg      :      1.19s CPU      1.22s WALL (      11 calls)

     Called by *egterg:
     rdiaghg      :      0.39s CPU      0.44s WALL (      82 calls)
                                        0.43s GPU  (      82 calls)
     h_psi        :      1.19s CPU      1.46s WALL (      84 calls)
                                        1.46s GPU  (      84 calls)
     g_psi        :      0.00s CPU      0.00s WALL (      72 calls)
                                        0.00s GPU  (      72 calls)

     Called by h_psi:
     h_psi:calbec :      0.45s CPU      0.72s WALL (      84 calls)
                                        0.72s GPU  (      84 calls)
     vloc_psi     :      0.63s CPU      0.66s WALL (      84 calls)
                                        0.65s GPU  (      84 calls)
     add_vuspsi   :      0.04s CPU      0.07s WALL (      84 calls)
                                        0.07s GPU  (      84 calls)

     General routines
     calbec       :      0.45s CPU      0.69s WALL (      89 calls)
     fft          :      0.17s CPU      0.19s WALL (      95 calls)
                                        0.03s GPU  (      59 calls)
     ffts         :      0.04s CPU      0.05s WALL (      11 calls)
     fftw         :      0.04s CPU      0.73s WALL (    1092 calls)
                                        0.63s GPU  (    1092 calls)
 
     Parallel routines
 
     PWSCF        :      3.30s CPU      3.85s WALL

 
   This run was terminated on:  22:16:51   8Jul2023            

=------------------------------------------------------------------------------=
   JOB DONE.
=------------------------------------------------------------------------------=
