
     Program PWSCF v.7.0 starts on  8Jul2023 at 22:10:46 

     This program is part of the open-source Quantum ESPRESSO suite
     for quantum simulation of materials; please cite
         "P. Giannozzi et al., J. Phys.:Condens. Matter 21 395502 (2009);
         "P. Giannozzi et al., J. Phys.:Condens. Matter 29 465901 (2017);
         "P. Giannozzi et al., J. Chem. Phys. 152 154105 (2020);
          URL http://www.quantum-espresso.org", 
     in publications or presentations arising from this work. More details at
     http://www.quantum-espresso.org/quote

     Parallel version (MPI & OpenMP), running on       1 processor cores
     Number of MPI processes:                 1
     Threads/MPI process:                     1

     MPI processes distributed on     1 nodes
     109226 MiB available memory on the printing compute node when the environment starts
 
     Reading input from pw-si-3.in
Warning: card &CELL ignored
Warning: card / ignored

     Current dimensions of program PWSCF are:
     Max number of different atomic species (ntypx) = 10
     Max number of k-points (npk) =  40000
     Max angular momentum in pseudopotentials (lmaxx) =  4

     IMPORTANT: XC functional enforced from input :
     Exchange-correlation= PBE
                           (   1   4   3   4   0   0   0)
     Any further DFT definition will be discarded
     Please, verify this is what you really want


     gamma-point specific algorithms are used

     Subspace diagonalization in iterative solution of the eigenvalue problem:
     a serial algorithm will be used

 
     G-vector sticks info
     --------------------
     sticks:   dense  smooth     PW     G-vecs:    dense   smooth      PW
     Sum        4163    4163   1043               199629   199629   24969
 
     Using Slab Decomposition
 


     bravais-lattice index     =            0
     lattice parameter (alat)  =      21.1808  a.u.
     unit-cell volume          =    8992.4902 (a.u.)^3
     number of atoms/cell      =           64
     number of atomic types    =            1
     number of electrons       =       256.00
     number of Kohn-Sham states=          128
     kinetic-energy cutoff     =      30.0000  Ry
     charge density cutoff     =     120.0000  Ry
     scf convergence threshold =      1.0E-06
     mixing beta               =       0.5000
     number of iterations used =            8  plain     mixing
     Exchange-correlation= PBE
                           (   1   4   3   4   0   0   0)

     GPU acceleration is ACTIVE.


     celldm(1)=  21.180792  celldm(2)=   0.000000  celldm(3)=   0.000000
     celldm(4)=   0.000000  celldm(5)=   0.000000  celldm(6)=   0.000000

     crystal axes: (cart. coord. in units of alat)
               a(1) = (   1.000000   0.000000   0.000000 )  
               a(2) = (   0.000000   0.973643   0.000000 )  
               a(3) = (   0.000000   0.000000   0.971972 )  

     reciprocal axes: (cart. coord. in units 2 pi/alat)
               b(1) = (  1.000000  0.000000  0.000000 )  
               b(2) = (  0.000000  1.027071  0.000000 )  
               b(3) = (  0.000000  0.000000  1.028836 )  


     PseudoPot. # 1 for Si read from file:
     ./Si_ONCV_PBE-1.0.upf
     MD5 check sum: 2de5a83d12544a9ea852f39b88f19b1f
     Pseudo is Norm-conserving, Zval =  4.0
     Generated using ONCVPSP code by D. R. Hamann
     Using radial grid of  602 points,  4 beta functions with: 
                l(1) =   0
                l(2) =   0
                l(3) =   1
                l(4) =   1

     atomic species   valence    mass     pseudopotential
        Si             4.00    28.08500     Si( 1.00)

     No symmetry found



   Cartesian axes

     site n.     atom                  positions (alat units)
         1           Si  tau(   1) = (   0.3776310   0.3522358   0.1156288  )
         2           Si  tau(   2) = (   0.0078052   0.2385263   0.2484859  )
         3           Si  tau(   3) = (   0.3844422   0.1113943   0.3723061  )
         4           Si  tau(   4) = (   0.0083564   0.0039542   0.0057645  )
         5           Si  tau(   5) = (   0.1308807   0.3519265   0.3607627  )
         6           Si  tau(   6) = (   0.2590051   0.2377153  -0.0062131  )
         7           Si  tau(   7) = (   0.1193004   0.1150419   0.1218185  )
         8           Si  tau(   8) = (   0.2461692  -0.0075253   0.2478930  )
         9           Si  tau(   9) = (   0.3699820   0.3551244   0.6102916  )
        10           Si  tau(  10) = (  -0.0079484   0.2368538   0.7353109  )
        11           Si  tau(  11) = (   0.3686326   0.1172410   0.8456704  )
        12           Si  tau(  12) = (   0.0014119   0.0064078   0.4800373  )
        13           Si  tau(  13) = (   0.1314314   0.3605848   0.8603766  )
        14           Si  tau(  14) = (   0.2563915   0.2322916   0.4814380  )
        15           Si  tau(  15) = (   0.1170258   0.1260045   0.6031860  )
        16           Si  tau(  16) = (   0.2519097  -0.0011679   0.7327103  )
        17           Si  tau(  17) = (   0.3707955   0.8433523   0.1145870  )
        18           Si  tau(  18) = (  -0.0086948   0.7155456   0.2459534  )
        19           Si  tau(  19) = (   0.3820330   0.5959539   0.3670039  )
        20           Si  tau(  20) = (  -0.0085604   0.4755198   0.0048682  )
        21           Si  tau(  21) = (   0.1287899   0.8357282   0.3684504  )
        22           Si  tau(  22) = (   0.2429354   0.7209729  -0.0001091  )
        23           Si  tau(  23) = (   0.1275085   0.6009635   0.1206099  )
        24           Si  tau(  24) = (   0.2554105   0.4856430   0.2429087  )
        25           Si  tau(  25) = (   0.3848665   0.8448640   0.6002953  )
        26           Si  tau(  26) = (   0.0046285   0.7220137   0.7334225  )
        27           Si  tau(  27) = (   0.3710300   0.5989012   0.8566690  )
        28           Si  tau(  28) = (  -0.0076543   0.4851690   0.4835423  )
        29           Si  tau(  29) = (   0.1257374   0.8424494   0.8523313  )
        30           Si  tau(  30) = (   0.2498231   0.7241730   0.4866675  )
        31           Si  tau(  31) = (   0.1220744   0.6041925   0.6167455  )
        32           Si  tau(  32) = (   0.2535993   0.4731673   0.7345819  )
        33           Si  tau(  33) = (   0.8785254   0.3647672   0.1292745  )
        34           Si  tau(  34) = (   0.5072794   0.2349695   0.2415269  )
        35           Si  tau(  35) = (   0.8820489   0.1241025   0.3581031  )
        36           Si  tau(  36) = (   0.5115635  -0.0036585   0.0041569  )
        37           Si  tau(  37) = (   0.6324813   0.3673777   0.3692077  )
        38           Si  tau(  38) = (   0.7582686   0.2365731   0.0068548  )
        39           Si  tau(  39) = (   0.6249404   0.1266356   0.1298929  )
        40           Si  tau(  40) = (   0.7464806  -0.0044998   0.2507462  )
        41           Si  tau(  41) = (   0.8820275   0.3660953   0.6098708  )
        42           Si  tau(  42) = (   0.4943170   0.2325918   0.7225717  )
        43           Si  tau(  43) = (   0.8834720   0.1259768   0.8598020  )
        44           Si  tau(  44) = (   0.4965956  -0.0031960   0.4831070  )
        45           Si  tau(  45) = (   0.6333513   0.3530256   0.8563681  )
        46           Si  tau(  46) = (   0.7534371   0.2377687   0.4800795  )
        47           Si  tau(  47) = (   0.6356204   0.1244151   0.6059198  )
        48           Si  tau(  48) = (   0.7624016   0.0075272   0.7311582  )
        49           Si  tau(  49) = (   0.8801362   0.8467310   0.1226116  )
        50           Si  tau(  50) = (   0.5061122   0.7239454   0.2390356  )
        51           Si  tau(  51) = (   0.8811427   0.5974776   0.3702114  )
        52           Si  tau(  52) = (   0.5043884   0.4809102  -0.0060241  )
        53           Si  tau(  53) = (   0.6237829   0.8402601   0.3579037  )
        54           Si  tau(  54) = (   0.7627489   0.7145213  -0.0062706  )
        55           Si  tau(  55) = (   0.6373795   0.6019158   0.1131403  )
        56           Si  tau(  56) = (   0.7560513   0.4798046   0.2374511  )
        57           Si  tau(  57) = (   0.8878978   0.8313265   0.6064831  )
        58           Si  tau(  58) = (   0.4990607   0.7230388   0.7272831  )
        59           Si  tau(  59) = (   0.8767472   0.5901616   0.8592215  )
        60           Si  tau(  60) = (   0.5080364   0.4787855   0.4930346  )
        61           Si  tau(  61) = (   0.6347701   0.8302048   0.8599047  )
        62           Si  tau(  62) = (   0.7615413   0.7126055   0.4785889  )
        63           Si  tau(  63) = (   0.6342418   0.6027811   0.6055849  )
        64           Si  tau(  64) = (   0.7547791   0.4776366   0.7312957  )

     number of k points=     1
                       cart. coord. in units 2pi/alat
        k(    1) = (   0.0000000   0.0000000   0.0000000), wk =   2.0000000

     Dense  grid:    99815 G-vectors     FFT dimensions: (  75,  72,  72)

     Estimated max dynamical RAM per process >     289.76 MB

     Initial potential from superposition of free atoms

     starting charge     253.0416, renormalised to     256.0000
     Starting wfcs are random

     total cpu time spent up to now is        1.4 secs

     Self-consistent Calculation

     iteration #  1     ecut=    30.00 Ry     beta= 0.50
     Davidson diagonalization with overlap
     ethr =  1.00E-02,  avg # of iterations = 12.0

     Threshold (ethr) on eigenvalues was too large:
     Diagonalizing with lowered threshold

     Davidson diagonalization with overlap
     ethr =  6.13E-04,  avg # of iterations = 12.0

     total cpu time spent up to now is        1.8 secs

     total energy              =    -503.50762267 Ry
     estimated scf accuracy    <       1.82008736 Ry

     iteration #  2     ecut=    30.00 Ry     beta= 0.50
     Davidson diagonalization with overlap
     ethr =  7.11E-04,  avg # of iterations =  1.0

     total cpu time spent up to now is        1.9 secs

     total energy              =    -503.51522323 Ry
     estimated scf accuracy    <       0.33096425 Ry

     iteration #  3     ecut=    30.00 Ry     beta= 0.50
     Davidson diagonalization with overlap
     ethr =  1.29E-04,  avg # of iterations =  2.0

     total cpu time spent up to now is        2.0 secs

     total energy              =    -503.54072452 Ry
     estimated scf accuracy    <       0.00655086 Ry

     iteration #  4     ecut=    30.00 Ry     beta= 0.50
     Davidson diagonalization with overlap
     ethr =  2.56E-06,  avg # of iterations = 11.0

     total cpu time spent up to now is        2.3 secs

     total energy              =    -503.54839014 Ry
     estimated scf accuracy    <       0.00297860 Ry

     iteration #  5     ecut=    30.00 Ry     beta= 0.50
     Davidson diagonalization with overlap
     ethr =  1.16E-06,  avg # of iterations =  5.0

     total cpu time spent up to now is        2.4 secs

     total energy              =    -503.54894641 Ry
     estimated scf accuracy    <       0.00065479 Ry

     iteration #  6     ecut=    30.00 Ry     beta= 0.50
     Davidson diagonalization with overlap
     ethr =  2.56E-07,  avg # of iterations =  8.0

     total cpu time spent up to now is        2.6 secs

     total energy              =    -503.54904513 Ry
     estimated scf accuracy    <       0.00020902 Ry

     iteration #  7     ecut=    30.00 Ry     beta= 0.50
     Davidson diagonalization with overlap
     ethr =  8.16E-08,  avg # of iterations =  3.0

     total cpu time spent up to now is        2.7 secs

     total energy              =    -503.54907483 Ry
     estimated scf accuracy    <       0.00002097 Ry

     iteration #  8     ecut=    30.00 Ry     beta= 0.50
     Davidson diagonalization with overlap
     ethr =  8.19E-09,  avg # of iterations =  9.0

     total cpu time spent up to now is        2.9 secs

     total energy              =    -503.54908022 Ry
     estimated scf accuracy    <       0.00000664 Ry

     iteration #  9     ecut=    30.00 Ry     beta= 0.50
     Davidson diagonalization with overlap
     ethr =  2.59E-09,  avg # of iterations =  4.0

     total cpu time spent up to now is        3.0 secs

     End of self-consistent calculation

          k = 0.0000 0.0000 0.0000 ( 12485 PWs)   bands (ev):

    -5.9295  -5.0595  -4.9753  -4.9463  -4.8391  -4.7558  -4.6859  -4.2939
    -4.1362  -4.1024  -4.0598  -3.9686  -3.9239  -3.9080  -3.8697  -3.8415
    -3.7714  -3.7543  -3.6506  -3.6195  -3.5866  -3.5379  -3.3398  -2.1458
    -2.1364  -2.0291  -1.9983  -1.9307  -1.9246  -1.8421  -1.7895  -1.7507
    -1.7109  -1.6755  -1.6618  -1.6242  -1.5976  -1.5463  -1.5339  -1.4449
    -1.3770  -1.0165  -0.9291  -0.9182  -0.7523   0.2187   0.2277   0.3285
     0.3617   0.3949   0.4107   0.4388   0.4865   0.5254   0.5483   0.5874
     0.6819   1.8403   1.9019   1.9275   1.9573   1.9878   2.0046   2.0326
     2.0540   2.0755   2.1078   2.1245   2.1355   2.1489   2.1873   2.2042
     2.2263   2.2401   2.2774   2.2914   2.3179   2.3276   2.3717   2.3769
     2.4001   2.4286   2.4641   2.5188   2.5481   2.6272   2.6945   2.9916
     3.0243   3.0517   3.0763   3.2355   3.2978   3.7988   3.8163   3.8657
     3.9167   3.9809   4.0227   4.0590   4.0865   4.1426   4.1750   4.2054
     4.2541   4.2729   4.2766   4.3809   4.4264   4.4565   4.5124   4.5300
     4.5438   4.5960   4.6258   4.7001   4.7029   4.7345   4.7984   4.8280
     4.8833   4.9040   4.9670   5.0612   5.1983   5.7860   6.0038   6.0528

     highest occupied level (ev):     6.0528

!    total energy              =    -503.54908120 Ry
     estimated scf accuracy    <       0.00000092 Ry

     The total energy is the sum of the following terms:
     one-electron contribution =     139.86039156 Ry
     hartree contribution      =      38.39644776 Ry
     xc contribution           =    -153.20700389 Ry
     ewald contribution        =    -528.59891663 Ry

     convergence has been achieved in   9 iterations

     Forces acting on atoms (cartesian axes, Ry/au):

     atom    1 type  1   force =     0.02343722    0.03994664    0.02836350
     atom    2 type  1   force =    -0.02065123    0.01212128   -0.05458484
     atom    3 type  1   force =    -0.04872624    0.03050476   -0.08436207
     atom    4 type  1   force =    -0.04354702   -0.07638244   -0.04275498
     atom    5 type  1   force =     0.01450566    0.06061711    0.03079744
     atom    6 type  1   force =    -0.04972444   -0.01807148    0.04422475
     atom    7 type  1   force =     0.08819724    0.04455940    0.03497832
     atom    8 type  1   force =     0.02064423   -0.01013973   -0.01350181
     atom    9 type  1   force =     0.02864828    0.01063838   -0.02804735
     atom   10 type  1   force =     0.07098486    0.05692494   -0.02458487
     atom   11 type  1   force =     0.07740744   -0.02468756    0.02078633
     atom   12 type  1   force =     0.00911542   -0.07832067    0.01414876
     atom   13 type  1   force =    -0.04684074   -0.01716135   -0.02621216
     atom   14 type  1   force =    -0.02154432    0.01939957    0.02279857
     atom   15 type  1   force =     0.03485489   -0.02304891    0.03251061
     atom   16 type  1   force =    -0.03620698   -0.04169235   -0.05776409
     atom   17 type  1   force =     0.02323544    0.02444497    0.02843508
     atom   18 type  1   force =     0.06211242    0.03114274   -0.01131567
     atom   19 type  1   force =     0.00604265    0.03236363    0.00419884
     atom   20 type  1   force =     0.08861263    0.00731140    0.00762013
     atom   21 type  1   force =    -0.04542416    0.04799313   -0.02574190
     atom   22 type  1   force =     0.02766685    0.00476156   -0.00193763
     atom   23 type  1   force =    -0.04327181   -0.00844589    0.01893347
     atom   24 type  1   force =    -0.00346275   -0.04611424   -0.01438380
     atom   25 type  1   force =    -0.04928675    0.01426875    0.03726644
     atom   26 type  1   force =    -0.02135747   -0.02018873    0.03828359
     atom   27 type  1   force =     0.01725339    0.01354548   -0.03606325
     atom   28 type  1   force =     0.10660739   -0.05016746    0.04386265
     atom   29 type  1   force =     0.00206362    0.04471656   -0.00246603
     atom   30 type  1   force =     0.03070580   -0.03761737    0.02559804
     atom   31 type  1   force =     0.03818281   -0.03102931   -0.03938810
     atom   32 type  1   force =    -0.02779865    0.03532271   -0.00691831
     atom   33 type  1   force =     0.00935979   -0.06865206   -0.00370892
     atom   34 type  1   force =    -0.05298774    0.06083934    0.06536200
     atom   35 type  1   force =    -0.04429283   -0.03674805    0.02081776
     atom   36 type  1   force =    -0.03489935   -0.01520529   -0.01932895
     atom   37 type  1   force =    -0.01501632   -0.03316589   -0.03736368
     atom   38 type  1   force =    -0.01576787    0.02105641    0.02321271
     atom   39 type  1   force =     0.05467944   -0.07279299   -0.04443863
     atom   40 type  1   force =     0.02728144    0.00737309   -0.03767200
     atom   41 type  1   force =    -0.03634499   -0.03829813   -0.00980008
     atom   42 type  1   force =     0.04025041    0.01422390    0.03168639
     atom   43 type  1   force =    -0.02665781   -0.05373420    0.00242738
     atom   44 type  1   force =     0.10097009   -0.03992671    0.03692676
     atom   45 type  1   force =    -0.03218243   -0.00079130   -0.04011265
     atom   46 type  1   force =     0.03116616    0.03557075    0.01838511
     atom   47 type  1   force =    -0.03834360   -0.03857452   -0.00386078
     atom   48 type  1   force =    -0.01228902   -0.07526448    0.00533780
     atom   49 type  1   force =    -0.02428611    0.01047462   -0.00220078
     atom   50 type  1   force =    -0.03109947   -0.03111600   -0.02781031
     atom   51 type  1   force =    -0.04505768   -0.00820628   -0.08286441
     atom   52 type  1   force =     0.00950114   -0.01542128    0.02893424
     atom   53 type  1   force =     0.01744978    0.01704220    0.05232291
     atom   54 type  1   force =     0.00220983    0.03683735    0.05390513
     atom   55 type  1   force =    -0.03763734   -0.00255609    0.02097186
     atom   56 type  1   force =    -0.02579838    0.03459122    0.05043293
     atom   57 type  1   force =    -0.03727671    0.08738058   -0.02174693
     atom   58 type  1   force =     0.02177285   -0.01269804    0.01896854
     atom   59 type  1   force =     0.02101872    0.02593004   -0.07358161
     atom   60 type  1   force =    -0.02856431    0.00035656    0.00169099
     atom   61 type  1   force =    -0.02518314    0.08085476   -0.05424844
     atom   62 type  1   force =    -0.05122803    0.06133452    0.03666762
     atom   63 type  1   force =    -0.01386397   -0.00022905    0.02610773
     atom   64 type  1   force =    -0.01931821    0.00199948    0.00180064

     Total force =     0.534267     Total SCF correction =     0.001508


     Computing stress (Cartesian axis) and pressure

          total   stress  (Ry/bohr**3)                   (kbar)     P=        3.60
  -0.00009007  -0.00004008   0.00001368          -13.25       -5.90        2.01
  -0.00004008   0.00007084  -0.00002122           -5.90       10.42       -3.12
   0.00001368  -0.00002122   0.00009259            2.01       -3.12       13.62

 
     init_run     :      0.97s CPU      1.39s WALL (       1 calls)
     electrons    :      1.52s CPU      1.58s WALL (       1 calls)
     forces       :      0.06s CPU      0.07s WALL (       1 calls)
     stress       :      0.23s CPU      0.25s WALL (       1 calls)

     Called by init_run:
     wfcinit      :      0.58s CPU      0.90s WALL (       1 calls)
                                        0.90s GPU  (       1 calls)
     potinit      :      0.23s CPU      0.27s WALL (       1 calls)
     hinit0       :      0.12s CPU      0.12s WALL (       1 calls)

     Called by electrons:
     c_bands      :      0.99s CPU      1.01s WALL (      10 calls)
     sum_band     :      0.20s CPU      0.21s WALL (      10 calls)
     v_of_rho     :      0.16s CPU      0.21s WALL (      10 calls)
     mix_rho      :      0.18s CPU      0.19s WALL (      10 calls)

     Called by c_bands:
     init_us_2    :      0.03s CPU      0.03s WALL (      21 calls)
     init_us_2:gp :      0.03s CPU      0.03s WALL (      21 calls)
     regterg      :      0.89s CPU      0.91s WALL (      10 calls)

     Called by *egterg:
     rdiaghg      :      0.36s CPU      0.42s WALL (      76 calls)
                                        0.41s GPU  (      76 calls)
     h_psi        :      0.94s CPU      1.20s WALL (      78 calls)
                                        1.20s GPU  (      78 calls)
     g_psi        :      0.00s CPU      0.00s WALL (      67 calls)
                                        0.00s GPU  (      67 calls)

     Called by h_psi:
     h_psi:calbec :      0.44s CPU      0.73s WALL (      78 calls)
                                        0.73s GPU  (      78 calls)
     vloc_psi     :      0.40s CPU      0.41s WALL (      78 calls)
                                        0.40s GPU  (      78 calls)
     add_vuspsi   :      0.03s CPU      0.06s WALL (      78 calls)
                                        0.06s GPU  (      78 calls)

     General routines
     calbec       :      0.44s CPU      0.70s WALL (      83 calls)
     fft          :      0.15s CPU      0.15s WALL (      87 calls)
                                        0.03s GPU  (      54 calls)
     ffts         :      0.04s CPU      0.04s WALL (      10 calls)
     fftw         :      0.03s CPU      0.45s WALL (     988 calls)
                                        0.37s GPU  (     988 calls)
 
     Parallel routines
 
     PWSCF        :      2.81s CPU      3.34s WALL

 
   This run was terminated on:  22:10:49   8Jul2023            

=------------------------------------------------------------------------------=
   JOB DONE.
=------------------------------------------------------------------------------=
