
     Program PWSCF v.7.0 starts on  8Jul2023 at 22:18:21 

     This program is part of the open-source Quantum ESPRESSO suite
     for quantum simulation of materials; please cite
         "P. Giannozzi et al., J. Phys.:Condens. Matter 21 395502 (2009);
         "P. Giannozzi et al., J. Phys.:Condens. Matter 29 465901 (2017);
         "P. Giannozzi et al., J. Chem. Phys. 152 154105 (2020);
          URL http://www.quantum-espresso.org", 
     in publications or presentations arising from this work. More details at
     http://www.quantum-espresso.org/quote

     Parallel version (MPI & OpenMP), running on       1 processor cores
     Number of MPI processes:                 1
     Threads/MPI process:                     1

     MPI processes distributed on     1 nodes
     109224 MiB available memory on the printing compute node when the environment starts
 
     Reading input from pw-si-47.in
Warning: card &CELL ignored
Warning: card / ignored

     Current dimensions of program PWSCF are:
     Max number of different atomic species (ntypx) = 10
     Max number of k-points (npk) =  40000
     Max angular momentum in pseudopotentials (lmaxx) =  4

     IMPORTANT: XC functional enforced from input :
     Exchange-correlation= PBE
                           (   1   4   3   4   0   0   0)
     Any further DFT definition will be discarded
     Please, verify this is what you really want


     gamma-point specific algorithms are used

     Subspace diagonalization in iterative solution of the eigenvalue problem:
     a serial algorithm will be used

 
     G-vector sticks info
     --------------------
     sticks:   dense  smooth     PW     G-vecs:    dense   smooth      PW
     Sum        4013    4013   1001               193193   193193   24081
 
     Using Slab Decomposition
 


     bravais-lattice index     =            0
     lattice parameter (alat)  =      20.4857  a.u.
     unit-cell volume          =    8706.5039 (a.u.)^3
     number of atoms/cell      =           64
     number of atomic types    =            1
     number of electrons       =       256.00
     number of Kohn-Sham states=          128
     kinetic-energy cutoff     =      30.0000  Ry
     charge density cutoff     =     120.0000  Ry
     scf convergence threshold =      1.0E-06
     mixing beta               =       0.5000
     number of iterations used =            8  plain     mixing
     Exchange-correlation= PBE
                           (   1   4   3   4   0   0   0)

     GPU acceleration is ACTIVE.


     celldm(1)=  20.485668  celldm(2)=   0.000000  celldm(3)=   0.000000
     celldm(4)=   0.000000  celldm(5)=   0.000000  celldm(6)=   0.000000

     crystal axes: (cart. coord. in units of alat)
               a(1) = (   1.000000   0.000000   0.000000 )  
               a(2) = (   0.000000   1.004057   0.000000 )  
               a(3) = (   0.000000   0.000000   1.008638 )  

     reciprocal axes: (cart. coord. in units 2 pi/alat)
               b(1) = (  1.000000  0.000000  0.000000 )  
               b(2) = (  0.000000  0.995960  0.000000 )  
               b(3) = (  0.000000  0.000000  0.991436 )  


     PseudoPot. # 1 for Si read from file:
     ./Si_ONCV_PBE-1.0.upf
     MD5 check sum: 2de5a83d12544a9ea852f39b88f19b1f
     Pseudo is Norm-conserving, Zval =  4.0
     Generated using ONCVPSP code by D. R. Hamann
     Using radial grid of  602 points,  4 beta functions with: 
                l(1) =   0
                l(2) =   0
                l(3) =   1
                l(4) =   1

     atomic species   valence    mass     pseudopotential
        Si             4.00    28.08500     Si( 1.00)

     No symmetry found



   Cartesian axes

     site n.     atom                  positions (alat units)
         1           Si  tau(   1) = (   0.3761904   0.3761605   0.1204599  )
         2           Si  tau(   2) = (  -0.0061933   0.2481329   0.2532269  )
         3           Si  tau(   3) = (   0.3841814   0.1206626   0.3765333  )
         4           Si  tau(   4) = (   0.0039461  -0.0001498  -0.0037130  )
         5           Si  tau(   5) = (   0.1300237   0.3713126   0.3901308  )
         6           Si  tau(   6) = (   0.2533973   0.2433314  -0.0072070  )
         7           Si  tau(   7) = (   0.1289424   0.1303603   0.1276745  )
         8           Si  tau(   8) = (   0.2462389  -0.0081526   0.2650961  )
         9           Si  tau(   9) = (   0.3680341   0.3860491   0.6337436  )
        10           Si  tau(  10) = (  -0.0058323   0.2567557   0.7796816  )
        11           Si  tau(  11) = (   0.3779766   0.1345426   0.8904774  )
        12           Si  tau(  12) = (  -0.0037645   0.0002454   0.5065282  )
        13           Si  tau(  13) = (   0.1311799   0.3787353   0.8956378  )
        14           Si  tau(  14) = (   0.2527718   0.2429273   0.5198436  )
        15           Si  tau(  15) = (   0.1273888   0.1202077   0.6446784  )
        16           Si  tau(  16) = (   0.2441997   0.0024962   0.7705083  )
        17           Si  tau(  17) = (   0.3673985   0.8788484   0.1227208  )
        18           Si  tau(  18) = (   0.0085570   0.7520602   0.2560229  )
        19           Si  tau(  19) = (   0.3781823   0.6210771   0.3885617  )
        20           Si  tau(  20) = (   0.0019331   0.5119565  -0.0030386  )
        21           Si  tau(  21) = (   0.1286472   0.8850265   0.3809511  )
        22           Si  tau(  22) = (   0.2420254   0.7465229   0.0083519  )
        23           Si  tau(  23) = (   0.1260595   0.6314566   0.1311589  )
        24           Si  tau(  24) = (   0.2552789   0.5038845   0.2541683  )
        25           Si  tau(  25) = (   0.3714576   0.8806973   0.6472520  )
        26           Si  tau(  26) = (   0.0022511   0.7544886   0.7785251  )
        27           Si  tau(  27) = (   0.3678320   0.6232361   0.8945980  )
        28           Si  tau(  28) = (   0.0054432   0.4970070   0.5140651  )
        29           Si  tau(  29) = (   0.1281827   0.8756460   0.8914225  )
        30           Si  tau(  30) = (   0.2581090   0.7594951   0.5189240  )
        31           Si  tau(  31) = (   0.1229843   0.6258682   0.6416883  )
        32           Si  tau(  32) = (   0.2541482   0.5100158   0.7654444  )
        33           Si  tau(  33) = (   0.8803028   0.3692909   0.1357745  )
        34           Si  tau(  34) = (   0.4950519   0.2540612   0.2644648  )
        35           Si  tau(  35) = (   0.8716385   0.1324455   0.3935764  )
        36           Si  tau(  36) = (   0.5021875  -0.0020865  -0.0033349  )
        37           Si  tau(  37) = (   0.6327730   0.3735898   0.3881174  )
        38           Si  tau(  38) = (   0.7426053   0.2533867   0.0008666  )
        39           Si  tau(  39) = (   0.6271411   0.1264437   0.1231895  )
        40           Si  tau(  40) = (   0.7585789  -0.0036022   0.2487083  )
        41           Si  tau(  41) = (   0.8720690   0.3857825   0.6484680  )
        42           Si  tau(  42) = (   0.5006644   0.2428912   0.7662396  )
        43           Si  tau(  43) = (   0.8808670   0.1342753   0.9002272  )
        44           Si  tau(  44) = (   0.4991800   0.0047923   0.5210466  )
        45           Si  tau(  45) = (   0.6199963   0.3738588   0.8954130  )
        46           Si  tau(  46) = (   0.7574668   0.2482495   0.5118125  )
        47           Si  tau(  47) = (   0.6238234   0.1340682   0.6420509  )
        48           Si  tau(  48) = (   0.7459439   0.0061139   0.7639964  )
        49           Si  tau(  49) = (   0.8703550   0.8787256   0.1298199  )
        50           Si  tau(  50) = (   0.5068196   0.7488570   0.2507905  )
        51           Si  tau(  51) = (   0.8834491   0.6345534   0.3923883  )
        52           Si  tau(  52) = (   0.5071582   0.5033787  -0.0037540  )
        53           Si  tau(  53) = (   0.6224128   0.8798288   0.3785020  )
        54           Si  tau(  54) = (   0.7448781   0.7526023  -0.0080846  )
        55           Si  tau(  55) = (   0.6233141   0.6303651   0.1274110  )
        56           Si  tau(  56) = (   0.7442113   0.5103043   0.2586389  )
        57           Si  tau(  57) = (   0.8728134   0.8750423   0.6335952  )
        58           Si  tau(  58) = (   0.5001371   0.7556709   0.7651534  )
        59           Si  tau(  59) = (   0.8690615   0.6341633   0.9048144  )
        60           Si  tau(  60) = (   0.5029192   0.5059903   0.5105627  )
        61           Si  tau(  61) = (   0.6320666   0.8808648   0.8926952  )
        62           Si  tau(  62) = (   0.7444318   0.7534552   0.5122609  )
        63           Si  tau(  63) = (   0.6259371   0.6254008   0.6333121  )
        64           Si  tau(  64) = (   0.7429984   0.5099942   0.7734197  )

     number of k points=     1
                       cart. coord. in units 2pi/alat
        k(    1) = (   0.0000000   0.0000000   0.0000000), wk =   2.0000000

     Dense  grid:    96597 G-vectors     FFT dimensions: (  72,  72,  75)

     Estimated max dynamical RAM per process >     281.44 MB

     Initial potential from superposition of free atoms

     starting charge     253.0416, renormalised to     256.0000
     Starting wfcs are random

     total cpu time spent up to now is        1.4 secs

     Self-consistent Calculation

     iteration #  1     ecut=    30.00 Ry     beta= 0.50
     Davidson diagonalization with overlap
     ethr =  1.00E-02,  avg # of iterations = 10.0

     Threshold (ethr) on eigenvalues was too large:
     Diagonalizing with lowered threshold

     Davidson diagonalization with overlap
     ethr =  6.32E-04,  avg # of iterations = 12.0

     total cpu time spent up to now is        1.8 secs

     total energy              =    -503.40799116 Ry
     estimated scf accuracy    <       1.79083933 Ry

     iteration #  2     ecut=    30.00 Ry     beta= 0.50
     Davidson diagonalization with overlap
     ethr =  7.00E-04,  avg # of iterations =  2.0

     total cpu time spent up to now is        1.9 secs

     total energy              =    -503.42134153 Ry
     estimated scf accuracy    <       0.32006323 Ry

     iteration #  3     ecut=    30.00 Ry     beta= 0.50
     Davidson diagonalization with overlap
     ethr =  1.25E-04,  avg # of iterations = 17.0

     total cpu time spent up to now is        2.1 secs

     total energy              =    -503.51625745 Ry
     estimated scf accuracy    <       0.04548713 Ry

     iteration #  4     ecut=    30.00 Ry     beta= 0.50
     Davidson diagonalization with overlap
     ethr =  1.78E-05,  avg # of iterations =  4.0

     total cpu time spent up to now is        2.3 secs

     total energy              =    -503.52241040 Ry
     estimated scf accuracy    <       0.00758834 Ry

     iteration #  5     ecut=    30.00 Ry     beta= 0.50
     Davidson diagonalization with overlap
     ethr =  2.96E-06,  avg # of iterations =  8.0

     total cpu time spent up to now is        2.4 secs

     total energy              =    -503.52413505 Ry
     estimated scf accuracy    <       0.00174939 Ry

     iteration #  6     ecut=    30.00 Ry     beta= 0.50
     Davidson diagonalization with overlap
     ethr =  6.83E-07,  avg # of iterations =  7.0

     total cpu time spent up to now is        2.6 secs

     total energy              =    -503.52455755 Ry
     estimated scf accuracy    <       0.00057296 Ry

     iteration #  7     ecut=    30.00 Ry     beta= 0.50
     Davidson diagonalization with overlap
     ethr =  2.24E-07,  avg # of iterations =  4.0

     total cpu time spent up to now is        2.7 secs

     total energy              =    -503.52467556 Ry
     estimated scf accuracy    <       0.00016388 Ry

     iteration #  8     ecut=    30.00 Ry     beta= 0.50
     Davidson diagonalization with overlap
     ethr =  6.40E-08,  avg # of iterations =  5.0

     total cpu time spent up to now is        2.9 secs

     total energy              =    -503.52469546 Ry
     estimated scf accuracy    <       0.00003407 Ry

     iteration #  9     ecut=    30.00 Ry     beta= 0.50
     Davidson diagonalization with overlap
     ethr =  1.33E-08,  avg # of iterations =  8.0

     total cpu time spent up to now is        3.1 secs

     total energy              =    -503.52470427 Ry
     estimated scf accuracy    <       0.00001172 Ry

     iteration # 10     ecut=    30.00 Ry     beta= 0.50
     Davidson diagonalization with overlap
     ethr =  4.58E-09,  avg # of iterations =  3.0

     total cpu time spent up to now is        3.2 secs

     total energy              =    -503.52470517 Ry
     estimated scf accuracy    <       0.00000253 Ry

     iteration # 11     ecut=    30.00 Ry     beta= 0.50
     Davidson diagonalization with overlap
     ethr =  9.89E-10,  avg # of iterations =  8.0

     total cpu time spent up to now is        3.4 secs

     total energy              =    -503.52470585 Ry
     estimated scf accuracy    <       0.00000166 Ry

     iteration # 12     ecut=    30.00 Ry     beta= 0.50
     Davidson diagonalization with overlap
     ethr =  6.47E-10,  avg # of iterations =  4.0

     total cpu time spent up to now is        3.5 secs

     End of self-consistent calculation

          k = 0.0000 0.0000 0.0000 ( 12041 PWs)   bands (ev):

    -5.8176  -4.8935  -4.8309  -4.8092  -4.6933  -4.6236  -4.5606  -4.0543
    -3.9642  -3.9194  -3.8780  -3.8330  -3.8136  -3.6973  -3.6525  -3.6083
    -3.5890  -3.5540  -3.4764  -3.4076  -3.3696  -3.2959  -3.2651  -1.9382
    -1.8526  -1.7713  -1.7187  -1.6944  -1.6530  -1.6051  -1.5603  -1.4989
    -1.4905  -1.4484  -1.4051  -1.3711  -1.3449  -1.2991  -1.2849  -1.2191
    -1.1896  -0.8001  -0.7544  -0.7204  -0.6044   0.4854   0.5642   0.5948
     0.6352   0.6531   0.7103   0.7194   0.7661   0.7851   0.8392   0.8675
     0.8750   2.0242   2.0662   2.1303   2.1560   2.1809   2.2010   2.2715
     2.2875   2.3172   2.3355   2.3457   2.3637   2.3867   2.4481   2.4590
     2.4822   2.4958   2.5367   2.5504   2.5609   2.5911   2.5950   2.6403
     2.6494   2.6694   2.7124   2.7366   2.7570   2.8683   2.9577   3.2523
     3.3197   3.3312   3.3702   3.4174   3.4275   4.0664   4.1343   4.1705
     4.1902   4.2494   4.2685   4.3029   4.3450   4.3587   4.4232   4.4578
     4.4906   4.5582   4.6872   4.6995   4.7669   4.7999   4.8526   4.8932
     4.9207   4.9720   4.9856   5.0022   5.0575   5.0600   5.0905   5.1303
     5.1709   5.2198   5.2444   5.2724   5.3150   6.2148   6.2505   6.3811

     highest occupied level (ev):     6.3811

!    total energy              =    -503.52470606 Ry
     estimated scf accuracy    <       0.00000011 Ry

     The total energy is the sum of the following terms:
     one-electron contribution =     148.06709715 Ry
     hartree contribution      =      37.29107273 Ry
     xc contribution           =    -154.27431852 Ry
     ewald contribution        =    -534.60855742 Ry

     convergence has been achieved in  12 iterations

     Forces acting on atoms (cartesian axes, Ry/au):

     atom    1 type  1   force =     0.00606975   -0.00063325    0.02383065
     atom    2 type  1   force =     0.06036964   -0.01040054    0.05998939
     atom    3 type  1   force =    -0.05346841   -0.01313762    0.06472625
     atom    4 type  1   force =    -0.00540191   -0.00301336    0.07067354
     atom    5 type  1   force =    -0.00405007   -0.00990880   -0.03622705
     atom    6 type  1   force =    -0.02807175    0.06432415    0.09309615
     atom    7 type  1   force =    -0.01046699   -0.04651334    0.01530020
     atom    8 type  1   force =     0.05968844    0.08133113   -0.08536456
     atom    9 type  1   force =     0.04295137   -0.03649392    0.02102148
     atom   10 type  1   force =     0.04730916    0.01359170   -0.06428626
     atom   11 type  1   force =     0.01430883   -0.10186472   -0.04026775
     atom   12 type  1   force =     0.02271728   -0.00038149    0.02827692
     atom   13 type  1   force =    -0.01179206    0.02234547   -0.04618174
     atom   14 type  1   force =     0.00926186    0.00437100   -0.04069070
     atom   15 type  1   force =    -0.06328043    0.03010409   -0.01148597
     atom   16 type  1   force =     0.04367367   -0.00836149    0.00911056
     atom   17 type  1   force =     0.03202642   -0.01095374    0.03027529
     atom   18 type  1   force =    -0.04019045    0.03107157    0.01651805
     atom   19 type  1   force =    -0.00299714    0.05739069   -0.03099041
     atom   20 type  1   force =     0.00970119   -0.05990022    0.08070338
     atom   21 type  1   force =    -0.04092640   -0.06868827    0.06608970
     atom   22 type  1   force =     0.04155014    0.03411493   -0.01612904
     atom   23 type  1   force =    -0.01707385   -0.05021508    0.02084984
     atom   24 type  1   force =    -0.01913942   -0.02575101    0.01125591
     atom   25 type  1   force =     0.02326963    0.02833489   -0.00136112
     atom   26 type  1   force =    -0.03943698   -0.01897147   -0.06771438
     atom   27 type  1   force =     0.05276495    0.04491555   -0.01234671
     atom   28 type  1   force =    -0.01695173    0.01326778    0.00437773
     atom   29 type  1   force =     0.00438712    0.01130831    0.00431528
     atom   30 type  1   force =    -0.04369328   -0.03445960   -0.03593508
     atom   31 type  1   force =     0.00848709    0.03478813    0.00022606
     atom   32 type  1   force =    -0.03911016   -0.04348790   -0.01206050
     atom   33 type  1   force =    -0.06354964    0.08358623   -0.05474191
     atom   34 type  1   force =     0.04967600    0.01326673   -0.06127168
     atom   35 type  1   force =     0.03618651   -0.06621351   -0.08519722
     atom   36 type  1   force =    -0.02426455    0.01683737    0.04327231
     atom   37 type  1   force =    -0.02900586    0.01922311   -0.00889689
     atom   38 type  1   force =     0.05672505    0.00233576    0.05327425
     atom   39 type  1   force =    -0.02796559   -0.01291862    0.04701138
     atom   40 type  1   force =    -0.05742566    0.05914514    0.06320004
     atom   41 type  1   force =     0.00755765   -0.02274964   -0.01355950
     atom   42 type  1   force =    -0.02175541    0.10083444   -0.02384357
     atom   43 type  1   force =    -0.05927925   -0.04219654   -0.03537036
     atom   44 type  1   force =     0.00866413   -0.02189740   -0.03645622
     atom   45 type  1   force =     0.01693784   -0.00239388   -0.07675537
     atom   46 type  1   force =    -0.04399853    0.06447010    0.06684135
     atom   47 type  1   force =     0.02613643   -0.03450130   -0.03441087
     atom   48 type  1   force =     0.05305288    0.00133377    0.00309313
     atom   49 type  1   force =     0.06191485   -0.04170038   -0.04691629
     atom   50 type  1   force =    -0.07081766    0.03093423    0.02661215
     atom   51 type  1   force =    -0.02295844   -0.02467023   -0.02203607
     atom   52 type  1   force =    -0.05078948    0.01228332    0.06047434
     atom   53 type  1   force =     0.01481577    0.01110598    0.01841708
     atom   54 type  1   force =    -0.01202020    0.03375213    0.13807030
     atom   55 type  1   force =     0.02401790   -0.01637323   -0.02979625
     atom   56 type  1   force =     0.05989521   -0.02505020    0.01007476
     atom   57 type  1   force =     0.00405898    0.01887457    0.03942799
     atom   58 type  1   force =     0.00238020   -0.02091241    0.01427487
     atom   59 type  1   force =     0.04432640   -0.04136736   -0.10575939
     atom   60 type  1   force =     0.00837481   -0.05550041    0.00015674
     atom   61 type  1   force =    -0.04673917    0.01375342   -0.07432442
     atom   62 type  1   force =     0.01965037    0.00732166   -0.02567077
     atom   63 type  1   force =    -0.01706138    0.02609308    0.03848101
     atom   64 type  1   force =     0.01077437   -0.01482951   -0.00727007

     Total force =     0.577330     Total SCF correction =     0.000631


     Computing stress (Cartesian axis) and pressure

          total   stress  (Ry/bohr**3)                   (kbar)     P=       33.05
   0.00026053  -0.00006826  -0.00004769           38.33      -10.04       -7.02
  -0.00006826   0.00023910  -0.00000656          -10.04       35.17       -0.96
  -0.00004769  -0.00000656   0.00017443           -7.02       -0.96       25.66

 
     init_run     :      0.88s CPU      1.36s WALL (       1 calls)
     electrons    :      2.01s CPU      2.11s WALL (       1 calls)
     forces       :      0.06s CPU      0.06s WALL (       1 calls)
     stress       :      0.22s CPU      0.26s WALL (       1 calls)

     Called by init_run:
     wfcinit      :      0.52s CPU      0.87s WALL (       1 calls)
                                        0.87s GPU  (       1 calls)
     potinit      :      0.21s CPU      0.27s WALL (       1 calls)
     hinit0       :      0.11s CPU      0.12s WALL (       1 calls)

     Called by electrons:
     c_bands      :      1.28s CPU      1.31s WALL (      13 calls)
     sum_band     :      0.27s CPU      0.28s WALL (      13 calls)
     v_of_rho     :      0.17s CPU      0.25s WALL (      13 calls)
     mix_rho      :      0.27s CPU      0.29s WALL (      13 calls)

     Called by c_bands:
     init_us_2    :      0.04s CPU      0.04s WALL (      27 calls)
     init_us_2:gp :      0.04s CPU      0.04s WALL (      27 calls)
     regterg      :      1.16s CPU      1.18s WALL (      13 calls)

     Called by *egterg:
     rdiaghg      :      0.43s CPU      0.52s WALL (     104 calls)
                                        0.50s GPU  (     104 calls)
     h_psi        :      1.04s CPU      1.31s WALL (     106 calls)
                                        1.31s GPU  (     106 calls)
     g_psi        :      0.00s CPU      0.01s WALL (      92 calls)
                                        0.00s GPU  (      92 calls)

     Called by h_psi:
     h_psi:calbec :      0.43s CPU      0.73s WALL (     106 calls)
                                        0.72s GPU  (     106 calls)
     vloc_psi     :      0.48s CPU      0.49s WALL (     106 calls)
                                        0.48s GPU  (     106 calls)
     add_vuspsi   :      0.05s CPU      0.08s WALL (     106 calls)
                                        0.08s GPU  (     106 calls)

     General routines
     calbec       :      0.43s CPU      0.69s WALL (     111 calls)
     fft          :      0.18s CPU      0.20s WALL (     111 calls)
                                        0.03s GPU  (      69 calls)
     ffts         :      0.05s CPU      0.05s WALL (      13 calls)
     fftw         :      0.04s CPU      0.54s WALL (    1282 calls)
                                        0.44s GPU  (    1282 calls)
 
     Parallel routines
 
     PWSCF        :      3.20s CPU      3.84s WALL

 
   This run was terminated on:  22:18:25   8Jul2023            

=------------------------------------------------------------------------------=
   JOB DONE.
=------------------------------------------------------------------------------=
