
     Program PWSCF v.7.0 starts on  8Jul2023 at 22:23:52 

     This program is part of the open-source Quantum ESPRESSO suite
     for quantum simulation of materials; please cite
         "P. Giannozzi et al., J. Phys.:Condens. Matter 21 395502 (2009);
         "P. Giannozzi et al., J. Phys.:Condens. Matter 29 465901 (2017);
         "P. Giannozzi et al., J. Chem. Phys. 152 154105 (2020);
          URL http://www.quantum-espresso.org", 
     in publications or presentations arising from this work. More details at
     http://www.quantum-espresso.org/quote

     Parallel version (MPI & OpenMP), running on       1 processor cores
     Number of MPI processes:                 1
     Threads/MPI process:                     1

     MPI processes distributed on     1 nodes
     109173 MiB available memory on the printing compute node when the environment starts
 
     Reading input from pw-si-76.in
Warning: card &CELL ignored
Warning: card / ignored

     Current dimensions of program PWSCF are:
     Max number of different atomic species (ntypx) = 10
     Max number of k-points (npk) =  40000
     Max angular momentum in pseudopotentials (lmaxx) =  4

     IMPORTANT: XC functional enforced from input :
     Exchange-correlation= PBE
                           (   1   4   3   4   0   0   0)
     Any further DFT definition will be discarded
     Please, verify this is what you really want


     gamma-point specific algorithms are used

     Subspace diagonalization in iterative solution of the eigenvalue problem:
     a serial algorithm will be used

 
     G-vector sticks info
     --------------------
     sticks:   dense  smooth     PW     G-vecs:    dense   smooth      PW
     Sum        4039    4039   1019               194447   194447   24343
 
     Using Slab Decomposition
 


     bravais-lattice index     =            0
     lattice parameter (alat)  =      21.0492  a.u.
     unit-cell volume          =    8762.4425 (a.u.)^3
     number of atoms/cell      =           64
     number of atomic types    =            1
     number of electrons       =       256.00
     number of Kohn-Sham states=          128
     kinetic-energy cutoff     =      30.0000  Ry
     charge density cutoff     =     120.0000  Ry
     scf convergence threshold =      1.0E-06
     mixing beta               =       0.5000
     number of iterations used =            8  plain     mixing
     Exchange-correlation= PBE
                           (   1   4   3   4   0   0   0)

     GPU acceleration is ACTIVE.


     celldm(1)=  21.049173  celldm(2)=   0.000000  celldm(3)=   0.000000
     celldm(4)=   0.000000  celldm(5)=   0.000000  celldm(6)=   0.000000

     crystal axes: (cart. coord. in units of alat)
               a(1) = (   1.000000   0.000000   0.000000 )  
               a(2) = (   0.000000   0.955358   0.000000 )  
               a(3) = (   0.000000   0.000000   0.983453 )  

     reciprocal axes: (cart. coord. in units 2 pi/alat)
               b(1) = (  1.000000  0.000000  0.000000 )  
               b(2) = (  0.000000  1.046728  0.000000 )  
               b(3) = (  0.000000  0.000000  1.016825 )  


     PseudoPot. # 1 for Si read from file:
     ./Si_ONCV_PBE-1.0.upf
     MD5 check sum: 2de5a83d12544a9ea852f39b88f19b1f
     Pseudo is Norm-conserving, Zval =  4.0
     Generated using ONCVPSP code by D. R. Hamann
     Using radial grid of  602 points,  4 beta functions with: 
                l(1) =   0
                l(2) =   0
                l(3) =   1
                l(4) =   1

     atomic species   valence    mass     pseudopotential
        Si             4.00    28.08500     Si( 1.00)

     No symmetry found



   Cartesian axes

     site n.     atom                  positions (alat units)
         1           Si  tau(   1) = (   0.3812234   0.3630644   0.1195636  )
         2           Si  tau(   2) = (  -0.0089649   0.2416469   0.2440536  )
         3           Si  tau(   3) = (   0.3761374   0.1299716   0.3838161  )
         4           Si  tau(   4) = (   0.0010142  -0.0053886   0.0041504  )
         5           Si  tau(   5) = (   0.1188622   0.3575296   0.3827705  )
         6           Si  tau(   6) = (   0.2538105   0.2511164   0.0038469  )
         7           Si  tau(   7) = (   0.1304392   0.1281593   0.1260204  )
         8           Si  tau(   8) = (   0.2419131   0.0086737   0.2471001  )
         9           Si  tau(   9) = (   0.3841328   0.3659494   0.6246267  )
        10           Si  tau(  10) = (   0.0002097   0.2517002   0.7449321  )
        11           Si  tau(  11) = (   0.3824048   0.1214597   0.8748256  )
        12           Si  tau(  12) = (  -0.0065294  -0.0008145   0.4967999  )
        13           Si  tau(  13) = (   0.1226436   0.3630305   0.8709290  )
        14           Si  tau(  14) = (   0.2509464   0.2513890   0.5038014  )
        15           Si  tau(  15) = (   0.1210018   0.1182652   0.6176323  )
        16           Si  tau(  16) = (   0.2512863  -0.0043305   0.7485795  )
        17           Si  tau(  17) = (   0.3689739   0.8573944   0.1311541  )
        18           Si  tau(  18) = (  -0.0049178   0.7228564   0.2453677  )
        19           Si  tau(  19) = (   0.3697004   0.6110885   0.3718009  )
        20           Si  tau(  20) = (   0.0065825   0.4873632  -0.0024102  )
        21           Si  tau(  21) = (   0.1293428   0.8550117   0.3663658  )
        22           Si  tau(  22) = (   0.2488012   0.7278192  -0.0032014  )
        23           Si  tau(  23) = (   0.1326476   0.6049703   0.1180120  )
        24           Si  tau(  24) = (   0.2520484   0.4933747   0.2515265  )
        25           Si  tau(  25) = (   0.3659478   0.8519409   0.6252909  )
        26           Si  tau(  26) = (   0.0010114   0.7352187   0.7467976  )
        27           Si  tau(  27) = (   0.3806573   0.6124458   0.8774547  )
        28           Si  tau(  28) = (   0.0063793   0.4790959   0.5087950  )
        29           Si  tau(  29) = (   0.1206741   0.8489690   0.8779167  )
        30           Si  tau(  30) = (   0.2477955   0.7331134   0.4991501  )
        31           Si  tau(  31) = (   0.1328746   0.6006050   0.6221995  )
        32           Si  tau(  32) = (   0.2452307   0.4823703   0.7552314  )
        33           Si  tau(  33) = (   0.8738818   0.3706960   0.1178774  )
        34           Si  tau(  34) = (   0.4979567   0.2484308   0.2494301  )
        35           Si  tau(  35) = (   0.8719925   0.1205317   0.3777955  )
        36           Si  tau(  36) = (   0.4910949  -0.0039190   0.0018691  )
        37           Si  tau(  37) = (   0.6275601   0.3615066   0.3782416  )
        38           Si  tau(  38) = (   0.7514303   0.2470330  -0.0064959  )
        39           Si  tau(  39) = (   0.6278259   0.1302116   0.1320894  )
        40           Si  tau(  40) = (   0.7478460  -0.0061981   0.2522347  )
        41           Si  tau(  41) = (   0.8722929   0.3600832   0.6281962  )
        42           Si  tau(  42) = (   0.5014421   0.2478619   0.7532811  )
        43           Si  tau(  43) = (   0.8729541   0.1155555   0.8711889  )
        44           Si  tau(  44) = (   0.5055678   0.0011032   0.5041863  )
        45           Si  tau(  45) = (   0.6175052   0.3605954   0.8769042  )
        46           Si  tau(  46) = (   0.7475758   0.2482176   0.5069980  )
        47           Si  tau(  47) = (   0.6323456   0.1225298   0.6319430  )
        48           Si  tau(  48) = (   0.7491152  -0.0069967   0.7519700  )
        49           Si  tau(  49) = (   0.8832020   0.8449362   0.1289994  )
        50           Si  tau(  50) = (   0.4922542   0.7331317   0.2592834  )
        51           Si  tau(  51) = (   0.8788655   0.6022387   0.3815349  )
        52           Si  tau(  52) = (   0.4983458   0.4860847  -0.0048092  )
        53           Si  tau(  53) = (   0.6162626   0.8482972   0.3822286  )
        54           Si  tau(  54) = (   0.7474212   0.7309475  -0.0071525  )
        55           Si  tau(  55) = (   0.6235530   0.6148079   0.1282137  )
        56           Si  tau(  56) = (   0.7509215   0.4915105   0.2416149  )
        57           Si  tau(  57) = (   0.8823185   0.8461441   0.6324143  )
        58           Si  tau(  58) = (   0.5036371   0.7251464   0.7464750  )
        59           Si  tau(  59) = (   0.8663491   0.6154547   0.8780770  )
        60           Si  tau(  60) = (   0.5052817   0.4912818   0.4991218  )
        61           Si  tau(  61) = (   0.6327875   0.8552908   0.8774012  )
        62           Si  tau(  62) = (   0.7542867   0.7257805   0.5051154  )
        63           Si  tau(  63) = (   0.6316798   0.6140125   0.6218500  )
        64           Si  tau(  64) = (   0.7552105   0.4840389   0.7542913  )

     number of k points=     1
                       cart. coord. in units 2pi/alat
        k(    1) = (   0.0000000   0.0000000   0.0000000), wk =   2.0000000

     Dense  grid:    97224 G-vectors     FFT dimensions: (  75,  72,  75)

     Estimated max dynamical RAM per process >     284.18 MB

     Initial potential from superposition of free atoms

     starting charge     253.0416, renormalised to     256.0000
     Starting wfcs are random

     total cpu time spent up to now is        1.4 secs

     Self-consistent Calculation

     iteration #  1     ecut=    30.00 Ry     beta= 0.50
     Davidson diagonalization with overlap
     ethr =  1.00E-02,  avg # of iterations = 13.0

     Threshold (ethr) on eigenvalues was too large:
     Diagonalizing with lowered threshold

     Davidson diagonalization with overlap
     ethr =  6.30E-04,  avg # of iterations = 17.0

     total cpu time spent up to now is        1.9 secs

     total energy              =    -503.41956751 Ry
     estimated scf accuracy    <       1.88601546 Ry

     iteration #  2     ecut=    30.00 Ry     beta= 0.50
     Davidson diagonalization with overlap
     ethr =  7.37E-04,  avg # of iterations =  1.0

     total cpu time spent up to now is        2.0 secs

     total energy              =    -503.42526511 Ry
     estimated scf accuracy    <       0.33819186 Ry

     iteration #  3     ecut=    30.00 Ry     beta= 0.50
     Davidson diagonalization with overlap
     ethr =  1.32E-04,  avg # of iterations =  2.0

     total cpu time spent up to now is        2.1 secs

     total energy              =    -503.45188457 Ry
     estimated scf accuracy    <       0.00848118 Ry

     iteration #  4     ecut=    30.00 Ry     beta= 0.50
     Davidson diagonalization with overlap
     c_bands:  1 eigenvalues not converged
     ethr =  3.31E-06,  avg # of iterations = 20.0

     total cpu time spent up to now is        2.4 secs

     total energy              =    -503.46393873 Ry
     estimated scf accuracy    <       0.01318679 Ry

     iteration #  5     ecut=    30.00 Ry     beta= 0.50
     Davidson diagonalization with overlap
     ethr =  3.31E-06,  avg # of iterations = 14.0

     total cpu time spent up to now is        2.6 secs

     total energy              =    -503.46424429 Ry
     estimated scf accuracy    <       0.00355926 Ry

     iteration #  6     ecut=    30.00 Ry     beta= 0.50
     Davidson diagonalization with overlap
     ethr =  1.39E-06,  avg # of iterations =  9.0

     total cpu time spent up to now is        2.8 secs

     total energy              =    -503.46440215 Ry
     estimated scf accuracy    <       0.00160950 Ry

     iteration #  7     ecut=    30.00 Ry     beta= 0.50
     Davidson diagonalization with overlap
     ethr =  6.29E-07,  avg # of iterations = 20.0

     total cpu time spent up to now is        3.0 secs

     total energy              =    -503.46462696 Ry
     estimated scf accuracy    <       0.00172075 Ry

     iteration #  8     ecut=    30.00 Ry     beta= 0.50
     Davidson diagonalization with overlap
     ethr =  6.29E-07,  avg # of iterations = 18.0

     total cpu time spent up to now is        3.2 secs

     total energy              =    -503.46478884 Ry
     estimated scf accuracy    <       0.00011127 Ry

     iteration #  9     ecut=    30.00 Ry     beta= 0.50
     Davidson diagonalization with overlap
     ethr =  4.35E-08,  avg # of iterations = 11.0

     total cpu time spent up to now is        3.4 secs

     total energy              =    -503.46480053 Ry
     estimated scf accuracy    <       0.00005031 Ry

     iteration # 10     ecut=    30.00 Ry     beta= 0.50
     Davidson diagonalization with overlap
     ethr =  1.97E-08,  avg # of iterations = 18.0

     total cpu time spent up to now is        3.7 secs

     total energy              =    -503.46480851 Ry
     estimated scf accuracy    <       0.00000419 Ry

     iteration # 11     ecut=    30.00 Ry     beta= 0.50
     Davidson diagonalization with overlap
     ethr =  1.64E-09,  avg # of iterations = 19.0

     total cpu time spent up to now is        3.9 secs

     total energy              =    -503.46480944 Ry
     estimated scf accuracy    <       0.00000426 Ry

     iteration # 12     ecut=    30.00 Ry     beta= 0.50
     Davidson diagonalization with overlap
     ethr =  1.64E-09,  avg # of iterations =  8.0

     total cpu time spent up to now is        4.1 secs

     total energy              =    -503.46480940 Ry
     estimated scf accuracy    <       0.00000169 Ry

     iteration # 13     ecut=    30.00 Ry     beta= 0.50
     Davidson diagonalization with overlap
     ethr =  6.62E-10,  avg # of iterations = 19.0

     total cpu time spent up to now is        4.3 secs

     End of self-consistent calculation

          k = 0.0000 0.0000 0.0000 ( 12172 PWs)   bands (ev):

    -5.8687  -4.9343  -4.8952  -4.8418  -4.8024  -4.6132  -4.5803  -4.1615
    -4.0171  -3.9573  -3.8994  -3.8707  -3.7770  -3.7557  -3.7431  -3.7079
    -3.6411  -3.6075  -3.5096  -3.4473  -3.4261  -3.3000  -3.2930  -2.0746
    -2.0119  -1.8838  -1.7423  -1.6633  -1.6404  -1.6281  -1.6167  -1.5600
    -1.5336  -1.5006  -1.4774  -1.4144  -1.4025  -1.3656  -1.3202  -1.2867
    -1.2548  -0.8773  -0.8548  -0.7716  -0.5941   0.4204   0.4452   0.4972
     0.5264   0.5497   0.6159   0.6581   0.7150   0.7260   0.7843   0.8295
     0.8844   1.9252   1.9821   2.0249   2.0435   2.0847   2.1631   2.2036
     2.2291   2.2564   2.2767   2.3208   2.3304   2.3548   2.3729   2.3910
     2.4094   2.4520   2.4800   2.5112   2.5230   2.5473   2.5768   2.6199
     2.6490   2.6598   2.6945   2.7126   2.7891   2.8358   2.8839   3.0203
     3.1574   3.1854   3.3615   3.4674   3.5228   3.9533   3.9773   4.0117
     4.1122   4.1696   4.2314   4.2579   4.2961   4.3222   4.3367   4.3772
     4.3985   4.4308   4.4922   4.5418   4.7266   4.7641   4.7917   4.8612
     4.8976   4.9166   4.9398   4.9875   4.9945   5.0220   5.0352   5.1350
     5.1706   5.1895   5.2304   5.2793   5.3071   6.0217   6.1800   6.3773

     highest occupied level (ev):     6.3773

!    total energy              =    -503.46480952 Ry
     estimated scf accuracy    <       0.00000046 Ry

     The total energy is the sum of the following terms:
     one-electron contribution =     145.96230721 Ry
     hartree contribution      =      37.58784712 Ry
     xc contribution           =    -153.93275504 Ry
     ewald contribution        =    -533.08220882 Ry

     convergence has been achieved in  13 iterations

     Forces acting on atoms (cartesian axes, Ry/au):

     atom    1 type  1   force =    -0.02006195    0.04952153    0.04363419
     atom    2 type  1   force =     0.01468356    0.00739820    0.02386408
     atom    3 type  1   force =     0.00019821   -0.01016352   -0.02330021
     atom    4 type  1   force =    -0.02420199    0.11001547    0.05988357
     atom    5 type  1   force =     0.01797359    0.02563627   -0.05546604
     atom    6 type  1   force =    -0.00723202   -0.04092061    0.00230420
     atom    7 type  1   force =    -0.04190048    0.01424894   -0.02165817
     atom    8 type  1   force =     0.05691750    0.06310610    0.02421832
     atom    9 type  1   force =    -0.02976737    0.02572185    0.01204562
     atom   10 type  1   force =     0.00070696   -0.08196783    0.00726785
     atom   11 type  1   force =    -0.05768740    0.03084954   -0.05294747
     atom   12 type  1   force =     0.03007522    0.02406885   -0.01400381
     atom   13 type  1   force =     0.01164318   -0.00603702   -0.02486713
     atom   14 type  1   force =    -0.00116737   -0.03234315    0.00794629
     atom   15 type  1   force =     0.02396804    0.02967392    0.02651886
     atom   16 type  1   force =    -0.04973307    0.08713550    0.03509555
     atom   17 type  1   force =    -0.00423316   -0.08241866   -0.00272822
     atom   18 type  1   force =     0.05536709   -0.01803425    0.03157818
     atom   19 type  1   force =     0.01921009   -0.00425869    0.05000398
     atom   20 type  1   force =    -0.03998230    0.02134019    0.03630985
     atom   21 type  1   force =    -0.06422049   -0.08184646    0.04433625
     atom   22 type  1   force =     0.01372708    0.02554423    0.06382056
     atom   23 type  1   force =    -0.02422778    0.00777356    0.03325052
     atom   24 type  1   force =    -0.01922552   -0.06903967   -0.01287024
     atom   25 type  1   force =     0.07542380   -0.07142720   -0.02762651
     atom   26 type  1   force =     0.02727207   -0.07469382    0.02575090
     atom   27 type  1   force =    -0.02653959   -0.01205666   -0.07571337
     atom   28 type  1   force =    -0.03801306    0.00391294   -0.01774255
     atom   29 type  1   force =     0.06064989   -0.05816898   -0.08977724
     atom   30 type  1   force =    -0.00449716   -0.01197578   -0.02030712
     atom   31 type  1   force =    -0.01818221    0.04087563    0.02100161
     atom   32 type  1   force =     0.05947110    0.01436613   -0.02358463
     atom   33 type  1   force =     0.00761521   -0.00614133    0.00667830
     atom   34 type  1   force =     0.01080980   -0.01772622    0.02458952
     atom   35 type  1   force =    -0.02353192    0.01939181   -0.00975756
     atom   36 type  1   force =     0.05932669    0.05255439    0.05804159
     atom   37 type  1   force =    -0.00608721    0.03992336   -0.02811821
     atom   38 type  1   force =    -0.00074572   -0.02652235    0.07045158
     atom   39 type  1   force =     0.00175368   -0.02700358   -0.02502920
     atom   40 type  1   force =    -0.00465072    0.04707024    0.00458083
     atom   41 type  1   force =     0.00977448    0.04701580   -0.00296801
     atom   42 type  1   force =    -0.00309317   -0.04243986   -0.03285858
     atom   43 type  1   force =     0.02484793    0.02994751   -0.03011078
     atom   44 type  1   force =    -0.04949760    0.07163254    0.03689845
     atom   45 type  1   force =     0.04983419    0.03549431   -0.06071070
     atom   46 type  1   force =     0.01113986   -0.03698837   -0.02791787
     atom   47 type  1   force =    -0.02298867    0.00689772   -0.00501094
     atom   48 type  1   force =     0.03691693    0.07236359   -0.04273100
     atom   49 type  1   force =    -0.06882051   -0.03394375   -0.00798063
     atom   50 type  1   force =     0.01046242    0.00073314   -0.04149102
     atom   51 type  1   force =     0.00009692    0.00090585   -0.01162251
     atom   52 type  1   force =     0.01961674    0.01275283    0.08967112
     atom   53 type  1   force =     0.06792027   -0.06221101   -0.02377472
     atom   54 type  1   force =    -0.00973949    0.01791213    0.13648004
     atom   55 type  1   force =    -0.01828640    0.00182981   -0.01292461
     atom   56 type  1   force =    -0.00135190   -0.02173972    0.04658103
     atom   57 type  1   force =    -0.04526946   -0.01602508   -0.05313767
     atom   58 type  1   force =    -0.00730056    0.04190812    0.00055985
     atom   59 type  1   force =     0.09060938   -0.05846579   -0.08272770
     atom   60 type  1   force =    -0.01075196   -0.00317629   -0.01214465
     atom   61 type  1   force =    -0.08739512   -0.05815728   -0.03856799
     atom   62 type  1   force =     0.01020323    0.03504986   -0.03091523
     atom   63 type  1   force =    -0.00648521   -0.05261216    0.03239756
     atom   64 type  1   force =    -0.04134659    0.00393326   -0.01266793

     Total force =     0.561710     Total SCF correction =     0.001035


     Computing stress (Cartesian axis) and pressure

          total   stress  (Ry/bohr**3)                   (kbar)     P=       25.15
   0.00009008  -0.00010347  -0.00008395           13.25      -15.22      -12.35
  -0.00010347   0.00024961  -0.00003779          -15.22       36.72       -5.56
  -0.00008395  -0.00003779   0.00017316          -12.35       -5.56       25.47

 
     init_run     :      0.91s CPU      1.38s WALL (       1 calls)
     electrons    :      2.74s CPU      2.85s WALL (       1 calls)
     forces       :      0.06s CPU      0.06s WALL (       1 calls)
     stress       :      0.23s CPU      0.23s WALL (       1 calls)

     Called by init_run:
     wfcinit      :      0.54s CPU      0.89s WALL (       1 calls)
                                        0.89s GPU  (       1 calls)
     potinit      :      0.22s CPU      0.27s WALL (       1 calls)
     hinit0       :      0.12s CPU      0.12s WALL (       1 calls)

     Called by electrons:
     c_bands      :      1.90s CPU      1.94s WALL (      14 calls)
     sum_band     :      0.32s CPU      0.34s WALL (      14 calls)
     v_of_rho     :      0.19s CPU      0.27s WALL (      14 calls)
     mix_rho      :      0.32s CPU      0.34s WALL (      14 calls)

     Called by c_bands:
     init_us_2    :      0.04s CPU      0.05s WALL (      29 calls)
     init_us_2:gp :      0.04s CPU      0.04s WALL (      29 calls)
     regterg      :      1.77s CPU      1.79s WALL (      14 calls)

     Called by *egterg:
     rdiaghg      :      0.75s CPU      0.83s WALL (     202 calls)
                                        0.80s GPU  (     202 calls)
     h_psi        :      1.26s CPU      1.54s WALL (     204 calls)
                                        1.53s GPU  (     204 calls)
     g_psi        :      0.00s CPU      0.01s WALL (     189 calls)
                                        0.01s GPU  (     189 calls)

     Called by h_psi:
     h_psi:calbec :      0.45s CPU      0.76s WALL (     204 calls)
                                        0.76s GPU  (     204 calls)
     vloc_psi     :      0.62s CPU      0.64s WALL (     204 calls)
                                        0.63s GPU  (     204 calls)
     add_vuspsi   :      0.08s CPU      0.13s WALL (     204 calls)
                                        0.13s GPU  (     204 calls)

     General routines
     calbec       :      0.45s CPU      0.71s WALL (     209 calls)
     fft          :      0.21s CPU      0.23s WALL (     119 calls)
                                        0.03s GPU  (      74 calls)
     ffts         :      0.05s CPU      0.05s WALL (      14 calls)
     fftw         :      0.04s CPU      0.71s WALL (    1554 calls)
                                        0.60s GPU  (    1554 calls)
 
     Parallel routines
 
     PWSCF        :      3.97s CPU      4.58s WALL

 
   This run was terminated on:  22:23:57   8Jul2023            

=------------------------------------------------------------------------------=
   JOB DONE.
=------------------------------------------------------------------------------=
