
     Program PWSCF v.7.0 starts on  8Jul2023 at 22:15:39 

     This program is part of the open-source Quantum ESPRESSO suite
     for quantum simulation of materials; please cite
         "P. Giannozzi et al., J. Phys.:Condens. Matter 21 395502 (2009);
         "P. Giannozzi et al., J. Phys.:Condens. Matter 29 465901 (2017);
         "P. Giannozzi et al., J. Chem. Phys. 152 154105 (2020);
          URL http://www.quantum-espresso.org", 
     in publications or presentations arising from this work. More details at
     http://www.quantum-espresso.org/quote

     Parallel version (MPI & OpenMP), running on       1 processor cores
     Number of MPI processes:                 1
     Threads/MPI process:                     1

     MPI processes distributed on     1 nodes
     109183 MiB available memory on the printing compute node when the environment starts
 
     Reading input from pw-si-23.in
Warning: card &CELL ignored
Warning: card / ignored

     Current dimensions of program PWSCF are:
     Max number of different atomic species (ntypx) = 10
     Max number of k-points (npk) =  40000
     Max angular momentum in pseudopotentials (lmaxx) =  4

     IMPORTANT: XC functional enforced from input :
     Exchange-correlation= PBE
                           (   1   4   3   4   0   0   0)
     Any further DFT definition will be discarded
     Please, verify this is what you really want


     gamma-point specific algorithms are used

     Subspace diagonalization in iterative solution of the eigenvalue problem:
     a serial algorithm will be used

 
     G-vector sticks info
     --------------------
     sticks:   dense  smooth     PW     G-vecs:    dense   smooth      PW
     Sum        4047    4047   1011               191713   191713   23945
 
     Using Slab Decomposition
 


     bravais-lattice index     =            0
     lattice parameter (alat)  =      20.7632  a.u.
     unit-cell volume          =    8632.4302 (a.u.)^3
     number of atoms/cell      =           64
     number of atomic types    =            1
     number of electrons       =       256.00
     number of Kohn-Sham states=          128
     kinetic-energy cutoff     =      30.0000  Ry
     charge density cutoff     =     120.0000  Ry
     scf convergence threshold =      1.0E-06
     mixing beta               =       0.5000
     number of iterations used =            8  plain     mixing
     Exchange-correlation= PBE
                           (   1   4   3   4   0   0   0)

     GPU acceleration is ACTIVE.


     celldm(1)=  20.763170  celldm(2)=   0.000000  celldm(3)=   0.000000
     celldm(4)=   0.000000  celldm(5)=   0.000000  celldm(6)=   0.000000

     crystal axes: (cart. coord. in units of alat)
               a(1) = (   1.000000   0.000000   0.000000 )  
               a(2) = (   0.000000   0.984628   0.000000 )  
               a(3) = (   0.000000   0.000000   0.979444 )  

     reciprocal axes: (cart. coord. in units 2 pi/alat)
               b(1) = (  1.000000  0.000000  0.000000 )  
               b(2) = (  0.000000  1.015612  0.000000 )  
               b(3) = (  0.000000  0.000000  1.020987 )  


     PseudoPot. # 1 for Si read from file:
     ./Si_ONCV_PBE-1.0.upf
     MD5 check sum: 2de5a83d12544a9ea852f39b88f19b1f
     Pseudo is Norm-conserving, Zval =  4.0
     Generated using ONCVPSP code by D. R. Hamann
     Using radial grid of  602 points,  4 beta functions with: 
                l(1) =   0
                l(2) =   0
                l(3) =   1
                l(4) =   1

     atomic species   valence    mass     pseudopotential
        Si             4.00    28.08500     Si( 1.00)

     No symmetry found



   Cartesian axes

     site n.     atom                  positions (alat units)
         1           Si  tau(   1) = (   0.3707094   0.3681926   0.1218147  )
         2           Si  tau(   2) = (  -0.0002542   0.2473697   0.2524656  )
         3           Si  tau(   3) = (   0.3732249   0.1305159   0.3730326  )
         4           Si  tau(   4) = (   0.0021372   0.0005829  -0.0039253  )
         5           Si  tau(   5) = (   0.1170012   0.3787884   0.3737542  )
         6           Si  tau(   6) = (   0.2536289   0.2485269  -0.0013766  )
         7           Si  tau(   7) = (   0.1264581   0.1254184   0.1306265  )
         8           Si  tau(   8) = (   0.2501794  -0.0069177   0.2496914  )
         9           Si  tau(   9) = (   0.3778583   0.3719273   0.6253186  )
        10           Si  tau(  10) = (  -0.0079368   0.2554308   0.7411277  )
        11           Si  tau(  11) = (   0.3704186   0.1315300   0.8707515  )
        12           Si  tau(  12) = (  -0.0038926  -0.0062559   0.4927169  )
        13           Si  tau(  13) = (   0.1177601   0.3640981   0.8725468  )
        14           Si  tau(  14) = (   0.2453869   0.2500397   0.4886480  )
        15           Si  tau(  15) = (   0.1206260   0.1266787   0.6211321  )
        16           Si  tau(  16) = (   0.2494549  -0.0062094   0.7428773  )
        17           Si  tau(  17) = (   0.3686031   0.8626916   0.1259170  )
        18           Si  tau(  18) = (  -0.0041754   0.7365265   0.2410322  )
        19           Si  tau(  19) = (   0.3676582   0.6149637   0.3787753  )
        20           Si  tau(  20) = (   0.0041738   0.5036209   0.0087500  )
        21           Si  tau(  21) = (   0.1321206   0.8665910   0.3650234  )
        22           Si  tau(  22) = (   0.2473399   0.7415696   0.0036538  )
        23           Si  tau(  23) = (   0.1150033   0.6094727   0.1171583  )
        24           Si  tau(  24) = (   0.2412736   0.4949570   0.2450014  )
        25           Si  tau(  25) = (   0.3629396   0.8744330   0.6162040  )
        26           Si  tau(  26) = (   0.0023789   0.7383483   0.7418677  )
        27           Si  tau(  27) = (   0.3789837   0.6104611   0.8757871  )
        28           Si  tau(  28) = (   0.0033541   0.5024239   0.4945478  )
        29           Si  tau(  29) = (   0.1311719   0.8731504   0.8612043  )
        30           Si  tau(  30) = (   0.2454703   0.7372273   0.4922668  )
        31           Si  tau(  31) = (   0.1290363   0.6100969   0.6237093  )
        32           Si  tau(  32) = (   0.2418768   0.4912530   0.7477605  )
        33           Si  tau(  33) = (   0.8722056   0.3639333   0.1162119  )
        34           Si  tau(  34) = (   0.4958925   0.2498587   0.2520683  )
        35           Si  tau(  35) = (   0.8688027   0.1173862   0.3681574  )
        36           Si  tau(  36) = (   0.4891165   0.0019384  -0.0075825  )
        37           Si  tau(  37) = (   0.6139601   0.3725066   0.3681557  )
        38           Si  tau(  38) = (   0.7417865   0.2563649  -0.0006254  )
        39           Si  tau(  39) = (   0.6202803   0.1186192   0.1258121  )
        40           Si  tau(  40) = (   0.7364496   0.0050213   0.2452435  )
        41           Si  tau(  41) = (   0.8621735   0.3789173   0.6281281  )
        42           Si  tau(  42) = (   0.4864775   0.2509504   0.7411517  )
        43           Si  tau(  43) = (   0.8699083   0.1232678   0.8694210  )
        44           Si  tau(  44) = (   0.4924080  -0.0020767   0.5045503  )
        45           Si  tau(  45) = (   0.6112123   0.3665633   0.8737700  )
        46           Si  tau(  46) = (   0.7487683   0.2547662   0.4931224  )
        47           Si  tau(  47) = (   0.6249301   0.1166381   0.6156253  )
        48           Si  tau(  48) = (   0.7359946  -0.0055631   0.7382243  )
        49           Si  tau(  49) = (   0.8566048   0.8603920   0.1157419  )
        50           Si  tau(  50) = (   0.4910279   0.7475164   0.2427250  )
        51           Si  tau(  51) = (   0.8578484   0.6220306   0.3711981  )
        52           Si  tau(  52) = (   0.4955281   0.4932112  -0.0016128  )
        53           Si  tau(  53) = (   0.6181806   0.8668380   0.3656086  )
        54           Si  tau(  54) = (   0.7332905   0.7494421  -0.0009516  )
        55           Si  tau(  55) = (   0.6122972   0.6160829   0.1267500  )
        56           Si  tau(  56) = (   0.7469404   0.5024786   0.2505463  )
        57           Si  tau(  57) = (   0.8725775   0.8748287   0.6143522  )
        58           Si  tau(  58) = (   0.4978861   0.7407084   0.7507715  )
        59           Si  tau(  59) = (   0.8692296   0.6182680   0.8758654  )
        60           Si  tau(  60) = (   0.4964724   0.4863180   0.5025907  )
        61           Si  tau(  61) = (   0.6164546   0.8721015   0.8652782  )
        62           Si  tau(  62) = (   0.7422253   0.7488772   0.5005039  )
        63           Si  tau(  63) = (   0.6207021   0.6130922   0.6188070  )
        64           Si  tau(  64) = (   0.7474403   0.5001946   0.7422104  )

     number of k points=     1
                       cart. coord. in units 2pi/alat
        k(    1) = (   0.0000000   0.0000000   0.0000000), wk =   2.0000000

     Dense  grid:    95857 G-vectors     FFT dimensions: (  75,  72,  72)

     Estimated max dynamical RAM per process >     279.34 MB

     Initial potential from superposition of free atoms

     starting charge     253.0416, renormalised to     256.0000
     Starting wfcs are random

     total cpu time spent up to now is        1.4 secs

     Self-consistent Calculation

     iteration #  1     ecut=    30.00 Ry     beta= 0.50
     Davidson diagonalization with overlap
     ethr =  1.00E-02,  avg # of iterations = 12.0

     Threshold (ethr) on eigenvalues was too large:
     Diagonalizing with lowered threshold

     Davidson diagonalization with overlap
     ethr =  6.49E-04,  avg # of iterations = 11.0

     total cpu time spent up to now is        1.8 secs

     total energy              =    -503.40899139 Ry
     estimated scf accuracy    <       1.95488497 Ry

     iteration #  2     ecut=    30.00 Ry     beta= 0.50
     Davidson diagonalization with overlap
     ethr =  7.64E-04,  avg # of iterations =  1.0

     total cpu time spent up to now is        1.9 secs

     total energy              =    -503.41549440 Ry
     estimated scf accuracy    <       0.34436797 Ry

     iteration #  3     ecut=    30.00 Ry     beta= 0.50
     Davidson diagonalization with overlap
     ethr =  1.35E-04,  avg # of iterations =  2.0

     total cpu time spent up to now is        2.0 secs

     total energy              =    -503.44189698 Ry
     estimated scf accuracy    <       0.00860257 Ry

     iteration #  4     ecut=    30.00 Ry     beta= 0.50
     Davidson diagonalization with overlap
     ethr =  3.36E-06,  avg # of iterations = 15.0

     total cpu time spent up to now is        2.2 secs

     total energy              =    -503.45162806 Ry
     estimated scf accuracy    <       0.00790854 Ry

     iteration #  5     ecut=    30.00 Ry     beta= 0.50
     Davidson diagonalization with overlap
     ethr =  3.09E-06,  avg # of iterations =  3.0

     total cpu time spent up to now is        2.4 secs

     total energy              =    -503.45317572 Ry
     estimated scf accuracy    <       0.00153396 Ry

     iteration #  6     ecut=    30.00 Ry     beta= 0.50
     Davidson diagonalization with overlap
     ethr =  5.99E-07,  avg # of iterations =  8.0

     total cpu time spent up to now is        2.5 secs

     total energy              =    -503.45331919 Ry
     estimated scf accuracy    <       0.00031165 Ry

     iteration #  7     ecut=    30.00 Ry     beta= 0.50
     Davidson diagonalization with overlap
     ethr =  1.22E-07,  avg # of iterations =  6.0

     total cpu time spent up to now is        2.7 secs

     total energy              =    -503.45338705 Ry
     estimated scf accuracy    <       0.00007489 Ry

     iteration #  8     ecut=    30.00 Ry     beta= 0.50
     Davidson diagonalization with overlap
     ethr =  2.93E-08,  avg # of iterations =  4.0

     total cpu time spent up to now is        2.8 secs

     total energy              =    -503.45340084 Ry
     estimated scf accuracy    <       0.00001476 Ry

     iteration #  9     ecut=    30.00 Ry     beta= 0.50
     Davidson diagonalization with overlap
     ethr =  5.76E-09,  avg # of iterations =  6.0

     total cpu time spent up to now is        3.0 secs

     total energy              =    -503.45340235 Ry
     estimated scf accuracy    <       0.00001284 Ry

     iteration # 10     ecut=    30.00 Ry     beta= 0.50
     Davidson diagonalization with overlap
     ethr =  5.02E-09,  avg # of iterations =  3.0

     total cpu time spent up to now is        3.1 secs

     End of self-consistent calculation

          k = 0.0000 0.0000 0.0000 ( 11973 PWs)   bands (ev):

    -5.7883  -4.8470  -4.7785  -4.7432  -4.6866  -4.5962  -4.5454  -4.0409
    -3.9052  -3.8625  -3.8288  -3.7978  -3.7474  -3.7057  -3.6471  -3.6225
    -3.5431  -3.5152  -3.4428  -3.3682  -3.3240  -3.2685  -3.1418  -1.9027
    -1.8537  -1.6994  -1.6922  -1.6159  -1.5782  -1.5194  -1.4558  -1.4324
    -1.4042  -1.3762  -1.3497  -1.3357  -1.2771  -1.2227  -1.1760  -1.1616
    -1.1383  -0.8013  -0.7048  -0.6918  -0.5855   0.5212   0.6127   0.6419
     0.6991   0.7221   0.7606   0.8063   0.8412   0.8872   0.9120   0.9589
     1.0155   2.0951   2.1165   2.1998   2.2335   2.2365   2.2809   2.3063
     2.3238   2.3458   2.3685   2.4030   2.4391   2.4593   2.4795   2.5052
     2.5252   2.5590   2.5702   2.5925   2.6050   2.6118   2.6464   2.6580
     2.7097   2.8080   2.8136   2.8485   2.9045   2.9306   2.9822   3.2498
     3.3870   3.4062   3.4282   3.5349   3.5408   4.1426   4.1763   4.2413
     4.2897   4.3170   4.3526   4.3635   4.3998   4.4206   4.4795   4.5172
     4.5404   4.5879   4.6899   4.8119   4.8789   4.8942   4.9368   4.9778
     5.0128   5.0260   5.0474   5.1027   5.1117   5.1406   5.1876   5.2312
     5.2326   5.2872   5.3065   5.3566   5.5272   6.2265   6.3610   6.4883

     highest occupied level (ev):     6.4883

!    total energy              =    -503.45340390 Ry
     estimated scf accuracy    <       0.00000055 Ry

     The total energy is the sum of the following terms:
     one-electron contribution =     149.89335597 Ry
     hartree contribution      =      37.15477809 Ry
     xc contribution           =    -154.57486841 Ry
     ewald contribution        =    -535.92666956 Ry

     convergence has been achieved in  10 iterations

     Forces acting on atoms (cartesian axes, Ry/au):

     atom    1 type  1   force =     0.00830199    0.02682091    0.02773177
     atom    2 type  1   force =    -0.02602832   -0.00644756   -0.01451530
     atom    3 type  1   force =    -0.00532424   -0.04767403    0.00874649
     atom    4 type  1   force =    -0.03071273    0.01420576    0.07010836
     atom    5 type  1   force =     0.01753110   -0.02502774   -0.01585053
     atom    6 type  1   force =    -0.06681056    0.00431242    0.07781043
     atom    7 type  1   force =     0.00165009   -0.01348401   -0.02100866
     atom    8 type  1   force =     0.02954044    0.09153313   -0.01549116
     atom    9 type  1   force =    -0.09139860    0.00971685   -0.03495128
     atom   10 type  1   force =    -0.00798136   -0.03917503    0.01101335
     atom   11 type  1   force =     0.00061974   -0.04677897   -0.09693523
     atom   12 type  1   force =     0.04173852    0.05880098   -0.02826580
     atom   13 type  1   force =    -0.00186887    0.03929891   -0.03937730
     atom   14 type  1   force =    -0.00273385    0.01648468    0.04218878
     atom   15 type  1   force =    -0.00238064   -0.00854460   -0.01629900
     atom   16 type  1   force =     0.00079695    0.12353605   -0.00588769
     atom   17 type  1   force =     0.00526184    0.01111021   -0.03858785
     atom   18 type  1   force =    -0.02882317    0.02456243    0.01182109
     atom   19 type  1   force =     0.03145249   -0.00802480   -0.03885452
     atom   20 type  1   force =    -0.10776373   -0.12980006   -0.07094676
     atom   21 type  1   force =    -0.08043048   -0.06959427    0.03630764
     atom   22 type  1   force =    -0.01193414   -0.01927172    0.00866137
     atom   23 type  1   force =     0.10237742    0.11196413    0.09613226
     atom   24 type  1   force =     0.02121064   -0.00724601    0.00646654
     atom   25 type  1   force =     0.03083285   -0.11230557    0.00521782
     atom   26 type  1   force =    -0.02396320    0.02217245    0.00587256
     atom   27 type  1   force =    -0.08196320    0.06768188   -0.08712680
     atom   28 type  1   force =    -0.07915770   -0.00701506    0.01895977
     atom   29 type  1   force =    -0.04609301   -0.09045884    0.00693166
     atom   30 type  1   force =    -0.00838504    0.02442497    0.03264045
     atom   31 type  1   force =    -0.01988749    0.04809685   -0.02130922
     atom   32 type  1   force =     0.04870136   -0.02367067    0.02499378
     atom   33 type  1   force =     0.02259652    0.06117824    0.06081012
     atom   34 type  1   force =    -0.00460695   -0.02393660   -0.04535355
     atom   35 type  1   force =     0.01223929    0.03174563    0.01764730
     atom   36 type  1   force =     0.00749494    0.01302727    0.09367219
     atom   37 type  1   force =     0.04960838    0.01825490    0.02015880
     atom   38 type  1   force =     0.01107655   -0.08355992    0.03980941
     atom   39 type  1   force =    -0.03878422    0.05973503   -0.03910108
     atom   40 type  1   force =     0.05420645   -0.03167313    0.00899407
     atom   41 type  1   force =     0.06151346   -0.01206428   -0.06813643
     atom   42 type  1   force =     0.07896714   -0.05928522    0.02098462
     atom   43 type  1   force =    -0.01793605    0.01220988   -0.05742600
     atom   44 type  1   force =     0.02505179    0.03870267   -0.07367346
     atom   45 type  1   force =     0.02393633    0.02723094   -0.10894476
     atom   46 type  1   force =    -0.01492399   -0.03082188   -0.00099065
     atom   47 type  1   force =    -0.02609810    0.06906539    0.00127105
     atom   48 type  1   force =     0.07120445    0.04486101    0.02007683
     atom   49 type  1   force =     0.07487426    0.03535980    0.04097269
     atom   50 type  1   force =     0.00970461   -0.05108778    0.04778006
     atom   51 type  1   force =     0.07914244    0.02928875    0.03732123
     atom   52 type  1   force =     0.02149038   -0.03422169    0.10674502
     atom   53 type  1   force =    -0.02058225   -0.01182424    0.04202264
     atom   54 type  1   force =    -0.00043049   -0.06834597    0.02426710
     atom   55 type  1   force =     0.02501458    0.02149935   -0.00928021
     atom   56 type  1   force =    -0.02895662   -0.06620089   -0.04268059
     atom   57 type  1   force =    -0.01067546   -0.07983570    0.04610404
     atom   58 type  1   force =    -0.02743863   -0.00469877   -0.04785187
     atom   59 type  1   force =     0.00333630    0.03051986   -0.05272367
     atom   60 type  1   force =     0.00262321    0.03618537   -0.03380676
     atom   61 type  1   force =    -0.00884023   -0.03735818   -0.04273433
     atom   62 type  1   force =    -0.00807785   -0.01089402   -0.02428345
     atom   63 type  1   force =    -0.00405076    0.04360301    0.00877737
     atom   64 type  1   force =    -0.03905459   -0.00686251    0.06337529

     Total force =     0.638940     Total SCF correction =     0.001318


     Computing stress (Cartesian axis) and pressure

          total   stress  (Ry/bohr**3)                   (kbar)     P=       43.55
   0.00023840  -0.00006310   0.00002792           35.07       -9.28        4.11
  -0.00006310   0.00030957   0.00001342           -9.28       45.54        1.97
   0.00002792   0.00001342   0.00034025            4.11        1.97       50.05

 
     init_run     :      0.90s CPU      1.34s WALL (       1 calls)
     electrons    :      1.65s CPU      1.73s WALL (       1 calls)
     forces       :      0.06s CPU      0.06s WALL (       1 calls)
     stress       :      0.23s CPU      0.25s WALL (       1 calls)

     Called by init_run:
     wfcinit      :      0.55s CPU      0.87s WALL (       1 calls)
                                        0.87s GPU  (       1 calls)
     potinit      :      0.21s CPU      0.27s WALL (       1 calls)
     hinit0       :      0.11s CPU      0.12s WALL (       1 calls)

     Called by electrons:
     c_bands      :      1.05s CPU      1.07s WALL (      11 calls)
     sum_band     :      0.22s CPU      0.24s WALL (      11 calls)
     v_of_rho     :      0.16s CPU      0.23s WALL (      11 calls)
     mix_rho      :      0.21s CPU      0.22s WALL (      11 calls)

     Called by c_bands:
     init_us_2    :      0.03s CPU      0.04s WALL (      23 calls)
     init_us_2:gp :      0.03s CPU      0.03s WALL (      23 calls)
     regterg      :      0.94s CPU      0.96s WALL (      11 calls)

     Called by *egterg:
     rdiaghg      :      0.36s CPU      0.42s WALL (      81 calls)
                                        0.41s GPU  (      81 calls)
     h_psi        :      0.96s CPU      1.22s WALL (      83 calls)
                                        1.22s GPU  (      83 calls)
     g_psi        :      0.00s CPU      0.00s WALL (      71 calls)
                                        0.00s GPU  (      71 calls)

     Called by h_psi:
     h_psi:calbec :      0.44s CPU      0.71s WALL (      83 calls)
                                        0.71s GPU  (      83 calls)
     vloc_psi     :      0.42s CPU      0.43s WALL (      83 calls)
                                        0.43s GPU  (      83 calls)
     add_vuspsi   :      0.04s CPU      0.07s WALL (      83 calls)
                                        0.07s GPU  (      83 calls)

     General routines
     calbec       :      0.44s CPU      0.68s WALL (      88 calls)
     fft          :      0.15s CPU      0.17s WALL (      95 calls)
                                        0.03s GPU  (      59 calls)
     ffts         :      0.04s CPU      0.04s WALL (      11 calls)
     fftw         :      0.03s CPU      0.48s WALL (    1082 calls)
                                        0.39s GPU  (    1082 calls)
 
     Parallel routines
 
     PWSCF        :      2.87s CPU      3.44s WALL

 
   This run was terminated on:  22:15:42   8Jul2023            

=------------------------------------------------------------------------------=
   JOB DONE.
=------------------------------------------------------------------------------=
