LAMMPS data file via write_data, version 23 Jun 2022, timestep = 1000

64 atoms
1 atom types

0.014004804032037299 10.847395195967866 xlo xhi
0.014004804032037299 10.847395195967866 ylo yhi
0.014004804032037299 10.847395195967866 zlo zhi

Masses

1 28.0855

Atoms # atomic

28 1 0.7634073208409653 2.192344068620262 2.1757725706168918 0 0 0
29 1 4.938722355153028 0.04236687951722591 4.350090869528869 0 0 0
43 1 2.9094316013391484 3.5173221068499334 3.2120226068437145 0 0 0
61 1 4.128527597167341 0.14078916238218833 0.6524717883521841 0 1 0
48 1 4.934274574294699 5.208483142352034 2.8255815512633613 0 0 0
47 1 4.261119601633259 2.009854289735187 4.331026962926005 0 0 0
40 1 0.6981822807790183 0.03206036298696889 5.253202723613691 0 1 0
18 1 0.09163997368287788 0.16917146850975046 0.8468577683843546 0 0 1
11 1 1.9046704941995227 5.1964435214383125 4.336172702838206 0 0 0
58 1 3.282371492449534 4.313679864722056 0.8953900712074889 1 0 1
20 1 10.462292434508823 4.039692259968185 1.0289474561368146 -1 0 0
8 1 7.323063841664856 2.7375343717658622 2.011619341083764 0 0 0
10 1 10.042856510898162 1.7684663088853039 3.9081443955633803 -1 0 0
14 1 9.170758545236016 3.531229150752984 5.360635797649886 0 0 0
44 1 8.734713475412027 3.072062579564847 0.15696088869778974 0 0 0
62 1 7.59112499673675 4.6253133790547425 3.4433500021756314 0 0 0
4 1 6.231458428191534 1.4078704810461158 0.1292176548035403 0 1 0
27 1 6.707350155893234 0.026988615422810724 2.4645998710753743 0 1 0
19 1 6.034982738288369 3.8879484172854193 5.0456356746600814 0 0 0
2 1 3.3713380747788846 8.94636357208175 4.997305498477678 0 -1 0
6 1 2.944425575434319 10.638061471391879 2.6995254156783237 0 -1 0
45 1 0.5731463890736505 9.157648925370383 3.0368831961375227 1 -1 0
59 1 1.9434033487392268 9.39829039133287 0.8735862372104766 0 0 0
36 1 1.3945022879177886 7.5185106200361025 4.52502889962443 0 0 0
16 1 4.259917293964362 5.682039666389443 5.428233308414958 0 0 0
55 1 4.141904494196377 6.918342590643269 1.6917173895868216 0 0 1
32 1 1.4548990163895963 7.066129729369158 1.496883097071912 0 0 1
26 1 8.988004437754274 5.803701549641878 2.004453537688404 -1 0 0
53 1 7.933025561831239 9.043972514574065 0.20590862840208124 -1 0 0
17 1 6.555889682479971 6.8529218767465405 0.037740729483918094 0 0 0
12 1 9.775662943382327 7.431792178591053 0.017929069567115263 0 0 0
24 1 5.9562413941450645 8.426612984636169 1.9718895026164434 0 0 0
42 1 6.733636738787569 7.083652444108867 3.773555187429401 0 0 0
25 1 8.918954598998793 10.542284012843076 2.4189662596950634 0 -1 0
56 1 2.1633622839265167 4.571582436224007 9.607756765545195 0 0 -1
1 1 0.7645589455118172 3.0482662295489265 5.883269996680968 0 0 0
54 1 4.5015715368697995 1.3055901226269933 8.03706299102279 0 0 0
49 1 5.157388149652956 3.462548655163729 7.345952675596081 0 0 0
51 1 3.7290773668454396 5.178009567400093 7.934453968039193 0 0 0
31 1 5.425843014873023 4.527638120362499 10.369683999559173 0 0 0
5 1 3.7703355058690327 2.4166099132998724 10.273751573157309 0 0 0
7 1 3.1248338132534674 0.8947189202015204 6.035417173923703 0 1 0
64 1 7.8493112436766985 5.0356803662552 7.910886128843959 0 0 -1
23 1 10.024777685582144 2.6057313051009956 7.838821810003678 0 1 -1
46 1 8.758478782127646 1.0669936749562972 5.485584647508466 0 1 0
52 1 7.622641810423766 2.9181722565152053 6.846156100863152 0 0 0
3 1 7.12329845369402 3.417767627988458 9.243965754904865 0 0 0
41 1 10.13061468880687 1.274183377020168 9.867782097912556 0 1 0
57 1 7.676905397299339 0.09259418573067785 9.44036218123606 0 1 0
38 1 1.389063882985503 10.477217235698019 8.739837221922954 1 -1 -1
37 1 2.9486566607486777 9.06693067674429 7.504444229047987 0 0 0
34 1 0.9167074079319244 7.524576842566415 8.354888227948472 1 0 0
15 1 4.782091341478978 7.546153384597018 8.512392794936005 0 -1 0
60 1 0.6717913007743063 5.4997614689485115 7.122299757057952 0 0 0
33 1 3.005820336705147 8.278193078374066 10.17372259111602 0 0 0
63 1 0.5266538806405942 5.753521422833763 10.796325092480643 1 0 0
35 1 7.5445253140558535 8.438279049192078 6.140748911683661 0 -1 0
21 1 6.801557146311735 10.610815806734738 5.581434491768275 0 0 0
30 1 9.851644597388441 8.21037198019453 6.023246281177034 -1 0 0
22 1 9.750232834076689 9.390345310307955 8.272806523090349 -1 -1 0
39 1 6.652564941881261 6.25783463083624 6.187924394518802 0 0 0
13 1 8.255467718074497 7.237594287096449 8.699648511416006 0 0 0
50 1 9.31408328918563 6.044285040620038 6.314429680467946 0 0 0
9 1 6.024146562025127 10.28773421526582 7.939520635678244 0 0 0

Velocities

28 -14.192247809509624 1.3901512689949356 2.0618062429055146
29 -1.7474122071965708 -14.214371764468153 8.464584067800363
43 2.9721781850153994 -11.112539233436658 9.899777858110035
61 11.714447143090322 3.875286714471074 4.383794813599675
48 -0.011538406357133062 3.576586822260301 12.998782203153649
47 5.483479170598786 4.765956434621885 -4.127869516996495
40 8.063967362995749 0.40990575975691707 -0.9814676799913437
18 0.39809456135670207 -6.6673257262198735 10.484774987605235
11 1.9257092996946008 -14.429027487066593 0.9976635456910484
58 -5.087887151158808 -2.3709793347513353 6.44627871422142
20 0.22016995872581205 4.274037455454548 -15.951959554838862
8 -3.78058259233392 -0.8390162275959961 0.09773940702938204
10 -18.25683596443694 -2.800325949152679 -7.086959387391514
14 -1.2600808043235563 14.709534949048336 4.617567879075742
44 0.8025528315489829 10.366753059163077 -1.4584584488866705
62 -6.583222638169248 4.505065213622835 -3.3248392802733826
4 10.610393369897546 2.546224440663136 -2.5102704260626427
27 -12.261051452360649 8.723642008188992 -0.5426362807978772
19 2.7986039330066665 -4.654303228960345 -0.4713958312316947
2 14.908831183796535 0.7605209690868032 -9.122536125916282
6 6.7059326659751655 -6.510011736604992 -2.48579022299345
45 -7.786651805384676 6.409349399752431 -0.0009206406143811507
59 10.950869042569591 -12.614908223173808 -5.118255382794964
36 -4.769248553733748 0.1744784941985152 -7.265093067759049
16 17.959303617129883 -10.688580106459083 -0.7397892547763516
55 2.434992294714782 22.03888901444951 -9.560807101424862
32 -7.363339923995142 9.643056428826327 -3.492384396155219
26 -10.272148643165856 -8.574286012143101 -4.033096698014771
53 -1.5956388960436652 -7.985145987989307 -1.875759891898556
17 2.0607552410159427 3.6879628369481297 -0.04708840495152483
12 2.6617689771192046 2.8372410973071176 0.4221111160262814
24 0.7774927231399359 7.901030120701855 6.3480597658368225
42 10.047838527932281 -4.285305990944119 -2.6230640457355348
25 0.12082314005885825 -13.752827015782968 -5.2774714049657065
56 -5.513916135881971 8.702540351370013 0.5312341374267145
1 -9.19870097423007 7.993547325749654 6.44817249693329
54 -2.3740254708092783 -2.3535363300992493 1.1833539316081612
49 -9.257150193230622 9.685634169661808 7.217967689652272
51 -9.191321337079554 -5.059958014810769 9.010383252516325
31 5.582924485037358 4.353122455012063 -1.8513866453190173
5 -7.518946428050321 -0.20936611571816405 0.1918257442832515
7 7.9492322945021385 -7.1205835313237875 1.1774808078131072
64 -6.938430304934392 -4.897875322343345 18.830882787792365
23 -5.323059110358324 -0.057218863573778304 -3.479119932371372
46 9.277268577527861 3.9689705941247477 -3.7112501428263607
52 9.466109644380444 -1.1544550894103032 -5.967649184145394
3 4.1591191796307685 -4.494544691164563 7.671920008681454
41 1.7559370684835829 4.507095462232824 -12.689445542903055
57 -3.292494979525915 3.112890374002669 7.79371534131014
38 -3.7301597754367224 10.282340107402959 -7.474785079063567
37 5.601526026228457 0.8277289977026533 12.296581107455145
34 3.679440767358114 7.239542489918471 0.2675545663330227
15 3.375955479355315 -10.692984319207378 5.048669726607461
60 7.626267778345345 4.347645572878247 -3.461206462262101
33 -0.7855773267078777 -13.561452166450989 5.29200004171205
63 -0.39643646269678173 -6.646038693928196 -5.283780434619304
35 -3.503587379404701 -7.777266690844522 7.877922007033122
21 -9.594644498103825 -5.290279478177117 -2.5160031309712645
30 -1.046738978662637 2.748301846974309 -0.300470648006024
22 -4.105503781465766 2.7700905231615653 -2.6862998026137634
39 -2.5877037568469006 -3.6202619449873805 -8.722486528921872
13 9.188713334930346 -0.12007085979301468 -0.8179708161760264
50 -4.921174200820114 11.353319537959436 -7.648613891917204
9 2.9667600772523555 0.06640384091330334 -3.3542229616257995
