-6821.72721026784
-6823.014088992756
-6824.060640448909
-6819.648143123389
-6823.753325828027
-6820.623851102217
-6819.851638831692
-6820.414613383747
-6823.300590034289
-6823.6074734907925
-6821.290695452137
-6822.511422350477
-6820.912400208556
-6822.685293297281
-6822.620029242104
-6823.342569988577
-6821.666837186798
-6824.37139418054
-6821.8599808683375
-6822.92400080842
-6823.397334395232
-6823.219495076264
-6821.198396206804
-6825.257107854305
-6822.764809722928
-6824.190214528144
-6823.317107480352
-6822.9420476703135
-6821.586452990119
-6823.744304165821
-6824.542113232749
-6822.7676875988855
-6824.596253954486
-6822.970052810247
-6820.496414613241
-6823.568508557837
-6821.427926814792
-6822.957257473325
-6820.926638429108
-6824.66185774379
-6822.21339361434
-6826.482658786777
-6821.850607771108
-6822.077845139721
-6820.061964189174
-6821.813448313472
-6822.717009117575
-6822.835180402458
-6822.94843976044
-6821.029339634092
-6822.566739692454
-6821.2233427871915
-6821.326015284167
-6820.312238715368
-6823.284421166053
-6821.501349114966
-6823.911454853207
-6820.276248258783
-6822.021799621113
-6821.080013353411
-6821.08210196318
-6823.261082098168
-6826.921933789203
-6823.076784021182
-6824.088357828457
-6822.495969685865
-6821.661281302498
-6820.225354535425
-6822.518887113357
-6819.889092988616
-6820.223293545211
-6822.765209049986
-6822.047031921029
-6823.514048782624
-6822.137065274427
-6822.020277552356
-6820.376077438258
-6820.637905237755
-6822.346771845041
-6823.903194973691
-6823.496191175906
