An instance of this daemon is already running
An instance of this daemon is already running

     Program PWSCF v.7.1 starts on  9May2023 at 15:28: 4 

     This program is part of the open-source Quantum ESPRESSO suite
     for quantum simulation of materials; please cite
         "P. Giannozzi et al., J. Phys.:Condens. Matter 21 395502 (2009);
         "P. Giannozzi et al., J. Phys.:Condens. Matter 29 465901 (2017);
         "P. Giannozzi et al., J. Chem. Phys. 152 154105 (2020);
          URL http://www.quantum-espresso.org", 
     in publications or presentations arising from this work. More details at
     http://www.quantum-espresso.org/quote

     Parallel version (MPI & OpenMP), running on       4 processor cores
     Number of MPI processes:                 4
     Threads/MPI process:                     1

     MPI processes distributed on     1 nodes
     751788 MiB available memory on the printing compute node when the environment starts
 
     Reading input from pw-si-5.in
Warning: card &CELL ignored
Warning: card / ignored

     Current dimensions of program PWSCF are:
     Max number of different atomic species (ntypx) = 10
     Max number of k-points (npk) =  40000
     Max angular momentum in pseudopotentials (lmaxx) =  4

     IMPORTANT: XC functional enforced from input :
     Exchange-correlation= PBE
                           (   1   4   3   4   0   0   0)
     Any further DFT definition will be discarded
     Please, verify this is what you really want


     gamma-point specific algorithms are used
 
     K-points division:     npool     =       2
     R & G space division:  proc/nbgrp/npool/nimage =       2
     Subspace diagonalization in iterative solution of the eigenvalue problem:
     a serial algorithm will be used

     Message from routine divide_et_impera:
     suboptimal parallelization: some nodes have no k-points
 
     Parallelization info
     --------------------
     sticks:   dense  smooth     PW     G-vecs:    dense   smooth      PW
     Min        1908    1908    502                89172    89172   12102
     Max        1909    1909    503                89177    89177   12105
     Sum        3817    3817   1005               178349   178349   24207
 
     Using Slab Decomposition
 


     bravais-lattice index     =            0
     lattice parameter (alat)  =      20.0259  a.u.
     unit-cell volume          =    8031.1113 (a.u.)^3
     number of atoms/cell      =           64
     number of atomic types    =            1
     number of electrons       =       256.00
     number of Kohn-Sham states=          128
     kinetic-energy cutoff     =      30.0000  Ry
     charge density cutoff     =     120.0000  Ry
     scf convergence threshold =      1.0E-06
     mixing beta               =       0.5000
     number of iterations used =            8  plain     mixing
     Exchange-correlation= PBE
                           (   1   4   3   4   0   0   0)

     GPU acceleration is ACTIVE.
     GPU-aware MPI enabled

     Message from routine print_cuda_info:
     High GPU oversubscription detected. Are you sure this is what you want?

     celldm(1)=  20.025893  celldm(2)=   0.000000  celldm(3)=   0.000000
     celldm(4)=   0.000000  celldm(5)=   0.000000  celldm(6)=   0.000000

     crystal axes: (cart. coord. in units of alat)
               a(1) = (   1.000000   0.000000   0.000000 )  
               a(2) = (   0.000000   1.000000   0.000000 )  
               a(3) = (   0.000000   0.000000   1.000000 )  

     reciprocal axes: (cart. coord. in units 2 pi/alat)
               b(1) = (  1.000000  0.000000  0.000000 )  
               b(2) = (  0.000000  1.000000  0.000000 )  
               b(3) = (  0.000000  0.000000  1.000000 )  


     PseudoPot. # 1 for Si read from file:
     /home/ppiaggi/pseudos/Si_ONCV_PBE_sr.upf
     MD5 check sum: 8553c464762ac42b85b1eed164b4d029
     Pseudo is Norm-conserving, Zval =  4.0
     Generated using ONCVPSP code by D. R. Hamann
     Using radial grid of 1510 points,  4 beta functions with: 
                l(1) =   0
                l(2) =   0
                l(3) =   1
                l(4) =   1

     atomic species   valence    mass     pseudopotential
        Si             4.00    28.08500     Si( 1.00)

     No symmetry found



   Cartesian axes

     site n.     atom                  positions (alat units)
         1           Si  tau(   1) = (   0.9531560   0.6882020   0.2749330  )
         2           Si  tau(   2) = (   0.3159050   0.8478330   0.6898650  )
         3           Si  tau(   3) = (   0.7982710   0.5223920   0.0955737  )
         4           Si  tau(   4) = (   0.8551900   0.1810900   0.3258010  )
         5           Si  tau(   5) = (   0.3203930   0.3785790   0.6947610  )
         6           Si  tau(   6) = (   0.5737640   0.5897900   0.3338490  )
         7           Si  tau(   7) = (   0.0635763   0.0126644   0.4523060  )
         8           Si  tau(   8) = (   0.5430540   0.1035310   0.9914170  )
         9           Si  tau(   9) = (   0.6642950   0.9389460   0.6482170  )
        10           Si  tau(  10) = (   0.8149580   0.3942410   0.7629470  )
        11           Si  tau(  11) = (   0.8462230   0.8410030   0.1598530  )
        12           Si  tau(  12) = (   0.2461460   0.1760270   0.8884550  )
        13           Si  tau(  13) = (   0.1257160   0.4157840   0.0917747  )
        14           Si  tau(  14) = (   0.5349130   0.2150100   0.6966740  )
        15           Si  tau(  15) = (   0.9832680   0.2428660   0.0225116  )
        16           Si  tau(  16) = (   0.7108840   0.9559340   0.2997820  )
        17           Si  tau(  17) = (   0.0476406   0.4239840   0.5508500  )
        18           Si  tau(  18) = (   0.5987430   0.1738990   0.2249160  )
        19           Si  tau(  19) = (   0.9550720   0.8352460   0.5887180  )
        20           Si  tau(  20) = (   0.7812740   0.6405100   0.6844140  )
        21           Si  tau(  21) = (   0.4347180   0.5904060   0.7307880  )
        22           Si  tau(  22) = (   0.0775875   0.3464490   0.3193300  )
        23           Si  tau(  23) = (   0.7529190   0.1571760   0.8020080  )
        24           Si  tau(  24) = (   0.5086000   0.6739070   0.5347540  )
        25           Si  tau(  25) = (   0.4456830   0.3188450   0.9254790  )
        26           Si  tau(  26) = (   0.5643550   0.5938110   0.8897550  )
        27           Si  tau(  27) = (   0.9705070   0.6001210   0.8017060  )
        28           Si  tau(  28) = (   0.4283150   0.7624600   0.0049515  )
        29           Si  tau(  29) = (   0.8755810   0.5563280   0.4756670  )
        30           Si  tau(  30) = (   0.1907010   0.7924340   0.0695487  )
        31           Si  tau(  31) = (   0.6249450   0.3651780   0.3867840  )
        32           Si  tau(  32) = (   0.4849830   0.9363180   0.8438520  )
        33           Si  tau(  33) = (   0.9751420   0.0381942   0.1535830  )
        34           Si  tau(  34) = (   0.3850010   0.3667480   0.3041310  )
        35           Si  tau(  35) = (   0.3478870   0.6568230   0.2585180  )
        36           Si  tau(  36) = (   0.0785932   0.9752000   0.9469540  )
        37           Si  tau(  37) = (   0.3300600   0.4590870   0.0788671  )
        38           Si  tau(  38) = (   0.6388680   0.6936470   0.1310740  )
        39           Si  tau(  39) = (   0.6138570   0.4203400   0.6100660  )
        40           Si  tau(  40) = (   0.1153060   0.6422080   0.5569910  )
        41           Si  tau(  41) = (   0.1623190   0.7489000   0.3615960  )
        42           Si  tau(  42) = (   0.3698970   0.0900924   0.1580470  )
        43           Si  tau(  43) = (   0.1593980   0.9865270   0.2328820  )
        44           Si  tau(  44) = (   0.1804940   0.1838960   0.5417860  )
        45           Si  tau(  45) = (   0.5090620   0.9039030   0.2329340  )
        46           Si  tau(  46) = (   0.8285330   0.4055690   0.3068370  )
        47           Si  tau(  47) = (   0.6901800   0.7573960   0.8196590  )
        48           Si  tau(  48) = (   0.9344190   0.1806280   0.5936440  )
        49           Si  tau(  49) = (   0.0181521   0.6114500   0.0693857  )
        50           Si  tau(  50) = (   0.8801630   0.7829960   0.9480120  )
        51           Si  tau(  51) = (   0.6935620   0.1556760   0.5163400  )
        52           Si  tau(  52) = (   0.7629140   0.2445490   0.0542039  )
        53           Si  tau(  53) = (   0.1297320   0.7948610   0.7701970  )
        54           Si  tau(  54) = (   0.3086850   0.5027360   0.4754820  )
        55           Si  tau(  55) = (   0.2787690   0.5954060   0.9076010  )
        56           Si  tau(  56) = (   0.3838100   0.8362110   0.4467580  )
        57           Si  tau(  57) = (   0.2824700   0.2014310   0.3569400  )
        58           Si  tau(  58) = (   0.1154840   0.4233130   0.7759690  )
        59           Si  tau(  59) = (   0.6789310   0.4170140   0.9250230  )
        60           Si  tau(  60) = (   0.7414180   0.8014470   0.4805010  )
        61           Si  tau(  61) = (   0.9052300   0.9694550   0.7730060  )
        62           Si  tau(  62) = (   0.0382954   0.2048640   0.8173940  )
        63           Si  tau(  63) = (   0.4827870   0.0523942   0.4611640  )
        64           Si  tau(  64) = (   0.3214700   0.0849934   0.6901100  )

     number of k points=     1
                       cart. coord. in units 2pi/alat
        k(    1) = (   0.0000000   0.0000000   0.0000000), wk =   2.0000000

     Dense  grid:    89175 G-vectors     FFT dimensions: (  72,  72,  72)

     Estimated max dynamical RAM per process >     131.53 MB

     Estimated total dynamical RAM >     504.36 MB

     Initial potential from superposition of free atoms

     starting charge     255.9608, renormalised to     256.0000
     Starting wfcs are  256 randomized atomic wfcs

     total cpu time spent up to now is        4.8 secs

     Self-consistent Calculation

     iteration #  1     ecut=    30.00 Ry     beta= 0.50
     Davidson diagonalization with overlap
     ethr =  1.00E-02,  avg # of iterations =  2.0

     Threshold (ethr) on eigenvalues was too large:
     Diagonalizing with lowered threshold

     Davidson diagonalization with overlap
     ethr =  3.69E-04,  avg # of iterations =  6.0

     total cpu time spent up to now is        5.0 secs

     total energy              =    -501.10131646 Ry
     estimated scf accuracy    <       1.22087831 Ry

     iteration #  2     ecut=    30.00 Ry     beta= 0.50
     Davidson diagonalization with overlap
     ethr =  4.77E-04,  avg # of iterations = 13.0

     total cpu time spent up to now is        5.2 secs

     total energy              =    -500.87019405 Ry
     estimated scf accuracy    <       2.60094754 Ry

     iteration #  3     ecut=    30.00 Ry     beta= 0.50
     Davidson diagonalization with overlap
     ethr =  4.77E-04,  avg # of iterations = 10.0

     total cpu time spent up to now is        5.3 secs

     total energy              =    -501.13962707 Ry
     estimated scf accuracy    <       1.99043850 Ry

     iteration #  4     ecut=    30.00 Ry     beta= 0.50
     Davidson diagonalization with overlap
     ethr =  4.77E-04,  avg # of iterations =  6.0

     total cpu time spent up to now is        5.4 secs

     total energy              =    -501.29052259 Ry
     estimated scf accuracy    <       0.28403772 Ry

     iteration #  5     ecut=    30.00 Ry     beta= 0.50
     Davidson diagonalization with overlap
     ethr =  1.11E-04,  avg # of iterations =  7.0

     total cpu time spent up to now is        5.6 secs

     total energy              =    -501.32400104 Ry
     estimated scf accuracy    <       0.11801823 Ry

     iteration #  6     ecut=    30.00 Ry     beta= 0.50
     Davidson diagonalization with overlap
     ethr =  4.61E-05,  avg # of iterations =  9.0

     total cpu time spent up to now is        5.7 secs

     total energy              =    -501.33722421 Ry
     estimated scf accuracy    <       0.11393945 Ry

     iteration #  7     ecut=    30.00 Ry     beta= 0.50
     Davidson diagonalization with overlap
     ethr =  4.45E-05,  avg # of iterations =  3.0

     total cpu time spent up to now is        5.8 secs

     total energy              =    -501.34321820 Ry
     estimated scf accuracy    <       0.01942545 Ry

     iteration #  8     ecut=    30.00 Ry     beta= 0.50
     Davidson diagonalization with overlap
     c_bands:  2 eigenvalues not converged
     ethr =  7.59E-06,  avg # of iterations = 20.0

     total cpu time spent up to now is        6.0 secs

     total energy              =    -501.35068769 Ry
     estimated scf accuracy    <       0.07285470 Ry

     iteration #  9     ecut=    30.00 Ry     beta= 0.50
     Davidson diagonalization with overlap
     ethr =  7.59E-06,  avg # of iterations = 10.0

     total cpu time spent up to now is        6.1 secs

     total energy              =    -501.35044416 Ry
     estimated scf accuracy    <       0.05156731 Ry

     iteration # 10     ecut=    30.00 Ry     beta= 0.50
     Davidson diagonalization with overlap
     ethr =  7.59E-06,  avg # of iterations =  1.0

     total cpu time spent up to now is        6.2 secs

     total energy              =    -501.34668270 Ry
     estimated scf accuracy    <       0.04376175 Ry

     iteration # 11     ecut=    30.00 Ry     beta= 0.50
     Davidson diagonalization with overlap
     ethr =  7.59E-06,  avg # of iterations = 10.0

     total cpu time spent up to now is        6.3 secs

     total energy              =    -501.34577230 Ry
     estimated scf accuracy    <       0.01626423 Ry

     iteration # 12     ecut=    30.00 Ry     beta= 0.50
     Davidson diagonalization with overlap
     c_bands:  1 eigenvalues not converged
     ethr =  6.35E-06,  avg # of iterations = 20.0

     total cpu time spent up to now is        6.5 secs

     total energy              =    -501.34929208 Ry
     estimated scf accuracy    <       0.01745636 Ry

     iteration # 13     ecut=    30.00 Ry     beta= 0.50
     Davidson diagonalization with overlap
     ethr =  6.35E-06,  avg # of iterations = 10.0

     total cpu time spent up to now is        6.6 secs

     total energy              =    -501.34866951 Ry
     estimated scf accuracy    <       0.01426847 Ry

     iteration # 14     ecut=    30.00 Ry     beta= 0.50
     Davidson diagonalization with overlap
     ethr =  5.57E-06,  avg # of iterations =  2.0

     total cpu time spent up to now is        6.7 secs

     total energy              =    -501.34769997 Ry
     estimated scf accuracy    <       0.00980487 Ry

     iteration # 15     ecut=    30.00 Ry     beta= 0.50
     Davidson diagonalization with overlap
     c_bands:  1 eigenvalues not converged
     ethr =  3.83E-06,  avg # of iterations = 20.0

     total cpu time spent up to now is        6.8 secs

     total energy              =    -501.34949672 Ry
     estimated scf accuracy    <       0.00889211 Ry

     iteration # 16     ecut=    30.00 Ry     beta= 0.50
     Davidson diagonalization with overlap
     c_bands:  1 eigenvalues not converged
     ethr =  3.47E-06,  avg # of iterations = 20.0

     total cpu time spent up to now is        7.0 secs

     total energy              =    -501.34960388 Ry
     estimated scf accuracy    <       0.00937091 Ry

     iteration # 17     ecut=    30.00 Ry     beta= 0.50
     Davidson diagonalization with overlap
     ethr =  3.47E-06,  avg # of iterations =  2.0

     total cpu time spent up to now is        7.1 secs

     total energy              =    -501.34892908 Ry
     estimated scf accuracy    <       0.00805330 Ry

     iteration # 18     ecut=    30.00 Ry     beta= 0.50
     Davidson diagonalization with overlap
     ethr =  3.15E-06,  avg # of iterations =  1.0

     total cpu time spent up to now is        7.2 secs

     total energy              =    -501.34859554 Ry
     estimated scf accuracy    <       0.00515027 Ry

     iteration # 19     ecut=    30.00 Ry     beta= 0.50
     Davidson diagonalization with overlap
     c_bands:  1 eigenvalues not converged
     ethr =  2.01E-06,  avg # of iterations = 20.0

     total cpu time spent up to now is        7.3 secs

     total energy              =    -501.34944820 Ry
     estimated scf accuracy    <       0.00411573 Ry

     iteration # 20     ecut=    30.00 Ry     beta= 0.50
     Davidson diagonalization with overlap
     ethr =  1.61E-06,  avg # of iterations = 14.0

     total cpu time spent up to now is        7.5 secs

     total energy              =    -501.35041842 Ry
     estimated scf accuracy    <       0.00477178 Ry

     iteration # 21     ecut=    30.00 Ry     beta= 0.50
     Davidson diagonalization with overlap
     c_bands:  1 eigenvalues not converged
     ethr =  1.61E-06,  avg # of iterations = 20.0

     total cpu time spent up to now is        7.7 secs

     total energy              =    -501.34871042 Ry
     estimated scf accuracy    <       0.02664591 Ry

     iteration # 22     ecut=    30.00 Ry     beta= 0.50
     Davidson diagonalization with overlap
     c_bands:  1 eigenvalues not converged
     ethr =  1.61E-06,  avg # of iterations = 20.0

     total cpu time spent up to now is        7.9 secs

     total energy              =    -501.34874435 Ry
     estimated scf accuracy    <       0.01442669 Ry

     iteration # 23     ecut=    30.00 Ry     beta= 0.50
     Davidson diagonalization with overlap
     c_bands:  1 eigenvalues not converged
     ethr =  1.61E-06,  avg # of iterations = 20.0

     total cpu time spent up to now is        8.0 secs

     total energy              =    -501.34893255 Ry
     estimated scf accuracy    <       0.00600815 Ry

     iteration # 24     ecut=    30.00 Ry     beta= 0.50
     Davidson diagonalization with overlap
     ethr =  1.61E-06,  avg # of iterations =  2.0

     total cpu time spent up to now is        8.1 secs

     total energy              =    -501.34886651 Ry
     estimated scf accuracy    <       0.00458459 Ry

     iteration # 25     ecut=    30.00 Ry     beta= 0.50
     Davidson diagonalization with overlap
     ethr =  1.61E-06,  avg # of iterations =  1.0

     total cpu time spent up to now is        8.2 secs

     total energy              =    -501.34891266 Ry
     estimated scf accuracy    <       0.00382260 Ry

     iteration # 26     ecut=    30.00 Ry     beta= 0.50
     Davidson diagonalization with overlap
     ethr =  1.49E-06,  avg # of iterations =  2.0

     total cpu time spent up to now is        8.3 secs

     total energy              =    -501.34875048 Ry
     estimated scf accuracy    <       0.00357380 Ry

     iteration # 27     ecut=    30.00 Ry     beta= 0.50
     Davidson diagonalization with overlap
     ethr =  1.40E-06,  avg # of iterations = 18.0

     total cpu time spent up to now is        8.4 secs

     total energy              =    -501.34820359 Ry
     estimated scf accuracy    <       0.00307749 Ry

     iteration # 28     ecut=    30.00 Ry     beta= 0.50
     Davidson diagonalization with overlap
     c_bands:  1 eigenvalues not converged
     ethr =  1.20E-06,  avg # of iterations = 20.0

     total cpu time spent up to now is        8.6 secs

     total energy              =    -501.34992318 Ry
     estimated scf accuracy    <       0.04278165 Ry

     iteration # 29     ecut=    30.00 Ry     beta= 0.50
     Davidson diagonalization with overlap
     ethr =  1.20E-06,  avg # of iterations = 16.0

     total cpu time spent up to now is        8.8 secs

     total energy              =    -501.34931659 Ry
     estimated scf accuracy    <       0.02497238 Ry

     iteration # 30     ecut=    30.00 Ry     beta= 0.50
     Davidson diagonalization with overlap
     ethr =  1.20E-06,  avg # of iterations =  2.0

     total cpu time spent up to now is        8.9 secs

     total energy              =    -501.34921241 Ry
     estimated scf accuracy    <       0.01850758 Ry

     iteration # 31     ecut=    30.00 Ry     beta= 0.50
     Davidson diagonalization with overlap
     ethr =  1.20E-06,  avg # of iterations =  1.0

     total cpu time spent up to now is        8.9 secs

     total energy              =    -501.34891827 Ry
     estimated scf accuracy    <       0.01715525 Ry

     iteration # 32     ecut=    30.00 Ry     beta= 0.50
     Davidson diagonalization with overlap
     ethr =  1.20E-06,  avg # of iterations =  2.0

     total cpu time spent up to now is        9.0 secs

     total energy              =    -501.34860663 Ry
     estimated scf accuracy    <       0.01486754 Ry

     iteration # 33     ecut=    30.00 Ry     beta= 0.50
     Davidson diagonalization with overlap
     c_bands:  2 eigenvalues not converged
     ethr =  1.20E-06,  avg # of iterations = 20.0

     total cpu time spent up to now is        9.2 secs

     total energy              =    -501.34921754 Ry
     estimated scf accuracy    <       0.00314882 Ry

     iteration # 34     ecut=    30.00 Ry     beta= 0.50
     Davidson diagonalization with overlap
     ethr =  1.20E-06,  avg # of iterations = 14.0

     total cpu time spent up to now is        9.3 secs

     total energy              =    -501.34931658 Ry
     estimated scf accuracy    <       0.00202736 Ry

     iteration # 35     ecut=    30.00 Ry     beta= 0.50
     Davidson diagonalization with overlap
     ethr =  7.92E-07,  avg # of iterations =  1.0

     total cpu time spent up to now is        9.4 secs

     total energy              =    -501.34906012 Ry
     estimated scf accuracy    <       0.00177343 Ry

     iteration # 36     ecut=    30.00 Ry     beta= 0.50
     Davidson diagonalization with overlap
     c_bands:  2 eigenvalues not converged
     ethr =  6.93E-07,  avg # of iterations = 20.0

     total cpu time spent up to now is        9.6 secs

     total energy              =    -501.34942950 Ry
     estimated scf accuracy    <       0.00759516 Ry

     iteration # 37     ecut=    30.00 Ry     beta= 0.50
     Davidson diagonalization with overlap
     c_bands:  1 eigenvalues not converged
     ethr =  6.93E-07,  avg # of iterations = 20.0

     total cpu time spent up to now is        9.8 secs

     total energy              =    -501.34923162 Ry
     estimated scf accuracy    <       0.02360773 Ry

     iteration # 38     ecut=    30.00 Ry     beta= 0.50
     Davidson diagonalization with overlap
     c_bands:  1 eigenvalues not converged
     ethr =  6.93E-07,  avg # of iterations = 20.0

     total cpu time spent up to now is       10.0 secs

     total energy              =    -501.34937780 Ry
     estimated scf accuracy    <       0.00992647 Ry

     iteration # 39     ecut=    30.00 Ry     beta= 0.50
     Davidson diagonalization with overlap
     c_bands:  1 eigenvalues not converged
     ethr =  6.93E-07,  avg # of iterations = 20.0

     total cpu time spent up to now is       10.1 secs

     total energy              =    -501.34927593 Ry
     estimated scf accuracy    <       0.00669373 Ry

     iteration # 40     ecut=    30.00 Ry     beta= 0.50
     Davidson diagonalization with overlap
     c_bands:  1 eigenvalues not converged
     ethr =  6.93E-07,  avg # of iterations = 20.0

     total cpu time spent up to now is       10.3 secs

     total energy              =    -501.34929646 Ry
     estimated scf accuracy    <       0.00436139 Ry

     iteration # 41     ecut=    30.00 Ry     beta= 0.50
     Davidson diagonalization with overlap
     ethr =  6.93E-07,  avg # of iterations = 19.0

     total cpu time spent up to now is       10.5 secs

     total energy              =    -501.34947437 Ry
     estimated scf accuracy    <       0.00320052 Ry

     iteration # 42     ecut=    30.00 Ry     beta= 0.50
     Davidson diagonalization with overlap
     ethr =  6.93E-07,  avg # of iterations = 10.0

     total cpu time spent up to now is       10.6 secs

     total energy              =    -501.34955936 Ry
     estimated scf accuracy    <       0.00558898 Ry

     iteration # 43     ecut=    30.00 Ry     beta= 0.50
     Davidson diagonalization with overlap
     c_bands:  1 eigenvalues not converged
     ethr =  6.93E-07,  avg # of iterations = 20.0

     total cpu time spent up to now is       10.8 secs

     total energy              =    -501.34960654 Ry
     estimated scf accuracy    <       0.00899508 Ry

     iteration # 44     ecut=    30.00 Ry     beta= 0.50
     Davidson diagonalization with overlap
     ethr =  6.93E-07,  avg # of iterations = 13.0

     total cpu time spent up to now is       10.9 secs

     total energy              =    -501.34824655 Ry
     estimated scf accuracy    <       0.00831255 Ry

     iteration # 45     ecut=    30.00 Ry     beta= 0.50
     Davidson diagonalization with overlap
     c_bands:  1 eigenvalues not converged
     ethr =  6.93E-07,  avg # of iterations = 20.0

     total cpu time spent up to now is       11.1 secs

     total energy              =    -501.34825307 Ry
     estimated scf accuracy    <       0.01912358 Ry

     iteration # 46     ecut=    30.00 Ry     beta= 0.50
     Davidson diagonalization with overlap
     c_bands:  2 eigenvalues not converged
     ethr =  6.93E-07,  avg # of iterations = 20.0

     total cpu time spent up to now is       11.3 secs

     total energy              =    -501.34901901 Ry
     estimated scf accuracy    <       0.00450765 Ry

     iteration # 47     ecut=    30.00 Ry     beta= 0.50
     Davidson diagonalization with overlap
     c_bands:  1 eigenvalues not converged
     ethr =  6.93E-07,  avg # of iterations = 20.0

     total cpu time spent up to now is       11.5 secs

     total energy              =    -501.34912317 Ry
     estimated scf accuracy    <       0.00202021 Ry

     iteration # 48     ecut=    30.00 Ry     beta= 0.50
     Davidson diagonalization with overlap
     ethr =  6.93E-07,  avg # of iterations =  3.0

     total cpu time spent up to now is       11.6 secs

     total energy              =    -501.34914871 Ry
     estimated scf accuracy    <       0.00118093 Ry

     iteration # 49     ecut=    30.00 Ry     beta= 0.50
     Davidson diagonalization with overlap
     ethr =  4.61E-07,  avg # of iterations =  2.0

     total cpu time spent up to now is       11.6 secs

     total energy              =    -501.34916240 Ry
     estimated scf accuracy    <       0.00088248 Ry

     iteration # 50     ecut=    30.00 Ry     beta= 0.50
     Davidson diagonalization with overlap
     ethr =  3.45E-07,  avg # of iterations =  2.0

     total cpu time spent up to now is       11.7 secs

     total energy              =    -501.34914540 Ry
     estimated scf accuracy    <       0.00075364 Ry

     iteration # 51     ecut=    30.00 Ry     beta= 0.50
     Davidson diagonalization with overlap
     ethr =  2.94E-07,  avg # of iterations =  2.0

     total cpu time spent up to now is       11.8 secs

     total energy              =    -501.34914899 Ry
     estimated scf accuracy    <       0.00061186 Ry

     iteration # 52     ecut=    30.00 Ry     beta= 0.50
     Davidson diagonalization with overlap
     ethr =  2.39E-07,  avg # of iterations =  1.0

     total cpu time spent up to now is       11.9 secs

     total energy              =    -501.34914973 Ry
     estimated scf accuracy    <       0.00056273 Ry

     iteration # 53     ecut=    30.00 Ry     beta= 0.50
     Davidson diagonalization with overlap
     ethr =  2.20E-07,  avg # of iterations =  2.0

     total cpu time spent up to now is       12.0 secs

     total energy              =    -501.34904996 Ry
     estimated scf accuracy    <       0.00052186 Ry

     iteration # 54     ecut=    30.00 Ry     beta= 0.50
     Davidson diagonalization with overlap
     c_bands:  1 eigenvalues not converged
     ethr =  2.04E-07,  avg # of iterations = 20.0

     total cpu time spent up to now is       12.2 secs

     total energy              =    -501.34925859 Ry
     estimated scf accuracy    <       0.01455895 Ry

     iteration # 55     ecut=    30.00 Ry     beta= 0.50
     Davidson diagonalization with overlap
     c_bands:  1 eigenvalues not converged
     ethr =  2.04E-07,  avg # of iterations = 20.0

     total cpu time spent up to now is       12.4 secs

     total energy              =    -501.34953495 Ry
     estimated scf accuracy    <       0.01288109 Ry

     iteration # 56     ecut=    30.00 Ry     beta= 0.50
     Davidson diagonalization with overlap
     ethr =  2.04E-07,  avg # of iterations = 18.0

     total cpu time spent up to now is       12.5 secs

     total energy              =    -501.34961210 Ry
     estimated scf accuracy    <       0.01256056 Ry

     iteration # 57     ecut=    30.00 Ry     beta= 0.50
     Davidson diagonalization with overlap
     ethr =  2.04E-07,  avg # of iterations =  1.0

     total cpu time spent up to now is       12.6 secs

     total energy              =    -501.34966485 Ry
     estimated scf accuracy    <       0.01250033 Ry

     iteration # 58     ecut=    30.00 Ry     beta= 0.50
     Davidson diagonalization with overlap
     ethr =  2.04E-07,  avg # of iterations =  1.0

     total cpu time spent up to now is       12.7 secs

     total energy              =    -501.34975252 Ry
     estimated scf accuracy    <       0.01257092 Ry

     iteration # 59     ecut=    30.00 Ry     beta= 0.50
     Davidson diagonalization with overlap
     ethr =  2.04E-07,  avg # of iterations =  2.0

     total cpu time spent up to now is       12.8 secs

     total energy              =    -501.34941892 Ry
     estimated scf accuracy    <       0.01296676 Ry

     iteration # 60     ecut=    30.00 Ry     beta= 0.50
     Davidson diagonalization with overlap
     ethr =  2.04E-07,  avg # of iterations =  1.0

     total cpu time spent up to now is       12.8 secs

     total energy              =    -501.34926733 Ry
     estimated scf accuracy    <       0.01156111 Ry

     iteration # 61     ecut=    30.00 Ry     beta= 0.50
     Davidson diagonalization with overlap
     ethr =  2.04E-07,  avg # of iterations =  2.0

     total cpu time spent up to now is       12.9 secs

     total energy              =    -501.34912193 Ry
     estimated scf accuracy    <       0.01070702 Ry

     iteration # 62     ecut=    30.00 Ry     beta= 0.50
     Davidson diagonalization with overlap
     ethr =  2.04E-07,  avg # of iterations =  2.0

     total cpu time spent up to now is       13.0 secs

     total energy              =    -501.34528682 Ry
     estimated scf accuracy    <       0.01001549 Ry

     iteration # 63     ecut=    30.00 Ry     beta= 0.50
     Davidson diagonalization with overlap
     c_bands:  4 eigenvalues not converged
     ethr =  2.04E-07,  avg # of iterations = 20.0

     total cpu time spent up to now is       13.2 secs

     total energy              =    -501.34598875 Ry
     estimated scf accuracy    <       0.12504143 Ry

     iteration # 64     ecut=    30.00 Ry     beta= 0.50
     Davidson diagonalization with overlap
     c_bands:  3 eigenvalues not converged
     ethr =  2.04E-07,  avg # of iterations = 20.0

     total cpu time spent up to now is       13.4 secs

     total energy              =    -501.34974513 Ry
     estimated scf accuracy    <       0.02397590 Ry

     iteration # 65     ecut=    30.00 Ry     beta= 0.50
     Davidson diagonalization with overlap
     c_bands:  1 eigenvalues not converged
     ethr =  2.04E-07,  avg # of iterations = 20.0

     total cpu time spent up to now is       13.6 secs

     total energy              =    -501.34986096 Ry
     estimated scf accuracy    <       0.01384305 Ry

     iteration # 66     ecut=    30.00 Ry     beta= 0.50
     Davidson diagonalization with overlap
     ethr =  2.04E-07,  avg # of iterations =  6.0

     total cpu time spent up to now is       13.7 secs

     total energy              =    -501.34957334 Ry
     estimated scf accuracy    <       0.00984442 Ry

     iteration # 67     ecut=    30.00 Ry     beta= 0.50
     Davidson diagonalization with overlap
     c_bands:  1 eigenvalues not converged
     ethr =  2.04E-07,  avg # of iterations = 20.0

     total cpu time spent up to now is       13.9 secs

     total energy              =    -501.34940099 Ry
     estimated scf accuracy    <       0.00537554 Ry

     iteration # 68     ecut=    30.00 Ry     beta= 0.50
     Davidson diagonalization with overlap
     ethr =  2.04E-07,  avg # of iterations =  8.0

     total cpu time spent up to now is       14.0 secs

     total energy              =    -501.34924412 Ry
     estimated scf accuracy    <       0.00419392 Ry

     iteration # 69     ecut=    30.00 Ry     beta= 0.50
     Davidson diagonalization with overlap
     ethr =  2.04E-07,  avg # of iterations =  2.0

     total cpu time spent up to now is       14.1 secs

     total energy              =    -501.34906412 Ry
     estimated scf accuracy    <       0.00323717 Ry

     iteration # 70     ecut=    30.00 Ry     beta= 0.50
     Davidson diagonalization with overlap
     c_bands:  1 eigenvalues not converged
     ethr =  2.04E-07,  avg # of iterations = 20.0

     total cpu time spent up to now is       14.3 secs

     total energy              =    -501.34926182 Ry
     estimated scf accuracy    <       0.00174244 Ry

     iteration # 71     ecut=    30.00 Ry     beta= 0.50
     Davidson diagonalization with overlap
     c_bands:  1 eigenvalues not converged
     ethr =  2.04E-07,  avg # of iterations = 20.0

     total cpu time spent up to now is       14.5 secs

     total energy              =    -501.34947060 Ry
     estimated scf accuracy    <       0.00147698 Ry

     iteration # 72     ecut=    30.00 Ry     beta= 0.50
     Davidson diagonalization with overlap
     c_bands:  1 eigenvalues not converged
     ethr =  2.04E-07,  avg # of iterations = 20.0

     total cpu time spent up to now is       14.7 secs

     total energy              =    -501.34912921 Ry
     estimated scf accuracy    <       0.02236736 Ry

     iteration # 73     ecut=    30.00 Ry     beta= 0.50
     Davidson diagonalization with overlap
     c_bands:  1 eigenvalues not converged
     ethr =  2.04E-07,  avg # of iterations = 20.0

     total cpu time spent up to now is       14.8 secs

     total energy              =    -501.34887096 Ry
     estimated scf accuracy    <       0.01588219 Ry

     iteration # 74     ecut=    30.00 Ry     beta= 0.50
     Davidson diagonalization with overlap
     c_bands:  1 eigenvalues not converged
     ethr =  2.04E-07,  avg # of iterations = 20.0

     total cpu time spent up to now is       15.0 secs

     total energy              =    -501.34886853 Ry
     estimated scf accuracy    <       0.00690692 Ry

     iteration # 75     ecut=    30.00 Ry     beta= 0.50
     Davidson diagonalization with overlap
     c_bands:  1 eigenvalues not converged
     ethr =  2.04E-07,  avg # of iterations = 20.0

     total cpu time spent up to now is       15.2 secs

     total energy              =    -501.34904516 Ry
     estimated scf accuracy    <       0.00427796 Ry

     iteration # 76     ecut=    30.00 Ry     beta= 0.50
     Davidson diagonalization with overlap
     c_bands:  1 eigenvalues not converged
     ethr =  2.04E-07,  avg # of iterations = 20.0

     total cpu time spent up to now is       15.3 secs

     total energy              =    -501.34915040 Ry
     estimated scf accuracy    <       0.00233197 Ry

     iteration # 77     ecut=    30.00 Ry     beta= 0.50
     Davidson diagonalization with overlap
     c_bands:  1 eigenvalues not converged
     ethr =  2.04E-07,  avg # of iterations = 20.0

     total cpu time spent up to now is       15.5 secs

     total energy              =    -501.34922811 Ry
     estimated scf accuracy    <       0.00168332 Ry

     iteration # 78     ecut=    30.00 Ry     beta= 0.50
     Davidson diagonalization with overlap
     c_bands:  1 eigenvalues not converged
     ethr =  2.04E-07,  avg # of iterations = 20.0

     total cpu time spent up to now is       15.7 secs

     total energy              =    -501.34920012 Ry
     estimated scf accuracy    <       0.00117073 Ry

     iteration # 79     ecut=    30.00 Ry     beta= 0.50
     Davidson diagonalization with overlap
     c_bands:  1 eigenvalues not converged
     ethr =  2.04E-07,  avg # of iterations = 20.0

     total cpu time spent up to now is       15.9 secs

     total energy              =    -501.34912697 Ry
     estimated scf accuracy    <       0.00264775 Ry

     iteration # 80     ecut=    30.00 Ry     beta= 0.50
     Davidson diagonalization with overlap
     ethr =  2.04E-07,  avg # of iterations = 12.0

     total cpu time spent up to now is       16.0 secs

     total energy              =    -501.34930119 Ry
     estimated scf accuracy    <       0.00127664 Ry

     iteration # 81     ecut=    30.00 Ry     beta= 0.50
     Davidson diagonalization with overlap
     c_bands:  2 eigenvalues not converged
     ethr =  2.04E-07,  avg # of iterations = 20.0

     total cpu time spent up to now is       16.2 secs

     total energy              =    -501.34921127 Ry
     estimated scf accuracy    <       0.00645563 Ry

     iteration # 82     ecut=    30.00 Ry     beta= 0.50
     Davidson diagonalization with overlap
     c_bands:  1 eigenvalues not converged
     ethr =  2.04E-07,  avg # of iterations = 20.0

     total cpu time spent up to now is       16.4 secs

     total energy              =    -501.34973103 Ry
     estimated scf accuracy    <       0.00891202 Ry

     iteration # 83     ecut=    30.00 Ry     beta= 0.50
     Davidson diagonalization with overlap
     c_bands:  1 eigenvalues not converged
     ethr =  2.04E-07,  avg # of iterations = 20.0

     total cpu time spent up to now is       16.6 secs

     total energy              =    -501.34990796 Ry
     estimated scf accuracy    <       0.01535226 Ry

     iteration # 84     ecut=    30.00 Ry     beta= 0.50
     Davidson diagonalization with overlap
     c_bands:  1 eigenvalues not converged
     ethr =  2.04E-07,  avg # of iterations = 20.0

     total cpu time spent up to now is       16.8 secs

     total energy              =    -501.34991748 Ry
     estimated scf accuracy    <       0.02363238 Ry

     iteration # 85     ecut=    30.00 Ry     beta= 0.50
     Davidson diagonalization with overlap
     ethr =  2.04E-07,  avg # of iterations = 18.0

     total cpu time spent up to now is       16.9 secs

     total energy              =    -501.34799891 Ry
     estimated scf accuracy    <       0.02279316 Ry

     iteration # 86     ecut=    30.00 Ry     beta= 0.50
     Davidson diagonalization with overlap
     c_bands:  1 eigenvalues not converged
     ethr =  2.04E-07,  avg # of iterations = 20.0

     total cpu time spent up to now is       17.1 secs

     total energy              =    -501.34920474 Ry
     estimated scf accuracy    <       0.00641593 Ry

     iteration # 87     ecut=    30.00 Ry     beta= 0.50
     Davidson diagonalization with overlap
     c_bands:  1 eigenvalues not converged
     ethr =  2.04E-07,  avg # of iterations = 20.0

     total cpu time spent up to now is       17.3 secs

     total energy              =    -501.34911330 Ry
     estimated scf accuracy    <       0.00345912 Ry

     iteration # 88     ecut=    30.00 Ry     beta= 0.50
     Davidson diagonalization with overlap
     c_bands:  1 eigenvalues not converged
     ethr =  2.04E-07,  avg # of iterations = 20.0

     total cpu time spent up to now is       17.5 secs

     total energy              =    -501.34918641 Ry
     estimated scf accuracy    <       0.00121980 Ry

     iteration # 89     ecut=    30.00 Ry     beta= 0.50
     Davidson diagonalization with overlap
     c_bands:  1 eigenvalues not converged
     ethr =  2.04E-07,  avg # of iterations = 20.0

     total cpu time spent up to now is       17.7 secs

     total energy              =    -501.34921416 Ry
     estimated scf accuracy    <       0.00065256 Ry

     iteration # 90     ecut=    30.00 Ry     beta= 0.50
     Davidson diagonalization with overlap
     ethr =  2.04E-07,  avg # of iterations =  8.0

     total cpu time spent up to now is       17.8 secs

     total energy              =    -501.34921983 Ry
     estimated scf accuracy    <       0.00061956 Ry

     iteration # 91     ecut=    30.00 Ry     beta= 0.50
     Davidson diagonalization with overlap
     ethr =  2.04E-07,  avg # of iterations =  2.0

     total cpu time spent up to now is       17.9 secs

     total energy              =    -501.34920509 Ry
     estimated scf accuracy    <       0.00056518 Ry

     iteration # 92     ecut=    30.00 Ry     beta= 0.50
     Davidson diagonalization with overlap
     c_bands:  2 eigenvalues not converged
     ethr =  2.04E-07,  avg # of iterations = 20.0

     total cpu time spent up to now is       18.0 secs

     total energy              =    -501.34922967 Ry
     estimated scf accuracy    <       0.00054670 Ry

     iteration # 93     ecut=    30.00 Ry     beta= 0.50
     Davidson diagonalization with overlap
     c_bands:  1 eigenvalues not converged
     ethr =  2.04E-07,  avg # of iterations = 20.0

     total cpu time spent up to now is       18.2 secs

     total energy              =    -501.34924678 Ry
     estimated scf accuracy    <       0.00046937 Ry

     iteration # 94     ecut=    30.00 Ry     beta= 0.50
     Davidson diagonalization with overlap
     ethr =  1.83E-07,  avg # of iterations = 13.0

     total cpu time spent up to now is       18.3 secs

     total energy              =    -501.34913968 Ry
     estimated scf accuracy    <       0.00033492 Ry

     iteration # 95     ecut=    30.00 Ry     beta= 0.50
     Davidson diagonalization with overlap
     c_bands:  1 eigenvalues not converged
     ethr =  1.31E-07,  avg # of iterations = 20.0

     total cpu time spent up to now is       18.5 secs

     total energy              =    -501.34909076 Ry
     estimated scf accuracy    <       0.00179808 Ry

     iteration # 96     ecut=    30.00 Ry     beta= 0.50
     Davidson diagonalization with overlap
     c_bands:  1 eigenvalues not converged
     ethr =  1.31E-07,  avg # of iterations = 20.0

     total cpu time spent up to now is       18.7 secs

     total energy              =    -501.34896576 Ry
     estimated scf accuracy    <       0.01424596 Ry

     iteration # 97     ecut=    30.00 Ry     beta= 0.50
     Davidson diagonalization with overlap
     ethr =  1.31E-07,  avg # of iterations = 18.0

     total cpu time spent up to now is       18.9 secs

     total energy              =    -501.34909119 Ry
     estimated scf accuracy    <       0.01177939 Ry

     iteration # 98     ecut=    30.00 Ry     beta= 0.50
     Davidson diagonalization with overlap
     ethr =  1.31E-07,  avg # of iterations =  2.0

     total cpu time spent up to now is       19.0 secs

     total energy              =    -501.34903808 Ry
     estimated scf accuracy    <       0.01151812 Ry

     iteration # 99     ecut=    30.00 Ry     beta= 0.50
     Davidson diagonalization with overlap
     ethr =  1.31E-07,  avg # of iterations =  1.0

     total cpu time spent up to now is       19.1 secs

     total energy              =    -501.34914100 Ry
     estimated scf accuracy    <       0.01129766 Ry

     iteration #100     ecut=    30.00 Ry     beta= 0.50
     Davidson diagonalization with overlap
     ethr =  1.31E-07,  avg # of iterations =  1.0

     total cpu time spent up to now is       19.1 secs

     total energy              =    -501.35040923 Ry
     estimated scf accuracy    <       0.01161783 Ry

     End of self-consistent calculation

     convergence NOT achieved after 100 iterations: stopping

     Writing config to output data dir ./pwscf.save/
     Message from routine punch:
     wavefunctions written to file
 
     init_run     :      1.09s CPU      4.70s WALL (       1 calls)
     electrons    :     13.59s CPU     14.38s WALL (       1 calls)

     Called by init_run:
     wfcinit      :      0.55s CPU      3.99s WALL (       1 calls)
                                        3.99s GPU  (       1 calls)
     potinit      :      0.05s CPU      0.14s WALL (       1 calls)
     hinit0       :      0.47s CPU      0.50s WALL (       1 calls)

     Called by electrons:
     c_bands      :      9.27s CPU      9.72s WALL (     101 calls)
     sum_band     :      1.93s CPU      2.12s WALL (     101 calls)
     v_of_rho     :      0.87s CPU      1.02s WALL (     101 calls)
     mix_rho      :      1.17s CPU      1.22s WALL (     101 calls)

     Called by c_bands:
     init_us_2    :      0.36s CPU      0.37s WALL (     203 calls)
     init_us_2:gp :      0.35s CPU      0.37s WALL (     203 calls)
     regterg      :      8.46s CPU      8.87s WALL (     101 calls)

     Called by *egterg:
     rdiaghg      :      4.35s CPU      5.22s WALL (    1377 calls)
                                        5.01s GPU  (    1377 calls)
     h_psi        :      3.45s CPU      6.38s WALL (    1379 calls)
                                        6.36s GPU  (    1379 calls)
     g_psi        :      0.01s CPU      0.03s WALL (    1277 calls)
                                        0.02s GPU  (    1277 calls)

     Called by h_psi:
     h_psi:calbec :      0.88s CPU      3.59s WALL (    1379 calls)
                                        3.58s GPU  (    1379 calls)
     vloc_psi     :      1.73s CPU      1.93s WALL (    1379 calls)
                                        1.90s GPU  (    1379 calls)
     add_vuspsi   :      0.65s CPU      0.78s WALL (    1379 calls)
                                        0.77s GPU  (    1379 calls)

     General routines
     calbec       :      0.86s CPU      3.56s WALL (    1379 calls)
     fft          :      1.27s CPU      1.45s WALL (     809 calls)
                                        0.19s GPU  (     505 calls)
     ffts         :      0.27s CPU      0.29s WALL (     101 calls)
     fftw         :      2.04s CPU      2.58s WALL (   10636 calls)
                                        2.22s GPU  (   10636 calls)
     davcio       :      0.00s CPU      0.01s WALL (      19 calls)
 
     Parallel routines
 
     PWSCF        :     14.73s CPU     19.19s WALL

 
   This run was terminated on:  15:28:23   9May2023            

=------------------------------------------------------------------------------=
   JOB DONE.
=------------------------------------------------------------------------------=
