An instance of this daemon is already running
An instance of this daemon is already running
An instance of this daemon is already running

     Program PWSCF v.7.1 starts on  9May2023 at 15:39:17 

     This program is part of the open-source Quantum ESPRESSO suite
     for quantum simulation of materials; please cite
         "P. Giannozzi et al., J. Phys.:Condens. Matter 21 395502 (2009);
         "P. Giannozzi et al., J. Phys.:Condens. Matter 29 465901 (2017);
         "P. Giannozzi et al., J. Chem. Phys. 152 154105 (2020);
          URL http://www.quantum-espresso.org", 
     in publications or presentations arising from this work. More details at
     http://www.quantum-espresso.org/quote

     Parallel version (MPI & OpenMP), running on       4 processor cores
     Number of MPI processes:                 4
     Threads/MPI process:                     1

     MPI processes distributed on     1 nodes
     751744 MiB available memory on the printing compute node when the environment starts
 
     Reading input from pw-si-57.in
Warning: card &CELL ignored
Warning: card / ignored

     Current dimensions of program PWSCF are:
     Max number of different atomic species (ntypx) = 10
     Max number of k-points (npk) =  40000
     Max angular momentum in pseudopotentials (lmaxx) =  4

     IMPORTANT: XC functional enforced from input :
     Exchange-correlation= PBE
                           (   1   4   3   4   0   0   0)
     Any further DFT definition will be discarded
     Please, verify this is what you really want


     gamma-point specific algorithms are used
 
     K-points division:     npool     =       2
     R & G space division:  proc/nbgrp/npool/nimage =       2
     Subspace diagonalization in iterative solution of the eigenvalue problem:
     a serial algorithm will be used

     Message from routine divide_et_impera:
     suboptimal parallelization: some nodes have no k-points
 
     Parallelization info
     --------------------
     sticks:   dense  smooth     PW     G-vecs:    dense   smooth      PW
     Min        1929    1929    504                90123    90123   12201
     Max        1932    1932    505                90128    90128   12204
     Sum        3861    3861   1009               180251   180251   24405
 
     Using Slab Decomposition
 


     bravais-lattice index     =            0
     lattice parameter (alat)  =      20.1050  a.u.
     unit-cell volume          =    8126.6476 (a.u.)^3
     number of atoms/cell      =           64
     number of atomic types    =            1
     number of electrons       =       256.00
     number of Kohn-Sham states=          128
     kinetic-energy cutoff     =      30.0000  Ry
     charge density cutoff     =     120.0000  Ry
     scf convergence threshold =      1.0E-06
     mixing beta               =       0.5000
     number of iterations used =            8  plain     mixing
     Exchange-correlation= PBE
                           (   1   4   3   4   0   0   0)

     GPU acceleration is ACTIVE.
     GPU-aware MPI enabled

     Message from routine print_cuda_info:
     High GPU oversubscription detected. Are you sure this is what you want?

     celldm(1)=  20.104988  celldm(2)=   0.000000  celldm(3)=   0.000000
     celldm(4)=   0.000000  celldm(5)=   0.000000  celldm(6)=   0.000000

     crystal axes: (cart. coord. in units of alat)
               a(1) = (   1.000000   0.000000   0.000000 )  
               a(2) = (   0.000000   1.000000   0.000000 )  
               a(3) = (   0.000000   0.000000   1.000000 )  

     reciprocal axes: (cart. coord. in units 2 pi/alat)
               b(1) = (  1.000000  0.000000  0.000000 )  
               b(2) = (  0.000000  1.000000  0.000000 )  
               b(3) = (  0.000000  0.000000  1.000000 )  


     PseudoPot. # 1 for Si read from file:
     /home/ppiaggi/pseudos/Si_ONCV_PBE_sr.upf
     MD5 check sum: 8553c464762ac42b85b1eed164b4d029
     Pseudo is Norm-conserving, Zval =  4.0
     Generated using ONCVPSP code by D. R. Hamann
     Using radial grid of 1510 points,  4 beta functions with: 
                l(1) =   0
                l(2) =   0
                l(3) =   1
                l(4) =   1

     atomic species   valence    mass     pseudopotential
        Si             4.00    28.08500     Si( 1.00)

     No symmetry found



   Cartesian axes

     site n.     atom                  positions (alat units)
         1           Si  tau(   1) = (   0.3711130   0.7420390   0.7792980  )
         2           Si  tau(   2) = (   0.7330290   0.3886620   0.4570210  )
         3           Si  tau(   3) = (   0.1628790   0.6395980   0.1716960  )
         4           Si  tau(   4) = (   0.9412860   0.0726854   0.5615710  )
         5           Si  tau(   5) = (   0.7131200   0.9421660   0.7821520  )
         6           Si  tau(   6) = (   0.2726380   0.9882970   0.7989800  )
         7           Si  tau(   7) = (   0.2832600   0.1909900   0.2731890  )
         8           Si  tau(   8) = (   0.8404380   0.7611220   0.4585810  )
         9           Si  tau(   9) = (   0.4342280   0.8771620   0.5622040  )
        10           Si  tau(  10) = (   0.1337290   0.7090850   0.3963010  )
        11           Si  tau(  11) = (   0.8496820   0.9409510   0.2975630  )
        12           Si  tau(  12) = (   0.1556410   0.5249780   0.6673310  )
        13           Si  tau(  13) = (   0.4278570   0.0167420   0.1230540  )
        14           Si  tau(  14) = (   0.6439190   0.4838660   0.8512920  )
        15           Si  tau(  15) = (   0.1755340   0.0160666   0.3402450  )
        16           Si  tau(  16) = (   0.1560800   0.0150607   0.9812590  )
        17           Si  tau(  17) = (   0.4870630   0.2507530   0.3987100  )
        18           Si  tau(  18) = (   0.6390170   0.5862580   0.4008760  )
        19           Si  tau(  19) = (   0.8887550   0.4814760   0.6854750  )
        20           Si  tau(  20) = (   0.7346120   0.0310276   0.0467828  )
        21           Si  tau(  21) = (   0.1484770   0.7279370   0.7799110  )
        22           Si  tau(  22) = (   0.7404000   0.1216070   0.5982930  )
        23           Si  tau(  23) = (   0.4520370   0.4035180   0.5761200  )
        24           Si  tau(  24) = (   0.2244040   0.4030810   0.8817290  )
        25           Si  tau(  25) = (   0.9639490   0.3633020   0.3724740  )
        26           Si  tau(  26) = (   0.4125500   0.2398900   0.0588743  )
        27           Si  tau(  27) = (   0.7031370   0.3257010   0.6664640  )
        28           Si  tau(  28) = (   0.5242000   0.2686150   0.8787790  )
        29           Si  tau(  29) = (   0.4993030   0.1009870   0.5922030  )
        30           Si  tau(  30) = (   0.3489570   0.4807700   0.0722595  )
        31           Si  tau(  31) = (   0.4225940   0.7187480   0.1839200  )
        32           Si  tau(  32) = (   0.6656410   0.7970650   0.2349220  )
        33           Si  tau(  33) = (   0.9318940   0.5616740   0.2205140  )
        34           Si  tau(  34) = (   0.8307350   0.6814970   0.7786810  )
        35           Si  tau(  35) = (   0.9299910   0.9689700   0.8228060  )
        36           Si  tau(  36) = (   0.7444130   0.1915660   0.8760760  )
        37           Si  tau(  37) = (   0.3620550   0.2993890   0.7393060  )
        38           Si  tau(  38) = (   0.9072080   0.4310750   0.9328300  )
        39           Si  tau(  39) = (   0.4402040   0.6572090   0.4160250  )
        40           Si  tau(  40) = (   0.6803370   0.7777300   0.6145310  )
        41           Si  tau(  41) = (   0.5210110   0.4254200   0.2139230  )
        42           Si  tau(  42) = (   0.8602230   0.7216770   0.0022752  )
        43           Si  tau(  43) = (   0.1738820   0.4117230   0.3186900  )
        44           Si  tau(  44) = (   0.9757960   0.5762740   0.4750190  )
        45           Si  tau(  45) = (   0.2267390   0.8988610   0.5174780  )
        46           Si  tau(  46) = (   0.2227030   0.1110550   0.6229290  )
        47           Si  tau(  47) = (   0.4975990   0.0352889   0.8204360  )
        48           Si  tau(  48) = (   0.0061853   0.8477430   0.6342620  )
        49           Si  tau(  49) = (   0.5404450   0.6129300   0.6591950  )
        50           Si  tau(  50) = (   0.9986010   0.1075450   0.3183110  )
        51           Si  tau(  51) = (   0.9368420   0.9279950   0.0584352  )
        52           Si  tau(  52) = (   0.7418270   0.3127840   0.0949378  )
        53           Si  tau(  53) = (   0.7202440   0.5518300   0.1112280  )
        54           Si  tau(  54) = (   0.2387650   0.8794410   0.1510500  )
        55           Si  tau(  55) = (   0.6980160   0.1204260   0.3373180  )
        56           Si  tau(  56) = (   0.5896800   0.8659410   0.0003675  )
        57           Si  tau(  57) = (   0.5124880   0.6695290   0.9447900  )
        58           Si  tau(  58) = (   0.0693621   0.6155590   0.9702860  )
        59           Si  tau(  59) = (   0.5148420   0.9613170   0.3380880  )
        60           Si  tau(  60) = (   0.1423870   0.2591660   0.0540216  )
        61           Si  tau(  61) = (   0.2760210   0.5327340   0.4572860  )
        62           Si  tau(  62) = (   0.0474965   0.2577160   0.6166080  )
        63           Si  tau(  63) = (   0.9694340   0.2381710   0.8278290  )
        64           Si  tau(  64) = (   0.9752750   0.3384770   0.1428330  )

     number of k points=     1
                       cart. coord. in units 2pi/alat
        k(    1) = (   0.0000000   0.0000000   0.0000000), wk =   2.0000000

     Dense  grid:    90126 G-vectors     FFT dimensions: (  72,  72,  72)

     Estimated max dynamical RAM per process >     132.89 MB

     Estimated total dynamical RAM >     509.56 MB

     Initial potential from superposition of free atoms

     starting charge     255.9608, renormalised to     256.0000
     Starting wfcs are  256 randomized atomic wfcs

     total cpu time spent up to now is        5.0 secs

     Self-consistent Calculation

     iteration #  1     ecut=    30.00 Ry     beta= 0.50
     Davidson diagonalization with overlap
     ethr =  1.00E-02,  avg # of iterations =  2.0

     Threshold (ethr) on eigenvalues was too large:
     Diagonalizing with lowered threshold

     Davidson diagonalization with overlap
     ethr =  3.79E-04,  avg # of iterations =  6.0

     total cpu time spent up to now is        5.3 secs

     total energy              =    -501.14506970 Ry
     estimated scf accuracy    <       1.22051695 Ry

     iteration #  2     ecut=    30.00 Ry     beta= 0.50
     Davidson diagonalization with overlap
     ethr =  4.77E-04,  avg # of iterations =  8.0

     total cpu time spent up to now is        5.4 secs

     total energy              =    -500.94223989 Ry
     estimated scf accuracy    <       2.53653842 Ry

     iteration #  3     ecut=    30.00 Ry     beta= 0.50
     Davidson diagonalization with overlap
     ethr =  4.77E-04,  avg # of iterations =  8.0

     total cpu time spent up to now is        5.5 secs

     total energy              =    -501.22951459 Ry
     estimated scf accuracy    <       1.45251559 Ry

     iteration #  4     ecut=    30.00 Ry     beta= 0.50
     Davidson diagonalization with overlap
     ethr =  4.77E-04,  avg # of iterations =  5.0

     total cpu time spent up to now is        5.6 secs

     total energy              =    -501.35072143 Ry
     estimated scf accuracy    <       0.20240921 Ry

     iteration #  5     ecut=    30.00 Ry     beta= 0.50
     Davidson diagonalization with overlap
     ethr =  7.91E-05,  avg # of iterations =  6.0

     total cpu time spent up to now is        5.7 secs

     total energy              =    -501.37803760 Ry
     estimated scf accuracy    <       0.10735069 Ry

     iteration #  6     ecut=    30.00 Ry     beta= 0.50
     Davidson diagonalization with overlap
     ethr =  4.19E-05,  avg # of iterations =  6.0

     total cpu time spent up to now is        5.8 secs

     total energy              =    -501.38526694 Ry
     estimated scf accuracy    <       0.09908881 Ry

     iteration #  7     ecut=    30.00 Ry     beta= 0.50
     Davidson diagonalization with overlap
     ethr =  3.87E-05,  avg # of iterations =  3.0

     total cpu time spent up to now is        5.9 secs

     total energy              =    -501.38915987 Ry
     estimated scf accuracy    <       0.01743759 Ry

     iteration #  8     ecut=    30.00 Ry     beta= 0.50
     Davidson diagonalization with overlap
     ethr =  6.81E-06,  avg # of iterations = 11.0

     total cpu time spent up to now is        6.1 secs

     total energy              =    -501.39379260 Ry
     estimated scf accuracy    <       0.01200842 Ry

     iteration #  9     ecut=    30.00 Ry     beta= 0.50
     Davidson diagonalization with overlap
     ethr =  4.69E-06,  avg # of iterations =  3.0

     total cpu time spent up to now is        6.2 secs

     total energy              =    -501.39335734 Ry
     estimated scf accuracy    <       0.00744639 Ry

     iteration # 10     ecut=    30.00 Ry     beta= 0.50
     Davidson diagonalization with overlap
     ethr =  2.91E-06,  avg # of iterations =  7.0

     total cpu time spent up to now is        6.3 secs

     total energy              =    -501.39377826 Ry
     estimated scf accuracy    <       0.00086981 Ry

     iteration # 11     ecut=    30.00 Ry     beta= 0.50
     Davidson diagonalization with overlap
     ethr =  3.40E-07,  avg # of iterations =  9.0

     total cpu time spent up to now is        6.4 secs

     total energy              =    -501.39406191 Ry
     estimated scf accuracy    <       0.00135941 Ry

     iteration # 12     ecut=    30.00 Ry     beta= 0.50
     Davidson diagonalization with overlap
     ethr =  3.40E-07,  avg # of iterations =  3.0

     total cpu time spent up to now is        6.5 secs

     total energy              =    -501.39402813 Ry
     estimated scf accuracy    <       0.00071387 Ry

     iteration # 13     ecut=    30.00 Ry     beta= 0.50
     Davidson diagonalization with overlap
     ethr =  2.79E-07,  avg # of iterations =  6.0

     total cpu time spent up to now is        6.6 secs

     total energy              =    -501.39404444 Ry
     estimated scf accuracy    <       0.00015355 Ry

     iteration # 14     ecut=    30.00 Ry     beta= 0.50
     Davidson diagonalization with overlap
     ethr =  6.00E-08,  avg # of iterations =  7.0

     total cpu time spent up to now is        6.7 secs

     total energy              =    -501.39408655 Ry
     estimated scf accuracy    <       0.00008140 Ry

     iteration # 15     ecut=    30.00 Ry     beta= 0.50
     Davidson diagonalization with overlap
     ethr =  3.18E-08,  avg # of iterations =  2.0

     total cpu time spent up to now is        6.8 secs

     total energy              =    -501.39408130 Ry
     estimated scf accuracy    <       0.00007569 Ry

     iteration # 16     ecut=    30.00 Ry     beta= 0.50
     Davidson diagonalization with overlap
     ethr =  2.96E-08,  avg # of iterations =  2.0

     total cpu time spent up to now is        6.9 secs

     total energy              =    -501.39408107 Ry
     estimated scf accuracy    <       0.00003112 Ry

     iteration # 17     ecut=    30.00 Ry     beta= 0.50
     Davidson diagonalization with overlap
     ethr =  1.22E-08,  avg # of iterations = 16.0

     total cpu time spent up to now is        7.0 secs

     total energy              =    -501.39408503 Ry
     estimated scf accuracy    <       0.00000975 Ry

     iteration # 18     ecut=    30.00 Ry     beta= 0.50
     Davidson diagonalization with overlap
     ethr =  3.81E-09,  avg # of iterations =  2.0

     total cpu time spent up to now is        7.1 secs

     total energy              =    -501.39408581 Ry
     estimated scf accuracy    <       0.00000883 Ry

     iteration # 19     ecut=    30.00 Ry     beta= 0.50
     Davidson diagonalization with overlap
     ethr =  3.45E-09,  avg # of iterations =  2.0

     total cpu time spent up to now is        7.2 secs

     total energy              =    -501.39408643 Ry
     estimated scf accuracy    <       0.00001143 Ry

     iteration # 20     ecut=    30.00 Ry     beta= 0.50
     Davidson diagonalization with overlap
     ethr =  3.45E-09,  avg # of iterations =  1.0

     total cpu time spent up to now is        7.3 secs

     total energy              =    -501.39408648 Ry
     estimated scf accuracy    <       0.00001401 Ry

     iteration # 21     ecut=    30.00 Ry     beta= 0.50
     Davidson diagonalization with overlap
     ethr =  3.45E-09,  avg # of iterations =  3.0

     total cpu time spent up to now is        7.4 secs

     total energy              =    -501.39408538 Ry
     estimated scf accuracy    <       0.00001597 Ry

     iteration # 22     ecut=    30.00 Ry     beta= 0.50
     Davidson diagonalization with overlap
     ethr =  3.45E-09,  avg # of iterations =  3.0

     total cpu time spent up to now is        7.5 secs

     total energy              =    -501.39408177 Ry
     estimated scf accuracy    <       0.00001081 Ry

     iteration # 23     ecut=    30.00 Ry     beta= 0.50
     Davidson diagonalization with overlap
     ethr =  3.45E-09,  avg # of iterations = 16.0

     total cpu time spent up to now is        7.6 secs

     total energy              =    -501.39407804 Ry
     estimated scf accuracy    <       0.00009361 Ry

     iteration # 24     ecut=    30.00 Ry     beta= 0.50
     Davidson diagonalization with overlap
     ethr =  3.45E-09,  avg # of iterations = 11.0

     total cpu time spent up to now is        7.8 secs

     total energy              =    -501.39408456 Ry
     estimated scf accuracy    <       0.00001363 Ry

     iteration # 25     ecut=    30.00 Ry     beta= 0.50
     Davidson diagonalization with overlap
     ethr =  3.45E-09,  avg # of iterations =  3.0

     total cpu time spent up to now is        7.9 secs

     total energy              =    -501.39408469 Ry
     estimated scf accuracy    <       0.00000660 Ry

     iteration # 26     ecut=    30.00 Ry     beta= 0.50
     Davidson diagonalization with overlap
     ethr =  2.58E-09,  avg # of iterations =  2.0

     total cpu time spent up to now is        8.0 secs

     total energy              =    -501.39408428 Ry
     estimated scf accuracy    <       0.00000388 Ry

     iteration # 27     ecut=    30.00 Ry     beta= 0.50
     Davidson diagonalization with overlap
     ethr =  1.52E-09,  avg # of iterations = 15.0

     total cpu time spent up to now is        8.1 secs

     total energy              =    -501.39408508 Ry
     estimated scf accuracy    <       0.00000110 Ry

     iteration # 28     ecut=    30.00 Ry     beta= 0.50
     Davidson diagonalization with overlap
     ethr =  4.29E-10,  avg # of iterations =  9.0

     total cpu time spent up to now is        8.3 secs

     total energy              =    -501.39408504 Ry
     estimated scf accuracy    <       0.00000163 Ry

     iteration # 29     ecut=    30.00 Ry     beta= 0.50
     Davidson diagonalization with overlap
     ethr =  4.29E-10,  avg # of iterations =  3.0

     total cpu time spent up to now is        8.3 secs

     total energy              =    -501.39408501 Ry
     estimated scf accuracy    <       0.00000121 Ry

     iteration # 30     ecut=    30.00 Ry     beta= 0.50
     Davidson diagonalization with overlap
     ethr =  4.29E-10,  avg # of iterations =  2.0

     total cpu time spent up to now is        8.4 secs

     End of self-consistent calculation

          k = 0.0000 0.0000 0.0000 ( 11324 PWs)   bands (ev):

    -5.3579  -4.5847  -4.3266  -4.1335  -4.1132  -4.0697  -3.7807  -3.4696
    -3.3509  -3.1087  -3.0685  -2.9854  -2.9164  -2.8871  -2.8569  -2.7587
    -2.6714  -2.5409  -2.4420  -2.1016  -2.0089  -1.9434  -1.8057  -1.7183
    -1.5566  -1.5303  -1.3608  -0.9853  -0.7650  -0.6606  -0.4545  -0.3880
    -0.3228  -0.1639  -0.0217   0.0370   0.0707   0.1058   0.2137   0.2793
     0.3553   0.4587   0.5088   0.6063   0.7661   0.7859   0.9229   0.9898
     1.0598   1.1684   1.2378   1.3468   1.3941   1.4936   1.6759   1.7214
     1.7980   1.8872   2.0644   2.0859   2.1508   2.3030   2.4474   2.4873
     2.5540   2.5688   2.6224   2.7228   2.7814   2.8824   2.9329   3.0160
     3.1287   3.1781   3.2677   3.3070   3.4207   3.4609   3.4910   3.6458
     3.7580   4.1704   4.2292   4.4371   4.4830   4.5268   4.5956   4.6633
     4.7699   4.8127   4.8526   4.9371   4.9947   5.0936   5.1247   5.2596
     5.3199   5.3315   5.4352   5.4854   5.5138   5.6543   5.6799   5.7050
     5.7881   5.8114   5.8355   5.9180   5.9641   6.0721   6.0877   6.1212
     6.2119   6.2645   6.3134   6.3704   6.4838   6.5599   6.5908   6.7192
     6.7368   6.7735   6.8152   6.8348   6.9296   6.9708   6.9866   7.0526

     highest occupied level (ev):     7.0526

!    total energy              =    -501.39408433 Ry
     estimated scf accuracy    <       0.00000075 Ry

     The total energy is the sum of the following terms:
     one-electron contribution =     190.09176076 Ry
     hartree contribution      =      23.30098239 Ry
     xc contribution           =    -150.94842061 Ry
     ewald contribution        =    -563.83840687 Ry

     convergence has been achieved in  30 iterations

     Forces acting on atoms (cartesian axes, Ry/au):

     atom    1 type  1   force =     0.01839213    0.01924386   -0.02334276
     atom    2 type  1   force =     0.00162678   -0.02531089   -0.01245292
     atom    3 type  1   force =     0.01488673   -0.00715073    0.02309633
     atom    4 type  1   force =     0.04862328   -0.01958314   -0.04923458
     atom    5 type  1   force =    -0.02680991   -0.00412416   -0.00843853
     atom    6 type  1   force =     0.03595039   -0.01683266   -0.00148543
     atom    7 type  1   force =     0.03407411    0.06967935   -0.01621628
     atom    8 type  1   force =    -0.00557856    0.00376619   -0.00656099
     atom    9 type  1   force =     0.05028072   -0.03829970   -0.02942707
     atom   10 type  1   force =     0.03030037    0.01155553    0.00050025
     atom   11 type  1   force =    -0.00759210   -0.03399912   -0.02592710
     atom   12 type  1   force =     0.00658607   -0.00160144   -0.02571106
     atom   13 type  1   force =     0.01788504   -0.00547788    0.01433678
     atom   14 type  1   force =     0.00970881    0.01211782   -0.02640651
     atom   15 type  1   force =     0.07625097   -0.07454367   -0.01735289
     atom   16 type  1   force =    -0.04860308    0.02246474    0.05039725
     atom   17 type  1   force =     0.00339898    0.01179836   -0.01696604
     atom   18 type  1   force =     0.04841818    0.00143875   -0.02118893
     atom   19 type  1   force =     0.00070696   -0.00759213    0.00279772
     atom   20 type  1   force =     0.01297117    0.01927121   -0.01034713
     atom   21 type  1   force =    -0.01907454   -0.00535315   -0.00068665
     atom   22 type  1   force =    -0.07093797   -0.01155857   -0.00879916
     atom   23 type  1   force =     0.03498673    0.03311044   -0.03702809
     atom   24 type  1   force =    -0.00823967    0.01814956    0.03579888
     atom   25 type  1   force =    -0.01922126   -0.00248198    0.01110107
     atom   26 type  1   force =    -0.02914822   -0.02318655    0.06397162
     atom   27 type  1   force =     0.00191180    0.05653190    0.00465785
     atom   28 type  1   force =     0.05950521   -0.00425508   -0.00569260
     atom   29 type  1   force =     0.00476122    0.01099107   -0.00999229
     atom   30 type  1   force =    -0.01889036    0.02233908    0.00167017
     atom   31 type  1   force =    -0.00218836    0.01697881   -0.00622916
     atom   32 type  1   force =    -0.03883983    0.00526171   -0.00353989
     atom   33 type  1   force =    -0.00798994   -0.02151180    0.00823300
     atom   34 type  1   force =    -0.02266462   -0.01198383   -0.00268196
     atom   35 type  1   force =     0.01333517    0.00529327    0.00145245
     atom   36 type  1   force =    -0.00997137   -0.00377053    0.03002095
     atom   37 type  1   force =    -0.04068221   -0.04720633   -0.01168642
     atom   38 type  1   force =    -0.00163950    0.01378774    0.00655394
     atom   39 type  1   force =     0.00289180    0.06147639   -0.02278455
     atom   40 type  1   force =     0.00304637    0.00485765    0.03295034
     atom   41 type  1   force =     0.03147717   -0.02671105    0.01047179
     atom   42 type  1   force =     0.01859695   -0.00648108   -0.02002462
     atom   43 type  1   force =     0.00805385   -0.04156097   -0.05816295
     atom   44 type  1   force =    -0.01274169    0.01359664   -0.00488975
     atom   45 type  1   force =    -0.08237813   -0.01584791   -0.00965904
     atom   46 type  1   force =     0.03749502    0.02965328    0.02307255
     atom   47 type  1   force =    -0.01736498    0.00338597    0.00202455
     atom   48 type  1   force =     0.03298465    0.00280289    0.00909032
     atom   49 type  1   force =    -0.00997351   -0.03234767    0.01517338
     atom   50 type  1   force =    -0.10632317    0.03914021    0.03290396
     atom   51 type  1   force =     0.00853698   -0.01103223    0.00238510
     atom   52 type  1   force =     0.01335609   -0.00387490   -0.00571058
     atom   53 type  1   force =     0.00851960    0.01642444    0.01570442
     atom   54 type  1   force =     0.00692730    0.00324969    0.01164910
     atom   55 type  1   force =    -0.03595288    0.01827480    0.01297830
     atom   56 type  1   force =     0.01139722    0.02469891    0.01123029
     atom   57 type  1   force =    -0.02747355   -0.02139301    0.02575742
     atom   58 type  1   force =    -0.03388031   -0.00328256   -0.02972903
     atom   59 type  1   force =     0.02930442   -0.00279362   -0.01136220
     atom   60 type  1   force =     0.09461335   -0.05818292   -0.06287498
     atom   61 type  1   force =    -0.01541228   -0.01865578    0.07955038
     atom   62 type  1   force =    -0.00218779    0.01244324    0.01757581
     atom   63 type  1   force =    -0.00695615   -0.01572633    0.01583352
     atom   64 type  1   force =    -0.10304561    0.03992987    0.02965265

     Total force =     0.409554     Total SCF correction =     0.001734


     Computing stress (Cartesian axis) and pressure

          total   stress  (Ry/bohr**3)                   (kbar)     P=      -28.76
  -0.00002011  -0.00002766   0.00001755           -2.96       -4.07        2.58
  -0.00002766  -0.00031317   0.00000137           -4.07      -46.07        0.20
   0.00001755   0.00000137  -0.00025317            2.58        0.20      -37.24

 
     init_run     :      1.34s CPU      4.93s WALL (       1 calls)
     electrons    :      3.20s CPU      3.42s WALL (       1 calls)
     forces       :      0.04s CPU      0.04s WALL (       1 calls)
     stress       :      0.13s CPU      0.14s WALL (       1 calls)

     Called by init_run:
     wfcinit      :      0.78s CPU      4.20s WALL (       1 calls)
                                        4.20s GPU  (       1 calls)
     potinit      :      0.06s CPU      0.15s WALL (       1 calls)
     hinit0       :      0.47s CPU      0.50s WALL (       1 calls)

     Called by electrons:
     c_bands      :      1.96s CPU      2.04s WALL (      31 calls)
     sum_band     :      0.57s CPU      0.64s WALL (      31 calls)
     v_of_rho     :      0.28s CPU      0.40s WALL (      31 calls)
     mix_rho      :      0.32s CPU      0.34s WALL (      31 calls)

     Called by c_bands:
     init_us_2    :      0.11s CPU      0.11s WALL (      63 calls)
     init_us_2:gp :      0.11s CPU      0.11s WALL (      63 calls)
     regterg      :      1.70s CPU      1.77s WALL (      31 calls)

     Called by *egterg:
     rdiaghg      :      0.75s CPU      1.46s WALL (     212 calls)
                                        1.43s GPU  (     212 calls)
     h_psi        :      1.44s CPU      4.19s WALL (     214 calls)
                                        4.19s GPU  (     214 calls)
     g_psi        :      0.00s CPU      0.01s WALL (     182 calls)
                                        0.00s GPU  (     182 calls)

     Called by h_psi:
     h_psi:calbec :      0.78s CPU      3.45s WALL (     214 calls)
                                        3.44s GPU  (     214 calls)
     vloc_psi     :      0.53s CPU      0.61s WALL (     214 calls)
                                        0.61s GPU  (     214 calls)
     add_vuspsi   :      0.09s CPU      0.12s WALL (     214 calls)
                                        0.12s GPU  (     214 calls)

     General routines
     calbec       :      0.78s CPU      3.45s WALL (     219 calls)
     fft          :      0.73s CPU      0.87s WALL (     255 calls)
                                        0.14s GPU  (     161 calls)
     ffts         :      0.08s CPU      0.09s WALL (      31 calls)
     fftw         :      0.63s CPU      0.81s WALL (    2858 calls)
                                        0.70s GPU  (    2858 calls)
 
     Parallel routines
 
     PWSCF        :      4.76s CPU      8.61s WALL

 
   This run was terminated on:  15:39:25   9May2023            

=------------------------------------------------------------------------------=
   JOB DONE.
=------------------------------------------------------------------------------=
