An instance of this daemon is already running
An instance of this daemon is already running

     Program PWSCF v.7.1 starts on  9May2023 at 15:40:12 

     This program is part of the open-source Quantum ESPRESSO suite
     for quantum simulation of materials; please cite
         "P. Giannozzi et al., J. Phys.:Condens. Matter 21 395502 (2009);
         "P. Giannozzi et al., J. Phys.:Condens. Matter 29 465901 (2017);
         "P. Giannozzi et al., J. Chem. Phys. 152 154105 (2020);
          URL http://www.quantum-espresso.org", 
     in publications or presentations arising from this work. More details at
     http://www.quantum-espresso.org/quote

     Parallel version (MPI & OpenMP), running on       4 processor cores
     Number of MPI processes:                 4
     Threads/MPI process:                     1

     MPI processes distributed on     1 nodes
     751750 MiB available memory on the printing compute node when the environment starts
 
     Reading input from pw-si-62.in
Warning: card &CELL ignored
Warning: card / ignored

     Current dimensions of program PWSCF are:
     Max number of different atomic species (ntypx) = 10
     Max number of k-points (npk) =  40000
     Max angular momentum in pseudopotentials (lmaxx) =  4

     IMPORTANT: XC functional enforced from input :
     Exchange-correlation= PBE
                           (   1   4   3   4   0   0   0)
     Any further DFT definition will be discarded
     Please, verify this is what you really want


     gamma-point specific algorithms are used
 
     K-points division:     npool     =       2
     R & G space division:  proc/nbgrp/npool/nimage =       2
     Subspace diagonalization in iterative solution of the eigenvalue problem:
     a serial algorithm will be used

     Message from routine divide_et_impera:
     suboptimal parallelization: some nodes have no k-points
 
     Parallelization info
     --------------------
     sticks:   dense  smooth     PW     G-vecs:    dense   smooth      PW
     Min        1879    1879    497                86959    86959   11851
     Max        1882    1882    500                86966    86966   11852
     Sum        3761    3761    997               173925   173925   23703
 
     Using Slab Decomposition
 


     bravais-lattice index     =            0
     lattice parameter (alat)  =      19.8604  a.u.
     unit-cell volume          =    7833.6509 (a.u.)^3
     number of atoms/cell      =           64
     number of atomic types    =            1
     number of electrons       =       256.00
     number of Kohn-Sham states=          128
     kinetic-energy cutoff     =      30.0000  Ry
     charge density cutoff     =     120.0000  Ry
     scf convergence threshold =      1.0E-06
     mixing beta               =       0.5000
     number of iterations used =            8  plain     mixing
     Exchange-correlation= PBE
                           (   1   4   3   4   0   0   0)

     GPU acceleration is ACTIVE.
     GPU-aware MPI enabled

     Message from routine print_cuda_info:
     High GPU oversubscription detected. Are you sure this is what you want?

     celldm(1)=  19.860404  celldm(2)=   0.000000  celldm(3)=   0.000000
     celldm(4)=   0.000000  celldm(5)=   0.000000  celldm(6)=   0.000000

     crystal axes: (cart. coord. in units of alat)
               a(1) = (   1.000000   0.000000   0.000000 )  
               a(2) = (   0.000000   1.000000   0.000000 )  
               a(3) = (   0.000000   0.000000   1.000000 )  

     reciprocal axes: (cart. coord. in units 2 pi/alat)
               b(1) = (  1.000000  0.000000  0.000000 )  
               b(2) = (  0.000000  1.000000  0.000000 )  
               b(3) = (  0.000000  0.000000  1.000000 )  


     PseudoPot. # 1 for Si read from file:
     /home/ppiaggi/pseudos/Si_ONCV_PBE_sr.upf
     MD5 check sum: 8553c464762ac42b85b1eed164b4d029
     Pseudo is Norm-conserving, Zval =  4.0
     Generated using ONCVPSP code by D. R. Hamann
     Using radial grid of 1510 points,  4 beta functions with: 
                l(1) =   0
                l(2) =   0
                l(3) =   1
                l(4) =   1

     atomic species   valence    mass     pseudopotential
        Si             4.00    28.08500     Si( 1.00)

     No symmetry found



   Cartesian axes

     site n.     atom                  positions (alat units)
         1           Si  tau(   1) = (   0.6125710   0.5627630   0.0950607  )
         2           Si  tau(   2) = (   0.5115890   0.5494200   0.4692580  )
         3           Si  tau(   3) = (   0.8233250   0.7243740   0.5404390  )
         4           Si  tau(   4) = (   0.5407650   0.1090520   0.5548150  )
         5           Si  tau(   5) = (   0.8312880   0.7217030   0.0427908  )
         6           Si  tau(   6) = (   0.0397094   0.6275520   0.5883960  )
         7           Si  tau(   7) = (   0.3671070   0.2990540   0.0140794  )
         8           Si  tau(   8) = (   0.8127160   0.9742020   0.3414520  )
         9           Si  tau(   9) = (   0.3520000   0.7610930   0.2903820  )
        10           Si  tau(  10) = (   0.8945610   0.1973200   0.3091500  )
        11           Si  tau(  11) = (   0.4326510   0.7877790   0.0362958  )
        12           Si  tau(  12) = (   0.8473450   0.5241280   0.8437530  )
        13           Si  tau(  13) = (   0.8136650   0.9236530   0.6415620  )
        14           Si  tau(  14) = (   0.6395610   0.6605370   0.8556900  )
        15           Si  tau(  15) = (   0.0770884   0.3977610   0.6142110  )
        16           Si  tau(  16) = (   0.6496920   0.6435330   0.6308850  )
        17           Si  tau(  17) = (   0.8538770   0.7374460   0.2674470  )
        18           Si  tau(  18) = (   0.7000240   0.1493220   0.7021460  )
        19           Si  tau(  19) = (   0.0895720   0.7998080   0.3852670  )
        20           Si  tau(  20) = (   0.1852310   0.6189150   0.9284940  )
        21           Si  tau(  21) = (   0.4105010   0.3695130   0.3084410  )
        22           Si  tau(  22) = (   0.0619390   0.3520250   0.8874720  )
        23           Si  tau(  23) = (   0.9065590   0.8819390   0.8706520  )
        24           Si  tau(  24) = (   0.1724530   0.8969330   0.8848770  )
        25           Si  tau(  25) = (   0.1726670   0.5863030   0.1568130  )
        26           Si  tau(  26) = (   0.4002510   0.5004460   0.1060630  )
        27           Si  tau(  27) = (   0.1410550   0.2332280   0.0977783  )
        28           Si  tau(  28) = (   0.0964270   0.7997800   0.1409350  )
        29           Si  tau(  29) = (   0.6450020   0.8520910   0.0611469  )
        30           Si  tau(  30) = (   0.5056050   0.1509510   0.2462120  )
        31           Si  tau(  31) = (   0.4671460   0.8341060   0.6409970  )
        32           Si  tau(  32) = (   0.2540650   0.2315230   0.7950540  )
        33           Si  tau(  33) = (   0.5827000   0.1565700   0.9209490  )
        34           Si  tau(  34) = (   0.0198499   0.4090820   0.2217780  )
        35           Si  tau(  35) = (   0.9279940   0.0035952   0.0959732  )
        36           Si  tau(  36) = (   0.9991700   0.6756390   0.8100600  )
        37           Si  tau(  37) = (   0.5084930   0.3566530   0.5839030  )
        38           Si  tau(  38) = (   0.0985656   0.1354520   0.4086190  )
        39           Si  tau(  39) = (   0.3216610   0.0379856   0.5632610  )
        40           Si  tau(  40) = (   0.3947050   0.4613140   0.8107310  )
        41           Si  tau(  41) = (   0.9120880   0.2154860   0.7850000  )
        42           Si  tau(  42) = (   0.6243860   0.9138570   0.8093130  )
        43           Si  tau(  43) = (   0.8868060   0.3296320   0.5311450  )
        44           Si  tau(  44) = (   0.5770990   0.7128280   0.2956430  )
        45           Si  tau(  45) = (   0.2843330   0.6296110   0.4719880  )
        46           Si  tau(  46) = (   0.1714970   0.0232220   0.1915240  )
        47           Si  tau(  47) = (   0.6807380   0.0850974   0.1197490  )
        48           Si  tau(  48) = (   0.6120660   0.9126740   0.4430810  )
        49           Si  tau(  49) = (   0.8665540   0.5121570   0.3744890  )
        50           Si  tau(  50) = (   0.8140910   0.4486950   0.0580362  )
        51           Si  tau(  51) = (   0.3766490   0.0125315   0.0644908  )
        52           Si  tau(  52) = (   0.0601879   0.0509973   0.7255880  )
        53           Si  tau(  53) = (   0.4017270   0.9750430   0.3493080  )
        54           Si  tau(  54) = (   0.6669890   0.4515480   0.3055270  )
        55           Si  tau(  55) = (   0.2085540   0.8061590   0.6448980  )
        56           Si  tau(  56) = (   0.3746610   0.7040940   0.8215070  )
        57           Si  tau(  57) = (   0.6724080   0.2410420   0.3923790  )
        58           Si  tau(  58) = (   0.2237470   0.4390710   0.3791760  )
        59           Si  tau(  59) = (   0.5978830   0.3732190   0.8740410  )
        60           Si  tau(  60) = (   0.3822850   0.0368774   0.8164370  )
        61           Si  tau(  61) = (   0.2807050   0.2694000   0.5804380  )
        62           Si  tau(  62) = (   0.0193943   0.9685120   0.5207700  )
        63           Si  tau(  63) = (   0.7236470   0.4165500   0.6892900  )
        64           Si  tau(  64) = (   0.8525830   0.2360710   0.0107879  )

     number of k points=     1
                       cart. coord. in units 2pi/alat
        k(    1) = (   0.0000000   0.0000000   0.0000000), wk =   2.0000000

     Dense  grid:    86963 G-vectors     FFT dimensions: (  72,  72,  72)

     Estimated max dynamical RAM per process >     128.66 MB

     Estimated total dynamical RAM >     493.43 MB

     Initial potential from superposition of free atoms

     starting charge     255.9608, renormalised to     256.0000
     Starting wfcs are  256 randomized atomic wfcs

     total cpu time spent up to now is        4.9 secs

     Self-consistent Calculation

     iteration #  1     ecut=    30.00 Ry     beta= 0.50
     Davidson diagonalization with overlap
     ethr =  1.00E-02,  avg # of iterations =  2.0

     Threshold (ethr) on eigenvalues was too large:
     Diagonalizing with lowered threshold

     Davidson diagonalization with overlap
     ethr =  4.07E-04,  avg # of iterations =  7.0

     total cpu time spent up to now is        5.2 secs

     total energy              =    -501.07741904 Ry
     estimated scf accuracy    <       1.30808488 Ry

     iteration #  2     ecut=    30.00 Ry     beta= 0.50
     Davidson diagonalization with overlap
     ethr =  5.11E-04,  avg # of iterations = 12.0

     total cpu time spent up to now is        5.4 secs

     total energy              =    -500.25846499 Ry
     estimated scf accuracy    <      12.42612424 Ry

     iteration #  3     ecut=    30.00 Ry     beta= 0.50
     Davidson diagonalization with overlap
     ethr =  5.11E-04,  avg # of iterations = 12.0

     total cpu time spent up to now is        5.5 secs

     total energy              =    -501.31543054 Ry
     estimated scf accuracy    <       1.04518936 Ry

     iteration #  4     ecut=    30.00 Ry     beta= 0.50
     Davidson diagonalization with overlap
     ethr =  4.08E-04,  avg # of iterations =  5.0

     total cpu time spent up to now is        5.6 secs

     total energy              =    -501.39928786 Ry
     estimated scf accuracy    <       0.33182576 Ry

     iteration #  5     ecut=    30.00 Ry     beta= 0.50
     Davidson diagonalization with overlap
     ethr =  1.30E-04,  avg # of iterations =  5.0

     total cpu time spent up to now is        5.7 secs

     total energy              =    -501.42214641 Ry
     estimated scf accuracy    <       0.12838945 Ry

     iteration #  6     ecut=    30.00 Ry     beta= 0.50
     Davidson diagonalization with overlap
     ethr =  5.02E-05,  avg # of iterations =  8.0

     total cpu time spent up to now is        5.9 secs

     total energy              =    -501.44091708 Ry
     estimated scf accuracy    <       0.07235087 Ry

     iteration #  7     ecut=    30.00 Ry     beta= 0.50
     Davidson diagonalization with overlap
     ethr =  2.83E-05,  avg # of iterations =  6.0

     total cpu time spent up to now is        6.0 secs

     total energy              =    -501.44641727 Ry
     estimated scf accuracy    <       0.00960330 Ry

     iteration #  8     ecut=    30.00 Ry     beta= 0.50
     Davidson diagonalization with overlap
     c_bands:  1 eigenvalues not converged
     ethr =  3.75E-06,  avg # of iterations = 20.0

     total cpu time spent up to now is        6.1 secs

     total energy              =    -501.44873708 Ry
     estimated scf accuracy    <       0.01371627 Ry

     iteration #  9     ecut=    30.00 Ry     beta= 0.50
     Davidson diagonalization with overlap
     ethr =  3.75E-06,  avg # of iterations = 10.0

     total cpu time spent up to now is        6.3 secs

     total energy              =    -501.44900802 Ry
     estimated scf accuracy    <       0.00561270 Ry

     iteration # 10     ecut=    30.00 Ry     beta= 0.50
     Davidson diagonalization with overlap
     ethr =  2.19E-06,  avg # of iterations =  7.0

     total cpu time spent up to now is        6.4 secs

     total energy              =    -501.44885102 Ry
     estimated scf accuracy    <       0.00208082 Ry

     iteration # 11     ecut=    30.00 Ry     beta= 0.50
     Davidson diagonalization with overlap
     c_bands:  1 eigenvalues not converged
     ethr =  8.13E-07,  avg # of iterations = 20.0

     total cpu time spent up to now is        6.6 secs

     total energy              =    -501.44938497 Ry
     estimated scf accuracy    <       0.00259901 Ry

     iteration # 12     ecut=    30.00 Ry     beta= 0.50
     Davidson diagonalization with overlap
     ethr =  8.13E-07,  avg # of iterations =  8.0

     total cpu time spent up to now is        6.7 secs

     total energy              =    -501.44931027 Ry
     estimated scf accuracy    <       0.00162485 Ry

     iteration # 13     ecut=    30.00 Ry     beta= 0.50
     Davidson diagonalization with overlap
     ethr =  6.35E-07,  avg # of iterations =  3.0

     total cpu time spent up to now is        6.8 secs

     total energy              =    -501.44927863 Ry
     estimated scf accuracy    <       0.00067522 Ry

     iteration # 14     ecut=    30.00 Ry     beta= 0.50
     Davidson diagonalization with overlap
     ethr =  2.64E-07,  avg # of iterations = 20.0

     total cpu time spent up to now is        7.0 secs

     total energy              =    -501.44942989 Ry
     estimated scf accuracy    <       0.00087982 Ry

     iteration # 15     ecut=    30.00 Ry     beta= 0.50
     Davidson diagonalization with overlap
     ethr =  2.64E-07,  avg # of iterations =  2.0

     total cpu time spent up to now is        7.1 secs

     total energy              =    -501.44937313 Ry
     estimated scf accuracy    <       0.00063300 Ry

     iteration # 16     ecut=    30.00 Ry     beta= 0.50
     Davidson diagonalization with overlap
     ethr =  2.47E-07,  avg # of iterations =  3.0

     total cpu time spent up to now is        7.1 secs

     total energy              =    -501.44933340 Ry
     estimated scf accuracy    <       0.00033173 Ry

     iteration # 17     ecut=    30.00 Ry     beta= 0.50
     Davidson diagonalization with overlap
     c_bands:  1 eigenvalues not converged
     ethr =  1.30E-07,  avg # of iterations = 20.0

     total cpu time spent up to now is        7.3 secs

     total energy              =    -501.44949938 Ry
     estimated scf accuracy    <       0.00138569 Ry

     iteration # 18     ecut=    30.00 Ry     beta= 0.50
     Davidson diagonalization with overlap
     ethr =  1.30E-07,  avg # of iterations =  7.0

     total cpu time spent up to now is        7.4 secs

     total energy              =    -501.44940642 Ry
     estimated scf accuracy    <       0.00128590 Ry

     iteration # 19     ecut=    30.00 Ry     beta= 0.50
     Davidson diagonalization with overlap
     c_bands:  1 eigenvalues not converged
     ethr =  1.30E-07,  avg # of iterations = 20.0

     total cpu time spent up to now is        7.6 secs

     total energy              =    -501.44943989 Ry
     estimated scf accuracy    <       0.00014664 Ry

     iteration # 20     ecut=    30.00 Ry     beta= 0.50
     Davidson diagonalization with overlap
     ethr =  5.73E-08,  avg # of iterations = 12.0

     total cpu time spent up to now is        7.7 secs

     total energy              =    -501.44944261 Ry
     estimated scf accuracy    <       0.00008597 Ry

     iteration # 21     ecut=    30.00 Ry     beta= 0.50
     Davidson diagonalization with overlap
     ethr =  3.36E-08,  avg # of iterations =  2.0

     total cpu time spent up to now is        7.8 secs

     total energy              =    -501.44944165 Ry
     estimated scf accuracy    <       0.00006145 Ry

     iteration # 22     ecut=    30.00 Ry     beta= 0.50
     Davidson diagonalization with overlap
     c_bands:  1 eigenvalues not converged
     ethr =  2.40E-08,  avg # of iterations = 20.0

     total cpu time spent up to now is        8.0 secs

     total energy              =    -501.44944843 Ry
     estimated scf accuracy    <       0.00001241 Ry

     iteration # 23     ecut=    30.00 Ry     beta= 0.50
     Davidson diagonalization with overlap
     ethr =  4.85E-09,  avg # of iterations = 17.0

     total cpu time spent up to now is        8.1 secs

     total energy              =    -501.44944977 Ry
     estimated scf accuracy    <       0.00000601 Ry

     iteration # 24     ecut=    30.00 Ry     beta= 0.50
     Davidson diagonalization with overlap
     c_bands:  1 eigenvalues not converged
     ethr =  2.35E-09,  avg # of iterations = 20.0

     total cpu time spent up to now is        8.3 secs

     total energy              =    -501.44945023 Ry
     estimated scf accuracy    <       0.00000140 Ry

     iteration # 25     ecut=    30.00 Ry     beta= 0.50
     Davidson diagonalization with overlap
     ethr =  5.47E-10,  avg # of iterations = 16.0

     total cpu time spent up to now is        8.5 secs

     total energy              =    -501.44945043 Ry
     estimated scf accuracy    <       0.00000146 Ry

     iteration # 26     ecut=    30.00 Ry     beta= 0.50
     Davidson diagonalization with overlap
     ethr =  5.47E-10,  avg # of iterations =  6.0

     total cpu time spent up to now is        8.6 secs

     End of self-consistent calculation

          k = 0.0000 0.0000 0.0000 ( 10912 PWs)   bands (ev):

    -5.1036  -4.0415  -3.9551  -3.9452  -3.8486  -3.7259  -3.6925  -2.9242
    -2.9032  -2.8346  -2.7434  -2.7271  -2.6652  -2.5951  -2.5038  -2.4802
    -2.4461  -2.4058  -2.2531  -1.7077  -1.6106  -1.5245  -1.3649  -1.3468
    -1.2858  -1.1399  -1.0870  -0.5646  -0.3938  -0.2795  -0.1539  -0.0765
     0.0760   0.2024   0.3623   0.4011   0.5806   0.6095   0.6648   0.7117
     0.7891   0.8399   0.9990   1.0386   1.1659   1.2809   1.2908   1.3486
     1.4514   1.4583   1.5599   1.7131   1.7540   1.7994   1.9202   2.0528
     2.1307   2.2052   2.2830   2.3288   2.4493   2.5376   2.6806   2.8342
     2.8887   2.9430   3.0095   3.1067   3.1946   3.2261   3.2601   3.3872
     3.4271   3.4606   3.4797   3.5785   3.6891   3.7809   3.9091   3.9895
     4.0794   4.5173   4.7250   4.8295   4.8879   4.9468   5.0516   5.1329
     5.1817   5.2120   5.3205   5.3998   5.4392   5.5285   5.6019   5.6616
     5.7820   5.7923   5.9371   5.9583   5.9898   6.0520   6.0802   6.1300
     6.2283   6.2306   6.3167   6.3623   6.4318   6.4534   6.5189   6.6326
     6.6553   6.7034   6.7665   6.8562   6.9066   6.9572   6.9923   7.0545
     7.1659   7.2484   7.2617   7.2867   7.3380   7.3664   7.4901   7.5181

     highest occupied level (ev):     7.5181

!    total energy              =    -501.44945023 Ry
     estimated scf accuracy    <       0.00000043 Ry

     The total energy is the sum of the following terms:
     one-electron contribution =     205.67913053 Ry
     hartree contribution      =      19.50870820 Ry
     xc contribution           =    -151.62055295 Ry
     ewald contribution        =    -575.01673601 Ry

     convergence has been achieved in  26 iterations

     Forces acting on atoms (cartesian axes, Ry/au):

     atom    1 type  1   force =     0.03285153    0.00350106    0.02074609
     atom    2 type  1   force =    -0.00075857    0.00946680   -0.01830891
     atom    3 type  1   force =     0.04801646   -0.00772986   -0.04763873
     atom    4 type  1   force =    -0.01470030    0.02217124   -0.02466082
     atom    5 type  1   force =    -0.01492614   -0.00447080   -0.02611125
     atom    6 type  1   force =    -0.00320758    0.00222321   -0.00522635
     atom    7 type  1   force =    -0.01681739   -0.04242111   -0.02026034
     atom    8 type  1   force =     0.01556692   -0.00829560   -0.02426829
     atom    9 type  1   force =    -0.01327749   -0.00936541   -0.02273372
     atom   10 type  1   force =    -0.01943020    0.00311385    0.00595062
     atom   11 type  1   force =    -0.01441715    0.00371959    0.01701666
     atom   12 type  1   force =    -0.03078485   -0.01748748    0.02477425
     atom   13 type  1   force =     0.01313542    0.02704475    0.01787612
     atom   14 type  1   force =     0.01211032   -0.02279938    0.00043188
     atom   15 type  1   force =     0.03494279    0.02910548    0.01671249
     atom   16 type  1   force =    -0.04808609   -0.04545791    0.02000305
     atom   17 type  1   force =     0.03214846    0.02261798    0.04073170
     atom   18 type  1   force =     0.04093963   -0.00502717    0.05096168
     atom   19 type  1   force =    -0.00550280   -0.01899749    0.00701764
     atom   20 type  1   force =    -0.00704751   -0.00311381   -0.00544868
     atom   21 type  1   force =     0.06190173   -0.01223318   -0.03734029
     atom   22 type  1   force =     0.02918891    0.01317160   -0.00119743
     atom   23 type  1   force =     0.01885470   -0.01134375    0.00118568
     atom   24 type  1   force =    -0.01781974    0.00161699   -0.03402215
     atom   25 type  1   force =     0.03180061   -0.01814438   -0.01596435
     atom   26 type  1   force =    -0.03350490    0.00717220    0.01720777
     atom   27 type  1   force =    -0.00606019    0.04556608   -0.01796021
     atom   28 type  1   force =    -0.01609869    0.01783961    0.00298240
     atom   29 type  1   force =     0.00389356    0.02929446   -0.01786612
     atom   30 type  1   force =    -0.02315602    0.01412360   -0.00295447
     atom   31 type  1   force =    -0.00642106   -0.00439777    0.03953853
     atom   32 type  1   force =    -0.01500567   -0.01141186    0.03429380
     atom   33 type  1   force =    -0.01930463   -0.01741796   -0.01512012
     atom   34 type  1   force =     0.01861025    0.00328629   -0.00771409
     atom   35 type  1   force =     0.00230355    0.01407767   -0.00389518
     atom   36 type  1   force =     0.02973478    0.03388247   -0.02062955
     atom   37 type  1   force =     0.00537385   -0.01330021    0.01220872
     atom   38 type  1   force =     0.03722210    0.03083258   -0.04565318
     atom   39 type  1   force =    -0.00338782   -0.00181472   -0.00656073
     atom   40 type  1   force =     0.01365836   -0.00657761   -0.00685547
     atom   41 type  1   force =    -0.03554695   -0.01386585   -0.02234085
     atom   42 type  1   force =    -0.00525524   -0.00038024    0.02289655
     atom   43 type  1   force =    -0.05750177    0.00166896   -0.00900406
     atom   44 type  1   force =     0.01194557   -0.01314726    0.00226981
     atom   45 type  1   force =     0.00420815    0.03533215   -0.00195156
     atom   46 type  1   force =    -0.00286806    0.01329812    0.02601814
     atom   47 type  1   force =     0.00552169   -0.01689731   -0.01263340
     atom   48 type  1   force =    -0.00623598   -0.01658884   -0.01939648
     atom   49 type  1   force =     0.02920842    0.01605102    0.01973787
     atom   50 type  1   force =     0.00369970    0.01380484    0.00239361
     atom   51 type  1   force =    -0.01798319    0.00770424    0.00053733
     atom   52 type  1   force =     0.02373690   -0.00505947    0.03312797
     atom   53 type  1   force =    -0.00014531    0.00791891    0.02755878
     atom   54 type  1   force =    -0.03923989    0.00359096   -0.01426163
     atom   55 type  1   force =     0.01376708    0.01262632    0.01057742
     atom   56 type  1   force =     0.00903055   -0.01746724    0.01866124
     atom   57 type  1   force =     0.01052502    0.00415010    0.00664060
     atom   58 type  1   force =    -0.08538392   -0.01151657    0.01647553
     atom   59 type  1   force =     0.00528238    0.01233905    0.00737441
     atom   60 type  1   force =     0.00122440    0.00896142    0.02466504
     atom   61 type  1   force =    -0.00767747   -0.00392433   -0.03697285
     atom   62 type  1   force =    -0.02324563   -0.03921196    0.00743823
     atom   63 type  1   force =     0.00988863    0.01021219   -0.02956126
     atom   64 type  1   force =     0.00050576   -0.06161932    0.01850090

     Total force =     0.310149     Total SCF correction =     0.001186


     Computing stress (Cartesian axis) and pressure

          total   stress  (Ry/bohr**3)                   (kbar)     P=      -20.12
  -0.00008991   0.00007095  -0.00001285          -13.23       10.44       -1.89
   0.00007095  -0.00009749  -0.00000263           10.44      -14.34       -0.39
  -0.00001285  -0.00000263  -0.00022295           -1.89       -0.39      -32.80

 
     init_run     :      1.11s CPU      4.88s WALL (       1 calls)
     electrons    :      3.42s CPU      3.62s WALL (       1 calls)
     forces       :      0.03s CPU      0.04s WALL (       1 calls)
     stress       :      0.13s CPU      0.13s WALL (       1 calls)

     Called by init_run:
     wfcinit      :      0.57s CPU      4.16s WALL (       1 calls)
                                        4.16s GPU  (       1 calls)
     potinit      :      0.06s CPU      0.14s WALL (       1 calls)
     hinit0       :      0.47s CPU      0.49s WALL (       1 calls)

     Called by electrons:
     c_bands      :      2.31s CPU      2.42s WALL (      27 calls)
     sum_band     :      0.52s CPU      0.58s WALL (      27 calls)
     v_of_rho     :      0.25s CPU      0.35s WALL (      27 calls)
     mix_rho      :      0.27s CPU      0.29s WALL (      27 calls)

     Called by c_bands:
     init_us_2    :      0.09s CPU      0.10s WALL (      55 calls)
     init_us_2:gp :      0.09s CPU      0.10s WALL (      55 calls)
     regterg      :      2.08s CPU      2.18s WALL (      27 calls)

     Called by *egterg:
     rdiaghg      :      1.07s CPU      1.86s WALL (     316 calls)
                                        1.81s GPU  (     316 calls)
     h_psi        :      1.26s CPU      4.14s WALL (     318 calls)
                                        4.14s GPU  (     318 calls)
     g_psi        :      0.00s CPU      0.01s WALL (     290 calls)
                                        0.01s GPU  (     290 calls)

     Called by h_psi:
     h_psi:calbec :      0.58s CPU      3.37s WALL (     318 calls)
                                        3.37s GPU  (     318 calls)
     vloc_psi     :      0.49s CPU      0.57s WALL (     318 calls)
                                        0.56s GPU  (     318 calls)
     add_vuspsi   :      0.15s CPU      0.18s WALL (     318 calls)
                                        0.18s GPU  (     318 calls)

     General routines
     calbec       :      0.58s CPU      3.37s WALL (     323 calls)
     fft          :      0.69s CPU      0.82s WALL (     223 calls)
                                        0.14s GPU  (     141 calls)
     ffts         :      0.07s CPU      0.08s WALL (      27 calls)
     fftw         :      0.58s CPU      0.76s WALL (    2756 calls)
                                        0.66s GPU  (    2756 calls)
 
     Parallel routines
 
     PWSCF        :      4.74s CPU      8.76s WALL

 
   This run was terminated on:  15:40:20   9May2023            

=------------------------------------------------------------------------------=
   JOB DONE.
=------------------------------------------------------------------------------=
