An instance of this daemon is already running

     Program PWSCF v.7.1 starts on  9May2023 at 15:47:41 

     This program is part of the open-source Quantum ESPRESSO suite
     for quantum simulation of materials; please cite
         "P. Giannozzi et al., J. Phys.:Condens. Matter 21 395502 (2009);
         "P. Giannozzi et al., J. Phys.:Condens. Matter 29 465901 (2017);
         "P. Giannozzi et al., J. Chem. Phys. 152 154105 (2020);
          URL http://www.quantum-espresso.org", 
     in publications or presentations arising from this work. More details at
     http://www.quantum-espresso.org/quote

     Parallel version (MPI & OpenMP), running on       4 processor cores
     Number of MPI processes:                 4
     Threads/MPI process:                     1

     MPI processes distributed on     1 nodes
     751733 MiB available memory on the printing compute node when the environment starts
 
     Reading input from pw-si-97.in
Warning: card &CELL ignored
Warning: card / ignored

     Current dimensions of program PWSCF are:
     Max number of different atomic species (ntypx) = 10
     Max number of k-points (npk) =  40000
     Max angular momentum in pseudopotentials (lmaxx) =  4

     IMPORTANT: XC functional enforced from input :
     Exchange-correlation= PBE
                           (   1   4   3   4   0   0   0)
     Any further DFT definition will be discarded
     Please, verify this is what you really want


     gamma-point specific algorithms are used
 
     K-points division:     npool     =       2
     R & G space division:  proc/nbgrp/npool/nimage =       2
     Subspace diagonalization in iterative solution of the eigenvalue problem:
     a serial algorithm will be used

     Message from routine divide_et_impera:
     suboptimal parallelization: some nodes have no k-points
 
     Parallelization info
     --------------------
     sticks:   dense  smooth     PW     G-vecs:    dense   smooth      PW
     Min        1929    1929    504                90123    90123   12201
     Max        1932    1932    505                90128    90128   12204
     Sum        3861    3861   1009               180251   180251   24405
 
     Using Slab Decomposition
 


     bravais-lattice index     =            0
     lattice parameter (alat)  =      20.1059  a.u.
     unit-cell volume          =    8127.7205 (a.u.)^3
     number of atoms/cell      =           64
     number of atomic types    =            1
     number of electrons       =       256.00
     number of Kohn-Sham states=          128
     kinetic-energy cutoff     =      30.0000  Ry
     charge density cutoff     =     120.0000  Ry
     scf convergence threshold =      1.0E-06
     mixing beta               =       0.5000
     number of iterations used =            8  plain     mixing
     Exchange-correlation= PBE
                           (   1   4   3   4   0   0   0)

     GPU acceleration is ACTIVE.
     GPU-aware MPI enabled

     Message from routine print_cuda_info:
     High GPU oversubscription detected. Are you sure this is what you want?

     celldm(1)=  20.105872  celldm(2)=   0.000000  celldm(3)=   0.000000
     celldm(4)=   0.000000  celldm(5)=   0.000000  celldm(6)=   0.000000

     crystal axes: (cart. coord. in units of alat)
               a(1) = (   1.000000   0.000000   0.000000 )  
               a(2) = (   0.000000   1.000000   0.000000 )  
               a(3) = (   0.000000   0.000000   1.000000 )  

     reciprocal axes: (cart. coord. in units 2 pi/alat)
               b(1) = (  1.000000  0.000000  0.000000 )  
               b(2) = (  0.000000  1.000000  0.000000 )  
               b(3) = (  0.000000  0.000000  1.000000 )  


     PseudoPot. # 1 for Si read from file:
     /home/ppiaggi/pseudos/Si_ONCV_PBE_sr.upf
     MD5 check sum: 8553c464762ac42b85b1eed164b4d029
     Pseudo is Norm-conserving, Zval =  4.0
     Generated using ONCVPSP code by D. R. Hamann
     Using radial grid of 1510 points,  4 beta functions with: 
                l(1) =   0
                l(2) =   0
                l(3) =   1
                l(4) =   1

     atomic species   valence    mass     pseudopotential
        Si             4.00    28.08500     Si( 1.00)

     No symmetry found



   Cartesian axes

     site n.     atom                  positions (alat units)
         1           Si  tau(   1) = (   0.0700872   0.0947233   0.3736380  )
         2           Si  tau(   2) = (   0.1100160   0.4435750   0.3280150  )
         3           Si  tau(   3) = (   0.3303890   0.3636940   0.6206790  )
         4           Si  tau(   4) = (   0.7661360   0.0224533   0.5390190  )
         5           Si  tau(   5) = (   0.8571750   0.3631900   0.2238880  )
         6           Si  tau(   6) = (   0.0519765   0.8031430   0.2088820  )
         7           Si  tau(   7) = (   0.1967990   0.6283290   0.8087870  )
         8           Si  tau(   8) = (   0.2425540   0.2522650   0.3480610  )
         9           Si  tau(   9) = (   0.2677360   0.8673820   0.2463420  )
        10           Si  tau(  10) = (   0.4241430   0.7379480   0.2092150  )
        11           Si  tau(  11) = (   0.6244670   0.0720462   0.0491569  )
        12           Si  tau(  12) = (   0.7627240   0.3527800   0.5048330  )
        13           Si  tau(  13) = (   0.9299330   0.6673350   0.5421200  )
        14           Si  tau(  14) = (   0.9157920   0.9489060   0.0643376  )
        15           Si  tau(  15) = (   0.0635555   0.5086310   0.6254860  )
        16           Si  tau(  16) = (   0.4841250   0.5474660   0.5116060  )
        17           Si  tau(  17) = (   0.2078190   0.1452750   0.8531420  )
        18           Si  tau(  18) = (   0.1124480   0.8990590   0.5375800  )
        19           Si  tau(  19) = (   0.7600590   0.8198730   0.2040970  )
        20           Si  tau(  20) = (   0.4852730   0.3690330   0.3292360  )
        21           Si  tau(  21) = (   0.9702700   0.4354220   0.8667820  )
        22           Si  tau(  22) = (   0.9042710   0.8289810   0.4090020  )
        23           Si  tau(  23) = (   0.5862750   0.9265030   0.8777060  )
        24           Si  tau(  24) = (   0.2462850   0.0634045   0.1898470  )
        25           Si  tau(  25) = (   0.0552015   0.7667630   0.7523940  )
        26           Si  tau(  26) = (   0.2301740   0.5813040   0.4526170  )
        27           Si  tau(  27) = (   0.7728380   0.7098830   0.7008340  )
        28           Si  tau(  28) = (   0.5044710   0.5740070   0.8624010  )
        29           Si  tau(  29) = (   0.6202900   0.9967520   0.2430220  )
        30           Si  tau(  30) = (   0.6036920   0.7275430   0.3637700  )
        31           Si  tau(  31) = (   0.9363030   0.5951010   0.2595410  )
        32           Si  tau(  32) = (   0.3037180   0.7901660   0.4892750  )
        33           Si  tau(  33) = (   0.5441890   0.7285810   0.0016976  )
        34           Si  tau(  34) = (   0.6476540   0.4463880   0.1914250  )
        35           Si  tau(  35) = (   0.0282923   0.3527780   0.0512926  )
        36           Si  tau(  36) = (   0.0991166   0.1483870   0.0447698  )
        37           Si  tau(  37) = (   0.6365350   0.4973130   0.6571290  )
        38           Si  tau(  38) = (   0.4351310   0.1526780   0.8800390  )
        39           Si  tau(  39) = (   0.7184470   0.6539210   0.0975966  )
        40           Si  tau(  40) = (   0.9757250   0.3059660   0.4516870  )
        41           Si  tau(  41) = (   0.7407230   0.5622610   0.3920380  )
        42           Si  tau(  42) = (   0.6386800   0.3876970   0.9578050  )
        43           Si  tau(  43) = (   0.4701220   0.9000330   0.7044480  )
        44           Si  tau(  44) = (   0.0332192   0.2769940   0.6755290  )
        45           Si  tau(  45) = (   0.4644800   0.9638190   0.3949960  )
        46           Si  tau(  46) = (   0.6429280   0.8393460   0.5790500  )
        47           Si  tau(  47) = (   0.2305280   0.3842610   0.8313200  )
        48           Si  tau(  48) = (   0.2410880   0.9751140   0.6973230  )
        49           Si  tau(  49) = (   0.4194310   0.2036570   0.1296870  )
        50           Si  tau(  50) = (   0.1460330   0.5568960   0.0505175  )
        51           Si  tau(  51) = (   0.7872640   0.9154190   0.8063960  )
        52           Si  tau(  52) = (   0.5068600   0.1069940   0.5868340  )
        53           Si  tau(  53) = (   0.8027110   0.2229120   0.9747470  )
        54           Si  tau(  54) = (   0.7442380   0.1929880   0.7041810  )
        55           Si  tau(  55) = (   0.9531630   0.7083590   0.9811790  )
        56           Si  tau(  56) = (   0.2832720   0.1597810   0.5591170  )
        57           Si  tau(  57) = (   0.3391630   0.5258890   0.2151820  )
        58           Si  tau(  58) = (   0.3813660   0.4072780   0.0080314  )
        59           Si  tau(  59) = (   0.9220270   0.1075960   0.8410890  )
        60           Si  tau(  60) = (   0.3945240   0.6998540   0.6997170  )
        61           Si  tau(  61) = (   0.8573790   0.1268190   0.2624020  )
        62           Si  tau(  62) = (   0.5182250   0.2906160   0.7199500  )
        63           Si  tau(  63) = (   0.7930500   0.5541790   0.8687610  )
        64           Si  tau(  64) = (   0.6396650   0.2012040   0.4066490  )

     number of k points=     1
                       cart. coord. in units 2pi/alat
        k(    1) = (   0.0000000   0.0000000   0.0000000), wk =   2.0000000

     Dense  grid:    90126 G-vectors     FFT dimensions: (  72,  72,  72)

     Estimated max dynamical RAM per process >     132.91 MB

     Estimated total dynamical RAM >     509.63 MB

     Initial potential from superposition of free atoms

     starting charge     255.9608, renormalised to     256.0000
     Starting wfcs are  256 randomized atomic wfcs

     total cpu time spent up to now is        5.0 secs

     Self-consistent Calculation

     iteration #  1     ecut=    30.00 Ry     beta= 0.50
     Davidson diagonalization with overlap
     ethr =  1.00E-02,  avg # of iterations =  2.0

     Threshold (ethr) on eigenvalues was too large:
     Diagonalizing with lowered threshold

     Davidson diagonalization with overlap
     ethr =  4.17E-04,  avg # of iterations = 10.0

     total cpu time spent up to now is        5.3 secs

     total energy              =    -501.21650716 Ry
     estimated scf accuracy    <       1.38997911 Ry

     iteration #  2     ecut=    30.00 Ry     beta= 0.50
     Davidson diagonalization with overlap
     ethr =  5.43E-04,  avg # of iterations = 14.0

     total cpu time spent up to now is        5.5 secs

     total energy              =    -500.65617428 Ry
     estimated scf accuracy    <       7.07765674 Ry

     iteration #  3     ecut=    30.00 Ry     beta= 0.50
     Davidson diagonalization with overlap
     ethr =  5.43E-04,  avg # of iterations = 11.0

     total cpu time spent up to now is        5.7 secs

     total energy              =    -501.34810114 Ry
     estimated scf accuracy    <       1.79567183 Ry

     iteration #  4     ecut=    30.00 Ry     beta= 0.50
     Davidson diagonalization with overlap
     ethr =  5.43E-04,  avg # of iterations =  3.0

     total cpu time spent up to now is        5.7 secs

     total energy              =    -501.47291106 Ry
     estimated scf accuracy    <       0.41713270 Ry

     iteration #  5     ecut=    30.00 Ry     beta= 0.50
     Davidson diagonalization with overlap
     ethr =  1.63E-04,  avg # of iterations = 11.0

     total cpu time spent up to now is        5.9 secs

     total energy              =    -501.50091547 Ry
     estimated scf accuracy    <       0.41066286 Ry

     iteration #  6     ecut=    30.00 Ry     beta= 0.50
     Davidson diagonalization with overlap
     ethr =  1.60E-04,  avg # of iterations =  3.0

     total cpu time spent up to now is        6.0 secs

     total energy              =    -501.53467957 Ry
     estimated scf accuracy    <       0.06022823 Ry

     iteration #  7     ecut=    30.00 Ry     beta= 0.50
     Davidson diagonalization with overlap
     ethr =  2.35E-05,  avg # of iterations = 16.0

     total cpu time spent up to now is        6.2 secs

     total energy              =    -501.54504551 Ry
     estimated scf accuracy    <       0.12587215 Ry

     iteration #  8     ecut=    30.00 Ry     beta= 0.50
     Davidson diagonalization with overlap
     ethr =  2.35E-05,  avg # of iterations =  3.0

     total cpu time spent up to now is        6.3 secs

     total energy              =    -501.54088293 Ry
     estimated scf accuracy    <       0.06566886 Ry

     iteration #  9     ecut=    30.00 Ry     beta= 0.50
     Davidson diagonalization with overlap
     ethr =  2.35E-05,  avg # of iterations = 16.0

     total cpu time spent up to now is        6.4 secs

     total energy              =    -501.54577439 Ry
     estimated scf accuracy    <       0.00613573 Ry

     iteration # 10     ecut=    30.00 Ry     beta= 0.50
     Davidson diagonalization with overlap
     ethr =  2.40E-06,  avg # of iterations = 19.0

     total cpu time spent up to now is        6.6 secs

     total energy              =    -501.54748273 Ry
     estimated scf accuracy    <       0.01537159 Ry

     iteration # 11     ecut=    30.00 Ry     beta= 0.50
     Davidson diagonalization with overlap
     ethr =  2.40E-06,  avg # of iterations =  2.0

     total cpu time spent up to now is        6.7 secs

     total energy              =    -501.54681564 Ry
     estimated scf accuracy    <       0.00816068 Ry

     iteration # 12     ecut=    30.00 Ry     beta= 0.50
     Davidson diagonalization with overlap
     ethr =  2.40E-06,  avg # of iterations = 17.0

     total cpu time spent up to now is        6.8 secs

     total energy              =    -501.54753292 Ry
     estimated scf accuracy    <       0.00060359 Ry

     iteration # 13     ecut=    30.00 Ry     beta= 0.50
     Davidson diagonalization with overlap
     ethr =  2.36E-07,  avg # of iterations = 11.0

     total cpu time spent up to now is        7.0 secs

     total energy              =    -501.54774797 Ry
     estimated scf accuracy    <       0.00233722 Ry

     iteration # 14     ecut=    30.00 Ry     beta= 0.50
     Davidson diagonalization with overlap
     ethr =  2.36E-07,  avg # of iterations =  3.0

     total cpu time spent up to now is        7.1 secs

     total energy              =    -501.54760094 Ry
     estimated scf accuracy    <       0.00195434 Ry

     iteration # 15     ecut=    30.00 Ry     beta= 0.50
     Davidson diagonalization with overlap
     ethr =  2.36E-07,  avg # of iterations =  8.0

     total cpu time spent up to now is        7.2 secs

     total energy              =    -501.54762885 Ry
     estimated scf accuracy    <       0.00056167 Ry

     iteration # 16     ecut=    30.00 Ry     beta= 0.50
     Davidson diagonalization with overlap
     ethr =  2.19E-07,  avg # of iterations =  2.0

     total cpu time spent up to now is        7.3 secs

     total energy              =    -501.54762956 Ry
     estimated scf accuracy    <       0.00022891 Ry

     iteration # 17     ecut=    30.00 Ry     beta= 0.50
     Davidson diagonalization with overlap
     ethr =  8.94E-08,  avg # of iterations = 20.0

     total cpu time spent up to now is        7.5 secs

     total energy              =    -501.54768104 Ry
     estimated scf accuracy    <       0.00011641 Ry

     iteration # 18     ecut=    30.00 Ry     beta= 0.50
     Davidson diagonalization with overlap
     ethr =  4.55E-08,  avg # of iterations =  3.0

     total cpu time spent up to now is        7.6 secs

     total energy              =    -501.54768327 Ry
     estimated scf accuracy    <       0.00013874 Ry

     iteration # 19     ecut=    30.00 Ry     beta= 0.50
     Davidson diagonalization with overlap
     ethr =  4.55E-08,  avg # of iterations =  1.0

     total cpu time spent up to now is        7.6 secs

     total energy              =    -501.54767266 Ry
     estimated scf accuracy    <       0.00014261 Ry

     iteration # 20     ecut=    30.00 Ry     beta= 0.50
     Davidson diagonalization with overlap
     ethr =  4.55E-08,  avg # of iterations =  3.0

     total cpu time spent up to now is        7.7 secs

     total energy              =    -501.54767123 Ry
     estimated scf accuracy    <       0.00008207 Ry

     iteration # 21     ecut=    30.00 Ry     beta= 0.50
     Davidson diagonalization with overlap
     ethr =  3.21E-08,  avg # of iterations = 19.0

     total cpu time spent up to now is        7.9 secs

     total energy              =    -501.54767652 Ry
     estimated scf accuracy    <       0.00001165 Ry

     iteration # 22     ecut=    30.00 Ry     beta= 0.50
     Davidson diagonalization with overlap
     ethr =  4.55E-09,  avg # of iterations = 15.0

     total cpu time spent up to now is        8.0 secs

     total energy              =    -501.54767758 Ry
     estimated scf accuracy    <       0.00000401 Ry

     iteration # 23     ecut=    30.00 Ry     beta= 0.50
     Davidson diagonalization with overlap
     ethr =  1.57E-09,  avg # of iterations =  5.0

     total cpu time spent up to now is        8.1 secs

     total energy              =    -501.54767768 Ry
     estimated scf accuracy    <       0.00000102 Ry

     iteration # 24     ecut=    30.00 Ry     beta= 0.50
     Davidson diagonalization with overlap
     ethr =  3.97E-10,  avg # of iterations = 12.0

     total cpu time spent up to now is        8.3 secs

     total energy              =    -501.54767752 Ry
     estimated scf accuracy    <       0.00000742 Ry

     iteration # 25     ecut=    30.00 Ry     beta= 0.50
     Davidson diagonalization with overlap
     ethr =  3.97E-10,  avg # of iterations = 18.0

     total cpu time spent up to now is        8.5 secs

     total energy              =    -501.54767812 Ry
     estimated scf accuracy    <       0.00000202 Ry

     iteration # 26     ecut=    30.00 Ry     beta= 0.50
     Davidson diagonalization with overlap
     ethr =  3.97E-10,  avg # of iterations =  2.0

     total cpu time spent up to now is        8.6 secs

     total energy              =    -501.54767809 Ry
     estimated scf accuracy    <       0.00000164 Ry

     iteration # 27     ecut=    30.00 Ry     beta= 0.50
     Davidson diagonalization with overlap
     ethr =  3.97E-10,  avg # of iterations =  2.0

     total cpu time spent up to now is        8.6 secs

     total energy              =    -501.54767800 Ry
     estimated scf accuracy    <       0.00000111 Ry

     iteration # 28     ecut=    30.00 Ry     beta= 0.50
     Davidson diagonalization with overlap
     ethr =  3.97E-10,  avg # of iterations = 14.0

     total cpu time spent up to now is        8.8 secs

     End of self-consistent calculation

          k = 0.0000 0.0000 0.0000 ( 11324 PWs)   bands (ev):

    -5.4593  -4.5725  -4.5261  -4.3042  -4.1691  -4.0987  -3.9685  -3.5450
    -3.3905  -3.3005  -3.2215  -3.1839  -3.0899  -3.0378  -2.9495  -2.7719
    -2.6892  -2.6046  -2.5055  -2.1801  -2.0848  -2.0125  -1.9614  -1.8731
    -1.6670  -1.5127  -1.0757  -0.9211  -0.8967  -0.7567  -0.6897  -0.5623
    -0.3765  -0.2672  -0.2058  -0.0579  -0.0378   0.0769   0.1178   0.2744
     0.4244   0.4659   0.5283   0.5884   0.6017   0.6747   0.8667   0.9029
     1.1073   1.1294   1.1651   1.2527   1.3381   1.3786   1.4518   1.6638
     1.6917   1.8798   1.9416   1.9859   2.0563   2.1853   2.3218   2.4282
     2.4392   2.5281   2.6911   2.7276   2.7832   2.8308   2.9044   3.0391
     3.0946   3.1631   3.2283   3.2900   3.4033   3.5622   3.6661   3.7228
     4.0000   4.1780   4.2561   4.3702   4.4580   4.5148   4.5451   4.6235
     4.6852   4.7053   4.8256   4.9482   4.9857   5.0179   5.1006   5.1734
     5.2203   5.2552   5.3786   5.4605   5.5422   5.5721   5.6101   5.6334
     5.6768   5.7295   5.7520   5.8466   5.8939   5.9523   6.0326   6.0670
     6.1228   6.1867   6.2524   6.2754   6.2916   6.3121   6.4400   6.5042
     6.6527   6.7337   6.7883   6.8124   6.8577   6.9424   6.9690   7.0470

     highest occupied level (ev):     7.0470

!    total energy              =    -501.54767789 Ry
     estimated scf accuracy    <       0.00000026 Ry

     The total energy is the sum of the following terms:
     one-electron contribution =     171.82411097 Ry
     hartree contribution      =      32.22462952 Ry
     xc contribution           =    -151.52762022 Ry
     ewald contribution        =    -554.06879816 Ry

     convergence has been achieved in  28 iterations

     Forces acting on atoms (cartesian axes, Ry/au):

     atom    1 type  1   force =    -0.00257737   -0.00109413    0.01497077
     atom    2 type  1   force =     0.00631509    0.00984129   -0.01073791
     atom    3 type  1   force =     0.00142393    0.04767267    0.02256274
     atom    4 type  1   force =    -0.00910635    0.00099477    0.00132910
     atom    5 type  1   force =     0.00614101   -0.02865722   -0.02597635
     atom    6 type  1   force =    -0.01607410   -0.00882206   -0.00623467
     atom    7 type  1   force =     0.05126515   -0.06407336   -0.00116011
     atom    8 type  1   force =     0.02157714   -0.00602527    0.00939995
     atom    9 type  1   force =    -0.04711629   -0.01519239    0.06426443
     atom   10 type  1   force =     0.08690550   -0.07258032   -0.04020042
     atom   11 type  1   force =    -0.00252767    0.05015324   -0.05766204
     atom   12 type  1   force =     0.01323582    0.02578644    0.02031602
     atom   13 type  1   force =    -0.02432419   -0.02464973    0.05478971
     atom   14 type  1   force =    -0.00418657   -0.01242276    0.01843260
     atom   15 type  1   force =     0.03908146    0.02342590    0.01567594
     atom   16 type  1   force =    -0.04214565    0.00841128   -0.00724395
     atom   17 type  1   force =     0.00159763    0.00866744   -0.02535971
     atom   18 type  1   force =    -0.03707617    0.00612148   -0.02653311
     atom   19 type  1   force =     0.03962241    0.10380222    0.06981649
     atom   20 type  1   force =    -0.02409460   -0.01559060   -0.02467347
     atom   21 type  1   force =     0.02622111   -0.01535411   -0.08753698
     atom   22 type  1   force =     0.01313144    0.05221231   -0.03761773
     atom   23 type  1   force =    -0.00393436   -0.00634402    0.09025280
     atom   24 type  1   force =    -0.01226485    0.08683115   -0.00340694
     atom   25 type  1   force =    -0.06032497    0.05587858   -0.01465510
     atom   26 type  1   force =     0.01461640   -0.01629061    0.02572335
     atom   27 type  1   force =     0.01083206   -0.02703928    0.00522393
     atom   28 type  1   force =    -0.01511244   -0.05703156   -0.03118961
     atom   29 type  1   force =     0.02825355   -0.00264778    0.06069876
     atom   30 type  1   force =    -0.04824625    0.02723809    0.02649751
     atom   31 type  1   force =     0.02077220    0.00280576   -0.00522547
     atom   32 type  1   force =    -0.00010463    0.00330999   -0.02562683
     atom   33 type  1   force =    -0.03197133    0.05877958    0.02418633
     atom   34 type  1   force =     0.02540557    0.00589864   -0.02935458
     atom   35 type  1   force =    -0.00272589    0.01554519    0.06864744
     atom   36 type  1   force =    -0.01528813   -0.04894820   -0.00592321
     atom   37 type  1   force =    -0.00613106    0.00983944    0.02722737
     atom   38 type  1   force =    -0.00014875    0.00851103    0.01723340
     atom   39 type  1   force =     0.03082295   -0.11244351   -0.04785681
     atom   40 type  1   force =    -0.00527364   -0.01539475   -0.00096409
     atom   41 type  1   force =     0.03760493   -0.03814930    0.00672072
     atom   42 type  1   force =     0.00407166    0.00935119   -0.00140624
     atom   43 type  1   force =    -0.04870460    0.05002405   -0.03149704
     atom   44 type  1   force =     0.01338542    0.00718240    0.02997011
     atom   45 type  1   force =    -0.02136846   -0.01902937    0.02609320
     atom   46 type  1   force =    -0.01685809   -0.00775232   -0.05302469
     atom   47 type  1   force =     0.00874625   -0.01059689   -0.00906461
     atom   48 type  1   force =     0.02095638    0.02626335    0.02754506
     atom   49 type  1   force =     0.01935543    0.01919811   -0.00960959
     atom   50 type  1   force =    -0.01335218    0.00404168   -0.00100771
     atom   51 type  1   force =     0.05613338    0.01137558   -0.00918608
     atom   52 type  1   force =     0.01166855   -0.04381578   -0.03661946
     atom   53 type  1   force =    -0.04888058    0.01857900    0.04354851
     atom   54 type  1   force =    -0.01345507   -0.00925655   -0.02369643
     atom   55 type  1   force =     0.01127859   -0.00112311   -0.00156630
     atom   56 type  1   force =    -0.00724185   -0.01331637   -0.03489928
     atom   57 type  1   force =    -0.00105962   -0.00984339   -0.03057606
     atom   58 type  1   force =     0.00548261    0.01165862    0.00207070
     atom   59 type  1   force =    -0.00182535   -0.03611788   -0.02783803
     atom   60 type  1   force =    -0.02585930   -0.04853488   -0.01820520
     atom   61 type  1   force =    -0.00840432    0.01734878    0.00057226
     atom   62 type  1   force =     0.04567098   -0.00077760    0.03357887
     atom   63 type  1   force =    -0.03806813    0.03075480    0.01195775
     atom   64 type  1   force =    -0.01574180   -0.02858896   -0.01597001

     Total force =     0.447374     Total SCF correction =     0.000842


     Computing stress (Cartesian axis) and pressure

          total   stress  (Ry/bohr**3)                   (kbar)     P=      -15.97
  -0.00006417  -0.00004155   0.00009359           -9.44       -6.11       13.77
  -0.00004155  -0.00009476   0.00005842           -6.11      -13.94        8.59
   0.00009359   0.00005842  -0.00016674           13.77        8.59      -24.53

 
     init_run     :      1.08s CPU      4.98s WALL (       1 calls)
     electrons    :      3.54s CPU      3.72s WALL (       1 calls)
     forces       :      0.04s CPU      0.04s WALL (       1 calls)
     stress       :      0.13s CPU      0.14s WALL (       1 calls)

     Called by init_run:
     wfcinit      :      0.54s CPU      4.26s WALL (       1 calls)
                                        4.26s GPU  (       1 calls)
     potinit      :      0.05s CPU      0.14s WALL (       1 calls)
     hinit0       :      0.47s CPU      0.50s WALL (       1 calls)

     Called by electrons:
     c_bands      :      2.33s CPU      2.40s WALL (      29 calls)
     sum_band     :      0.57s CPU      0.63s WALL (      29 calls)
     v_of_rho     :      0.26s CPU      0.38s WALL (      29 calls)
     mix_rho      :      0.30s CPU      0.32s WALL (      29 calls)

     Called by c_bands:
     init_us_2    :      0.10s CPU      0.11s WALL (      59 calls)
     init_us_2:gp :      0.10s CPU      0.11s WALL (      59 calls)
     regterg      :      2.08s CPU      2.14s WALL (      29 calls)

     Called by *egterg:
     rdiaghg      :      1.03s CPU      1.78s WALL (     293 calls)
                                        1.74s GPU  (     293 calls)
     h_psi        :      1.25s CPU      4.25s WALL (     295 calls)
                                        4.24s GPU  (     295 calls)
     g_psi        :      0.00s CPU      0.01s WALL (     265 calls)
                                        0.01s GPU  (     265 calls)

     Called by h_psi:
     h_psi:calbec :      0.55s CPU      3.46s WALL (     295 calls)
                                        3.46s GPU  (     295 calls)
     vloc_psi     :      0.52s CPU      0.60s WALL (     295 calls)
                                        0.60s GPU  (     295 calls)
     add_vuspsi   :      0.13s CPU      0.16s WALL (     295 calls)
                                        0.16s GPU  (     295 calls)

     General routines
     calbec       :      0.55s CPU      3.46s WALL (     300 calls)
     fft          :      0.71s CPU      0.85s WALL (     239 calls)
                                        0.14s GPU  (     151 calls)
     ffts         :      0.08s CPU      0.09s WALL (      29 calls)
     fftw         :      0.62s CPU      0.80s WALL (    2872 calls)
                                        0.69s GPU  (    2872 calls)
 
     Parallel routines
 
     PWSCF        :      4.83s CPU      8.96s WALL

 
   This run was terminated on:  15:47:50   9May2023            

=------------------------------------------------------------------------------=
   JOB DONE.
=------------------------------------------------------------------------------=
