An instance of this daemon is already running

     Program PWSCF v.7.1 starts on  9May2023 at 15:38:52 

     This program is part of the open-source Quantum ESPRESSO suite
     for quantum simulation of materials; please cite
         "P. Giannozzi et al., J. Phys.:Condens. Matter 21 395502 (2009);
         "P. Giannozzi et al., J. Phys.:Condens. Matter 29 465901 (2017);
         "P. Giannozzi et al., J. Chem. Phys. 152 154105 (2020);
          URL http://www.quantum-espresso.org", 
     in publications or presentations arising from this work. More details at
     http://www.quantum-espresso.org/quote

     Parallel version (MPI & OpenMP), running on       4 processor cores
     Number of MPI processes:                 4
     Threads/MPI process:                     1

     MPI processes distributed on     1 nodes
     751755 MiB available memory on the printing compute node when the environment starts
 
     Reading input from pw-si-55.in
Warning: card &CELL ignored
Warning: card / ignored

     Current dimensions of program PWSCF are:
     Max number of different atomic species (ntypx) = 10
     Max number of k-points (npk) =  40000
     Max angular momentum in pseudopotentials (lmaxx) =  4

     IMPORTANT: XC functional enforced from input :
     Exchange-correlation= PBE
                           (   1   4   3   4   0   0   0)
     Any further DFT definition will be discarded
     Please, verify this is what you really want


     gamma-point specific algorithms are used
 
     K-points division:     npool     =       2
     R & G space division:  proc/nbgrp/npool/nimage =       2
     Subspace diagonalization in iterative solution of the eigenvalue problem:
     a serial algorithm will be used

     Message from routine divide_et_impera:
     suboptimal parallelization: some nodes have no k-points
 
     Parallelization info
     --------------------
     sticks:   dense  smooth     PW     G-vecs:    dense   smooth      PW
     Min        1895    1895    498                87590    87590   11922
     Max        1898    1898    499                87591    87591   11925
     Sum        3793    3793    997               175181   175181   23847
 
     Using Slab Decomposition
 


     bravais-lattice index     =            0
     lattice parameter (alat)  =      19.9163  a.u.
     unit-cell volume          =    7900.0030 (a.u.)^3
     number of atoms/cell      =           64
     number of atomic types    =            1
     number of electrons       =       256.00
     number of Kohn-Sham states=          128
     kinetic-energy cutoff     =      30.0000  Ry
     charge density cutoff     =     120.0000  Ry
     scf convergence threshold =      1.0E-06
     mixing beta               =       0.5000
     number of iterations used =            8  plain     mixing
     Exchange-correlation= PBE
                           (   1   4   3   4   0   0   0)

     GPU acceleration is ACTIVE.
     GPU-aware MPI enabled

     Message from routine print_cuda_info:
     High GPU oversubscription detected. Are you sure this is what you want?

     celldm(1)=  19.916320  celldm(2)=   0.000000  celldm(3)=   0.000000
     celldm(4)=   0.000000  celldm(5)=   0.000000  celldm(6)=   0.000000

     crystal axes: (cart. coord. in units of alat)
               a(1) = (   1.000000   0.000000   0.000000 )  
               a(2) = (   0.000000   1.000000   0.000000 )  
               a(3) = (   0.000000   0.000000   1.000000 )  

     reciprocal axes: (cart. coord. in units 2 pi/alat)
               b(1) = (  1.000000  0.000000  0.000000 )  
               b(2) = (  0.000000  1.000000  0.000000 )  
               b(3) = (  0.000000  0.000000  1.000000 )  


     PseudoPot. # 1 for Si read from file:
     /home/ppiaggi/pseudos/Si_ONCV_PBE_sr.upf
     MD5 check sum: 8553c464762ac42b85b1eed164b4d029
     Pseudo is Norm-conserving, Zval =  4.0
     Generated using ONCVPSP code by D. R. Hamann
     Using radial grid of 1510 points,  4 beta functions with: 
                l(1) =   0
                l(2) =   0
                l(3) =   1
                l(4) =   1

     atomic species   valence    mass     pseudopotential
        Si             4.00    28.08500     Si( 1.00)

     No symmetry found



   Cartesian axes

     site n.     atom                  positions (alat units)
         1           Si  tau(   1) = (   0.8510640   0.8237240   0.5606180  )
         2           Si  tau(   2) = (   0.6293920   0.3125710   0.5059200  )
         3           Si  tau(   3) = (   0.6158920   0.4410000   0.9620680  )
         4           Si  tau(   4) = (   0.2338750   0.3255770   0.2203510  )
         5           Si  tau(   5) = (   0.0334574   0.3129220   0.3298230  )
         6           Si  tau(   6) = (   0.5954580   0.0142166   0.7719330  )
         7           Si  tau(   7) = (   0.9437040   0.8953990   0.3611390  )
         8           Si  tau(   8) = (   0.6923090   0.2145180   0.2852310  )
         9           Si  tau(   9) = (   0.1435160   0.3146390   0.7539750  )
        10           Si  tau(  10) = (   0.8550970   0.0360671   0.0859428  )
        11           Si  tau(  11) = (   0.3518510   0.1868340   0.9211480  )
        12           Si  tau(  12) = (   0.9454760   0.5015770   0.4127120  )
        13           Si  tau(  13) = (   0.7512820   0.4854750   0.1423020  )
        14           Si  tau(  14) = (   0.6657260   0.7450670   0.2464880  )
        15           Si  tau(  15) = (   0.7464700   0.8327730   0.7859450  )
        16           Si  tau(  16) = (   0.2641420   0.4020980   0.9649650  )
        17           Si  tau(  17) = (   0.1679900   0.7053140   0.8490720  )
        18           Si  tau(  18) = (   0.4118840   0.3874220   0.4084830  )
        19           Si  tau(  19) = (   0.4364900   0.0534145   0.4579220  )
        20           Si  tau(  20) = (   0.5347650   0.6844310   0.9731080  )
        21           Si  tau(  21) = (   0.2076580   0.7730460   0.4431280  )
        22           Si  tau(  22) = (   0.9810890   0.8421300   0.0497984  )
        23           Si  tau(  23) = (   0.2496090   0.5537340   0.6924090  )
        24           Si  tau(  24) = (   0.9264660   0.6751230   0.2599980  )
        25           Si  tau(  25) = (   0.5068790   0.2557990   0.7344500  )
        26           Si  tau(  26) = (   0.8344330   0.3159790   0.6057950  )
        27           Si  tau(  27) = (   0.0808201   0.5566310   0.0031827  )
        28           Si  tau(  28) = (   0.4421470   0.8511690   0.6872390  )
        29           Si  tau(  29) = (   0.7036580   0.8319930   0.0164388  )
        30           Si  tau(  30) = (   0.5530940   0.0996803   0.0057229  )
        31           Si  tau(  31) = (   0.4256170   0.8260090   0.3849700  )
        32           Si  tau(  32) = (   0.0793113   0.7523930   0.6508560  )
        33           Si  tau(  33) = (   0.7073820   0.5596130   0.4808690  )
        34           Si  tau(  34) = (   0.5221340   0.2805130   0.1510370  )
        35           Si  tau(  35) = (   0.4242300   0.4447480   0.8137520  )
        36           Si  tau(  36) = (   0.2147930   0.9753980   0.6007990  )
        37           Si  tau(  37) = (   0.1814430   0.4996160   0.4728620  )
        38           Si  tau(  38) = (   0.6651610   0.0547406   0.5500480  )
        39           Si  tau(  39) = (   0.5318140   0.6444940   0.7420320  )
        40           Si  tau(  40) = (   0.8017330   0.1189820   0.8882820  )
        41           Si  tau(  41) = (   0.3277550   0.2475760   0.5768550  )
        42           Si  tau(  42) = (   0.2990500   0.8699130   0.8777060  )
        43           Si  tau(  43) = (   0.4925680   0.9560890   0.1807350  )
        44           Si  tau(  44) = (   0.1140660   0.0325663   0.3215980  )
        45           Si  tau(  45) = (   0.3524870   0.1299330   0.2650400  )
        46           Si  tau(  46) = (   0.0787941   0.1621160   0.5407030  )
        47           Si  tau(  47) = (   0.6355630   0.7861430   0.4880640  )
        48           Si  tau(  48) = (   0.0993710   0.1488100   0.0856204  )
        49           Si  tau(  49) = (   0.7704320   0.5847520   0.7661840  )
        50           Si  tau(  50) = (   0.8512310   0.6245150   0.0042704  )
        51           Si  tau(  51) = (   0.7680060   0.3289700   0.8394610  )
        52           Si  tau(  52) = (   0.1812440   0.5755110   0.2178040  )
        53           Si  tau(  53) = (   0.8970560   0.0977401   0.6247540  )
        54           Si  tau(  54) = (   0.1821660   0.8117520   0.2321330  )
        55           Si  tau(  55) = (   0.1913800   0.0551342   0.8757430  )
        56           Si  tau(  56) = (   0.7283400   0.9774760   0.2995900  )
        57           Si  tau(  57) = (   0.3703700   0.7793740   0.0963477  )
        58           Si  tau(  58) = (   0.4213400   0.6124980   0.5373700  )
        59           Si  tau(  59) = (   0.9840140   0.3132100   0.9352850  )
        60           Si  tau(  60) = (   0.3786010   0.5230320   0.1086640  )
        61           Si  tau(  61) = (   0.8739140   0.2919070   0.1840740  )
        62           Si  tau(  62) = (   0.9760850   0.5069290   0.6786570  )
        63           Si  tau(  63) = (   0.5637340   0.5108540   0.2543970  )
        64           Si  tau(  64) = (   0.9853530   0.9452850   0.7940270  )

     number of k points=     1
                       cart. coord. in units 2pi/alat
        k(    1) = (   0.0000000   0.0000000   0.0000000), wk =   2.0000000

     Dense  grid:    87591 G-vectors     FFT dimensions: (  72,  72,  72)

     Estimated max dynamical RAM per process >     129.60 MB

     Estimated total dynamical RAM >     497.03 MB

     Initial potential from superposition of free atoms

     starting charge     255.9608, renormalised to     256.0000
     Starting wfcs are  256 randomized atomic wfcs

     total cpu time spent up to now is        5.1 secs

     Self-consistent Calculation

     iteration #  1     ecut=    30.00 Ry     beta= 0.50
     Davidson diagonalization with overlap
     ethr =  1.00E-02,  avg # of iterations =  2.0

     Threshold (ethr) on eigenvalues was too large:
     Diagonalizing with lowered threshold

     Davidson diagonalization with overlap
     ethr =  3.68E-04,  avg # of iterations =  8.0

     total cpu time spent up to now is        5.3 secs

     total energy              =    -501.13943280 Ry
     estimated scf accuracy    <       1.16188540 Ry

     iteration #  2     ecut=    30.00 Ry     beta= 0.50
     Davidson diagonalization with overlap
     ethr =  4.54E-04,  avg # of iterations = 13.0

     total cpu time spent up to now is        5.5 secs

     total energy              =    -500.69333839 Ry
     estimated scf accuracy    <       5.46439184 Ry

     iteration #  3     ecut=    30.00 Ry     beta= 0.50
     Davidson diagonalization with overlap
     ethr =  4.54E-04,  avg # of iterations =  9.0

     total cpu time spent up to now is        5.6 secs

     total energy              =    -501.21416215 Ry
     estimated scf accuracy    <       1.74780627 Ry

     iteration #  4     ecut=    30.00 Ry     beta= 0.50
     Davidson diagonalization with overlap
     ethr =  4.54E-04,  avg # of iterations = 10.0

     total cpu time spent up to now is        5.7 secs

     total energy              =    -501.32485802 Ry
     estimated scf accuracy    <       0.51406740 Ry

     iteration #  5     ecut=    30.00 Ry     beta= 0.50
     Davidson diagonalization with overlap
     ethr =  2.01E-04,  avg # of iterations = 14.0

     total cpu time spent up to now is        5.9 secs

     total energy              =    -501.36567241 Ry
     estimated scf accuracy    <       0.44199844 Ry

     iteration #  6     ecut=    30.00 Ry     beta= 0.50
     Davidson diagonalization with overlap
     ethr =  1.73E-04,  avg # of iterations =  3.0

     total cpu time spent up to now is        6.0 secs

     total energy              =    -501.39790233 Ry
     estimated scf accuracy    <       0.04858632 Ry

     iteration #  7     ecut=    30.00 Ry     beta= 0.50
     Davidson diagonalization with overlap
     c_bands:  1 eigenvalues not converged
     ethr =  1.90E-05,  avg # of iterations = 20.0

     total cpu time spent up to now is        6.2 secs

     total energy              =    -501.40985616 Ry
     estimated scf accuracy    <       0.07672805 Ry

     iteration #  8     ecut=    30.00 Ry     beta= 0.50
     Davidson diagonalization with overlap
     ethr =  1.90E-05,  avg # of iterations =  3.0

     total cpu time spent up to now is        6.3 secs

     total energy              =    -501.40922209 Ry
     estimated scf accuracy    <       0.04293671 Ry

     iteration #  9     ecut=    30.00 Ry     beta= 0.50
     Davidson diagonalization with overlap
     ethr =  1.68E-05,  avg # of iterations =  3.0

     total cpu time spent up to now is        6.4 secs

     total energy              =    -501.40899453 Ry
     estimated scf accuracy    <       0.01419322 Ry

     iteration # 10     ecut=    30.00 Ry     beta= 0.50
     Davidson diagonalization with overlap
     ethr =  5.54E-06,  avg # of iterations = 20.0

     total cpu time spent up to now is        6.6 secs

     total energy              =    -501.41522991 Ry
     estimated scf accuracy    <       0.04128239 Ry

     iteration # 11     ecut=    30.00 Ry     beta= 0.50
     Davidson diagonalization with overlap
     ethr =  5.54E-06,  avg # of iterations =  2.0

     total cpu time spent up to now is        6.6 secs

     total energy              =    -501.41301101 Ry
     estimated scf accuracy    <       0.03559083 Ry

     iteration # 12     ecut=    30.00 Ry     beta= 0.50
     Davidson diagonalization with overlap
     ethr =  5.54E-06,  avg # of iterations =  2.0

     total cpu time spent up to now is        6.7 secs

     total energy              =    -501.41195243 Ry
     estimated scf accuracy    <       0.02166466 Ry

     iteration # 13     ecut=    30.00 Ry     beta= 0.50
     Davidson diagonalization with overlap
     c_bands:  1 eigenvalues not converged
     ethr =  5.54E-06,  avg # of iterations = 20.0

     total cpu time spent up to now is        6.9 secs

     total energy              =    -501.41317534 Ry
     estimated scf accuracy    <       0.00317176 Ry

     iteration # 14     ecut=    30.00 Ry     beta= 0.50
     Davidson diagonalization with overlap
     ethr =  1.24E-06,  avg # of iterations = 17.0

     total cpu time spent up to now is        7.0 secs

     total energy              =    -501.41350766 Ry
     estimated scf accuracy    <       0.00119096 Ry

     iteration # 15     ecut=    30.00 Ry     beta= 0.50
     Davidson diagonalization with overlap
     ethr =  4.65E-07,  avg # of iterations =  5.0

     total cpu time spent up to now is        7.1 secs

     total energy              =    -501.41343659 Ry
     estimated scf accuracy    <       0.00074382 Ry

     iteration # 16     ecut=    30.00 Ry     beta= 0.50
     Davidson diagonalization with overlap
     ethr =  2.91E-07,  avg # of iterations =  8.0

     total cpu time spent up to now is        7.3 secs

     total energy              =    -501.41343349 Ry
     estimated scf accuracy    <       0.00103970 Ry

     iteration # 17     ecut=    30.00 Ry     beta= 0.50
     Davidson diagonalization with overlap
     c_bands:  1 eigenvalues not converged
     ethr =  2.91E-07,  avg # of iterations = 20.0

     total cpu time spent up to now is        7.5 secs

     total energy              =    -501.41348737 Ry
     estimated scf accuracy    <       0.00231013 Ry

     iteration # 18     ecut=    30.00 Ry     beta= 0.50
     Davidson diagonalization with overlap
     ethr =  2.91E-07,  avg # of iterations =  8.0

     total cpu time spent up to now is        7.6 secs

     total energy              =    -501.41332256 Ry
     estimated scf accuracy    <       0.00168233 Ry

     iteration # 19     ecut=    30.00 Ry     beta= 0.50
     Davidson diagonalization with overlap
     c_bands:  1 eigenvalues not converged
     ethr =  2.91E-07,  avg # of iterations = 20.0

     total cpu time spent up to now is        7.7 secs

     total energy              =    -501.41342399 Ry
     estimated scf accuracy    <       0.00162634 Ry

     iteration # 20     ecut=    30.00 Ry     beta= 0.50
     Davidson diagonalization with overlap
     c_bands:  1 eigenvalues not converged
     ethr =  2.91E-07,  avg # of iterations = 20.0

     total cpu time spent up to now is        7.9 secs

     total energy              =    -501.41345307 Ry
     estimated scf accuracy    <       0.00053886 Ry

     iteration # 21     ecut=    30.00 Ry     beta= 0.50
     Davidson diagonalization with overlap
     c_bands:  1 eigenvalues not converged
     ethr =  2.10E-07,  avg # of iterations = 20.0

     total cpu time spent up to now is        8.1 secs

     total energy              =    -501.41349379 Ry
     estimated scf accuracy    <       0.00007106 Ry

     iteration # 22     ecut=    30.00 Ry     beta= 0.50
     Davidson diagonalization with overlap
     c_bands:  1 eigenvalues not converged
     ethr =  2.78E-08,  avg # of iterations = 20.0

     total cpu time spent up to now is        8.2 secs

     total energy              =    -501.41351547 Ry
     estimated scf accuracy    <       0.00007434 Ry

     iteration # 23     ecut=    30.00 Ry     beta= 0.50
     Davidson diagonalization with overlap
     c_bands:  1 eigenvalues not converged
     ethr =  2.78E-08,  avg # of iterations = 20.0

     total cpu time spent up to now is        8.4 secs

     total energy              =    -501.41351810 Ry
     estimated scf accuracy    <       0.00010075 Ry

     iteration # 24     ecut=    30.00 Ry     beta= 0.50
     Davidson diagonalization with overlap
     ethr =  2.78E-08,  avg # of iterations = 13.0

     total cpu time spent up to now is        8.5 secs

     total energy              =    -501.41351426 Ry
     estimated scf accuracy    <       0.00007874 Ry

     iteration # 25     ecut=    30.00 Ry     beta= 0.50
     Davidson diagonalization with overlap
     ethr =  2.78E-08,  avg # of iterations =  2.0

     total cpu time spent up to now is        8.6 secs

     total energy              =    -501.41351134 Ry
     estimated scf accuracy    <       0.00004949 Ry

     iteration # 26     ecut=    30.00 Ry     beta= 0.50
     Davidson diagonalization with overlap
     c_bands:  1 eigenvalues not converged
     ethr =  1.93E-08,  avg # of iterations = 20.0

     total cpu time spent up to now is        8.8 secs

     total energy              =    -501.41351741 Ry
     estimated scf accuracy    <       0.00001685 Ry

     iteration # 27     ecut=    30.00 Ry     beta= 0.50
     Davidson diagonalization with overlap
     c_bands:  1 eigenvalues not converged
     ethr =  6.58E-09,  avg # of iterations = 20.0

     total cpu time spent up to now is        9.0 secs

     total energy              =    -501.41351933 Ry
     estimated scf accuracy    <       0.00002834 Ry

     iteration # 28     ecut=    30.00 Ry     beta= 0.50
     Davidson diagonalization with overlap
     ethr =  6.58E-09,  avg # of iterations =  2.0

     total cpu time spent up to now is        9.0 secs

     total energy              =    -501.41351528 Ry
     estimated scf accuracy    <       0.00002793 Ry

     iteration # 29     ecut=    30.00 Ry     beta= 0.50
     Davidson diagonalization with overlap
     ethr =  6.58E-09,  avg # of iterations =  3.0

     total cpu time spent up to now is        9.1 secs

     total energy              =    -501.41351541 Ry
     estimated scf accuracy    <       0.00001159 Ry

     iteration # 30     ecut=    30.00 Ry     beta= 0.50
     Davidson diagonalization with overlap
     c_bands:  1 eigenvalues not converged
     ethr =  4.53E-09,  avg # of iterations = 20.0

     total cpu time spent up to now is        9.3 secs

     total energy              =    -501.41351787 Ry
     estimated scf accuracy    <       0.00001464 Ry

     iteration # 31     ecut=    30.00 Ry     beta= 0.50
     Davidson diagonalization with overlap
     ethr =  4.53E-09,  avg # of iterations = 18.0

     total cpu time spent up to now is        9.5 secs

     total energy              =    -501.41351734 Ry
     estimated scf accuracy    <       0.00001601 Ry

     iteration # 32     ecut=    30.00 Ry     beta= 0.50
     Davidson diagonalization with overlap
     ethr =  4.53E-09,  avg # of iterations =  1.0

     total cpu time spent up to now is        9.5 secs

     total energy              =    -501.41351707 Ry
     estimated scf accuracy    <       0.00001286 Ry

     iteration # 33     ecut=    30.00 Ry     beta= 0.50
     Davidson diagonalization with overlap
     ethr =  4.53E-09,  avg # of iterations =  2.0

     total cpu time spent up to now is        9.6 secs

     total energy              =    -501.41351667 Ry
     estimated scf accuracy    <       0.00001097 Ry

     iteration # 34     ecut=    30.00 Ry     beta= 0.50
     Davidson diagonalization with overlap
     ethr =  4.28E-09,  avg # of iterations =  2.0

     total cpu time spent up to now is        9.7 secs

     total energy              =    -501.41351625 Ry
     estimated scf accuracy    <       0.00000849 Ry

     iteration # 35     ecut=    30.00 Ry     beta= 0.50
     Davidson diagonalization with overlap
     c_bands:  1 eigenvalues not converged
     ethr =  3.32E-09,  avg # of iterations = 20.0

     total cpu time spent up to now is        9.9 secs

     total energy              =    -501.41351765 Ry
     estimated scf accuracy    <       0.00000635 Ry

     iteration # 36     ecut=    30.00 Ry     beta= 0.50
     Davidson diagonalization with overlap
     ethr =  2.48E-09,  avg # of iterations = 18.0

     total cpu time spent up to now is       10.0 secs

     total energy              =    -501.41351793 Ry
     estimated scf accuracy    <       0.00000568 Ry

     iteration # 37     ecut=    30.00 Ry     beta= 0.50
     Davidson diagonalization with overlap
     ethr =  2.22E-09,  avg # of iterations =  1.0

     total cpu time spent up to now is       10.1 secs

     total energy              =    -501.41351795 Ry
     estimated scf accuracy    <       0.00000609 Ry

     iteration # 38     ecut=    30.00 Ry     beta= 0.50
     Davidson diagonalization with overlap
     ethr =  2.22E-09,  avg # of iterations =  1.0

     total cpu time spent up to now is       10.2 secs

     total energy              =    -501.41351781 Ry
     estimated scf accuracy    <       0.00000625 Ry

     iteration # 39     ecut=    30.00 Ry     beta= 0.50
     Davidson diagonalization with overlap
     ethr =  2.22E-09,  avg # of iterations =  1.0

     total cpu time spent up to now is       10.3 secs

     total energy              =    -501.41351777 Ry
     estimated scf accuracy    <       0.00000570 Ry

     iteration # 40     ecut=    30.00 Ry     beta= 0.50
     Davidson diagonalization with overlap
     ethr =  2.22E-09,  avg # of iterations =  1.0

     total cpu time spent up to now is       10.3 secs

     total energy              =    -501.41351777 Ry
     estimated scf accuracy    <       0.00000541 Ry

     iteration # 41     ecut=    30.00 Ry     beta= 0.50
     Davidson diagonalization with overlap
     ethr =  2.11E-09,  avg # of iterations =  1.0

     total cpu time spent up to now is       10.4 secs

     total energy              =    -501.41351775 Ry
     estimated scf accuracy    <       0.00000535 Ry

     iteration # 42     ecut=    30.00 Ry     beta= 0.50
     Davidson diagonalization with overlap
     ethr =  2.09E-09,  avg # of iterations =  1.0

     total cpu time spent up to now is       10.5 secs

     total energy              =    -501.41351769 Ry
     estimated scf accuracy    <       0.00000521 Ry

     iteration # 43     ecut=    30.00 Ry     beta= 0.50
     Davidson diagonalization with overlap
     ethr =  2.04E-09,  avg # of iterations =  1.0

     total cpu time spent up to now is       10.6 secs

     total energy              =    -501.41351603 Ry
     estimated scf accuracy    <       0.00000490 Ry

     iteration # 44     ecut=    30.00 Ry     beta= 0.50
     Davidson diagonalization with overlap
     c_bands:  1 eigenvalues not converged
     ethr =  1.91E-09,  avg # of iterations = 20.0

     total cpu time spent up to now is       10.8 secs

     total energy              =    -501.41351227 Ry
     estimated scf accuracy    <       0.00012723 Ry

     iteration # 45     ecut=    30.00 Ry     beta= 0.50
     Davidson diagonalization with overlap
     c_bands:  1 eigenvalues not converged
     ethr =  1.91E-09,  avg # of iterations = 20.0

     total cpu time spent up to now is       11.0 secs

     total energy              =    -501.41351654 Ry
     estimated scf accuracy    <       0.00000916 Ry

     iteration # 46     ecut=    30.00 Ry     beta= 0.50
     Davidson diagonalization with overlap
     c_bands:  1 eigenvalues not converged
     ethr =  1.91E-09,  avg # of iterations = 20.0

     total cpu time spent up to now is       11.1 secs

     total energy              =    -501.41351743 Ry
     estimated scf accuracy    <       0.00000300 Ry

     iteration # 47     ecut=    30.00 Ry     beta= 0.50
     Davidson diagonalization with overlap
     c_bands:  1 eigenvalues not converged
     ethr =  1.17E-09,  avg # of iterations = 20.0

     total cpu time spent up to now is       11.3 secs

     End of self-consistent calculation

          k = 0.0000 0.0000 0.0000 ( 10988 PWs)   bands (ev):

    -5.1451  -4.1508  -4.0651  -3.9836  -3.8736  -3.7128  -3.6568  -3.1051
    -3.0412  -2.9243  -2.8955  -2.7959  -2.6707  -2.6419  -2.5280  -2.4833
    -2.4184  -2.3609  -2.2127  -1.8198  -1.6879  -1.5859  -1.4722  -1.4315
    -1.3959  -1.1882  -0.9818  -0.5568  -0.4137  -0.3743  -0.3599  -0.1997
     0.0182   0.1924   0.3082   0.4402   0.4519   0.5079   0.5895   0.6684
     0.7258   0.7885   0.8291   0.9322   0.9827   1.1144   1.2533   1.2851
     1.3369   1.4438   1.6446   1.6815   1.7595   1.8242   1.8688   1.9835
     2.0729   2.1080   2.1722   2.2397   2.3847   2.3922   2.4946   2.6942
     2.8031   2.8595   2.8832   2.9676   3.1288   3.1600   3.1958   3.2544
     3.3038   3.4264   3.4734   3.6016   3.6525   3.7192   3.7995   3.8665
     4.1027   4.6014   4.6261   4.6486   4.8018   4.8629   4.9878   5.0331
     5.1056   5.1752   5.2906   5.3689   5.4143   5.4412   5.5589   5.5987
     5.6588   5.7241   5.8376   5.8529   5.9073   5.9292   5.9877   6.0141
     6.0841   6.1271   6.1991   6.2484   6.3021   6.3566   6.3910   6.4698
     6.5370   6.6119   6.7242   6.7671   6.8526   6.8695   6.9178   6.9774
     7.0270   7.0819   7.1400   7.2025   7.2422   7.3090   7.3669   7.4491

     highest occupied level (ev):     7.4491

!    total energy              =    -501.41351714 Ry
     estimated scf accuracy    <       0.00000055 Ry

     The total energy is the sum of the following terms:
     one-electron contribution =     205.12523849 Ry
     hartree contribution      =      18.86065697 Ry
     xc contribution           =    -151.28380544 Ry
     ewald contribution        =    -574.11560716 Ry

     convergence has been achieved in  47 iterations

     Forces acting on atoms (cartesian axes, Ry/au):

     atom    1 type  1   force =     0.04436925    0.02239664    0.03735997
     atom    2 type  1   force =    -0.00347715   -0.02017922   -0.01981953
     atom    3 type  1   force =    -0.01661783    0.00393956    0.01826798
     atom    4 type  1   force =     0.00668904   -0.00180436   -0.00328981
     atom    5 type  1   force =     0.02887732   -0.00904452    0.05039924
     atom    6 type  1   force =     0.01839004    0.00492445   -0.02919400
     atom    7 type  1   force =    -0.04528530   -0.01849182    0.01016501
     atom    8 type  1   force =    -0.00149461   -0.03039546    0.04684624
     atom    9 type  1   force =    -0.01015359    0.02406290   -0.01968760
     atom   10 type  1   force =     0.00482908   -0.00490571    0.03006794
     atom   11 type  1   force =     0.05704673    0.05429574   -0.00299916
     atom   12 type  1   force =     0.00862810    0.01889473    0.03902908
     atom   13 type  1   force =     0.03017515   -0.02554144   -0.00726481
     atom   14 type  1   force =    -0.00521562    0.00356775    0.01319237
     atom   15 type  1   force =     0.02010630   -0.01190896   -0.01070602
     atom   16 type  1   force =    -0.01758350   -0.04677573   -0.01227827
     atom   17 type  1   force =    -0.02601341   -0.04112364   -0.00313215
     atom   18 type  1   force =    -0.00808383    0.02033095   -0.00716323
     atom   19 type  1   force =    -0.00222060   -0.01670650    0.01853334
     atom   20 type  1   force =     0.00579399   -0.02421522   -0.02648141
     atom   21 type  1   force =     0.01216327   -0.01876955    0.06774269
     atom   22 type  1   force =    -0.00413884   -0.01965841    0.00295013
     atom   23 type  1   force =     0.02712452   -0.01565185   -0.01031959
     atom   24 type  1   force =     0.00088122    0.03909216   -0.02344371
     atom   25 type  1   force =    -0.01566042   -0.03290798   -0.01281188
     atom   26 type  1   force =     0.01667289    0.02056119    0.03830938
     atom   27 type  1   force =    -0.01633286   -0.02135924   -0.00592881
     atom   28 type  1   force =    -0.00002700    0.01318842    0.01311477
     atom   29 type  1   force =     0.01577049   -0.02991415    0.02158115
     atom   30 type  1   force =    -0.00458074   -0.00163875   -0.00151132
     atom   31 type  1   force =     0.01509217    0.01251124    0.01869160
     atom   32 type  1   force =    -0.05491837    0.02329381   -0.01586614
     atom   33 type  1   force =    -0.00796454    0.00667579   -0.02271026
     atom   34 type  1   force =    -0.00270385   -0.00790919   -0.02475247
     atom   35 type  1   force =     0.00746974    0.03125882   -0.00627920
     atom   36 type  1   force =     0.01599134   -0.01282804   -0.03270534
     atom   37 type  1   force =     0.00211660    0.02330664   -0.00636952
     atom   38 type  1   force =    -0.01288598   -0.01014722   -0.00800132
     atom   39 type  1   force =     0.00713830   -0.00385804    0.02516252
     atom   40 type  1   force =    -0.00074651   -0.03524281   -0.01741932
     atom   41 type  1   force =    -0.00011596   -0.00453110    0.01697128
     atom   42 type  1   force =     0.06401954   -0.03378997    0.02162131
     atom   43 type  1   force =     0.01017284   -0.00829202    0.00267076
     atom   44 type  1   force =     0.02702760    0.00251729   -0.01810139
     atom   45 type  1   force =     0.00543954    0.00097608   -0.02127044
     atom   46 type  1   force =     0.05482061    0.02375173   -0.04564138
     atom   47 type  1   force =    -0.01821330   -0.01320956   -0.00896929
     atom   48 type  1   force =    -0.02330531    0.01147234    0.00117071
     atom   49 type  1   force =    -0.01740222    0.04253771    0.01226338
     atom   50 type  1   force =     0.01117621    0.05811504   -0.00693511
     atom   51 type  1   force =     0.01701814    0.00111103   -0.03397529
     atom   52 type  1   force =    -0.02841197    0.01048539   -0.01759661
     atom   53 type  1   force =    -0.03926538   -0.04356415    0.04347282
     atom   54 type  1   force =    -0.02748209   -0.00589656   -0.05165233
     atom   55 type  1   force =    -0.07364490   -0.00737603    0.00282313
     atom   56 type  1   force =    -0.00482986    0.02479162   -0.00265060
     atom   57 type  1   force =    -0.01138295    0.03089759   -0.03839111
     atom   58 type  1   force =    -0.02605859    0.00433371   -0.00373809
     atom   59 type  1   force =     0.01364636    0.00196956    0.02980094
     atom   60 type  1   force =     0.03739287    0.02780583    0.04353918
     atom   61 type  1   force =    -0.00833528    0.00498021   -0.03859508
     atom   62 type  1   force =     0.00786154   -0.02969946   -0.03512237
     atom   63 type  1   force =    -0.02956324    0.01981252    0.03354862
     atom   64 type  1   force =    -0.02978518    0.01947823   -0.00652159

     Total force =     0.341200     Total SCF correction =     0.001201


     Computing stress (Cartesian axis) and pressure

          total   stress  (Ry/bohr**3)                   (kbar)     P=      -29.93
  -0.00011006   0.00004159   0.00003520          -16.19        6.12        5.18
   0.00004159  -0.00034594   0.00000881            6.12      -50.89        1.30
   0.00003520   0.00000881  -0.00015433            5.18        1.30      -22.70

 
     init_run     :      1.09s CPU      4.99s WALL (       1 calls)
     electrons    :      5.89s CPU      6.23s WALL (       1 calls)
     forces       :      0.03s CPU      0.04s WALL (       1 calls)
     stress       :      0.13s CPU      0.13s WALL (       1 calls)

     Called by init_run:
     wfcinit      :      0.56s CPU      4.27s WALL (       1 calls)
                                        4.27s GPU  (       1 calls)
     potinit      :      0.04s CPU      0.15s WALL (       1 calls)
     hinit0       :      0.47s CPU      0.50s WALL (       1 calls)

     Called by electrons:
     c_bands      :      3.94s CPU      4.09s WALL (      48 calls)
     sum_band     :      0.87s CPU      0.97s WALL (      48 calls)
     v_of_rho     :      0.42s CPU      0.55s WALL (      48 calls)
     mix_rho      :      0.51s CPU      0.54s WALL (      48 calls)

     Called by c_bands:
     init_us_2    :      0.17s CPU      0.18s WALL (      97 calls)
     init_us_2:gp :      0.17s CPU      0.17s WALL (      97 calls)
     regterg      :      3.56s CPU      3.69s WALL (      48 calls)

     Called by *egterg:
     rdiaghg      :      1.79s CPU      2.59s WALL (     562 calls)
                                        2.51s GPU  (     562 calls)
     h_psi        :      1.80s CPU      4.82s WALL (     564 calls)
                                        4.81s GPU  (     564 calls)
     g_psi        :      0.00s CPU      0.01s WALL (     515 calls)
                                        0.01s GPU  (     515 calls)

     Called by h_psi:
     h_psi:calbec :      0.65s CPU      3.56s WALL (     564 calls)
                                        3.55s GPU  (     564 calls)
     vloc_psi     :      0.80s CPU      0.89s WALL (     564 calls)
                                        0.88s GPU  (     564 calls)
     add_vuspsi   :      0.28s CPU      0.33s WALL (     564 calls)
                                        0.32s GPU  (     564 calls)

     General routines
     calbec       :      0.65s CPU      3.55s WALL (     569 calls)
     fft          :      0.84s CPU      1.01s WALL (     391 calls)
                                        0.16s GPU  (     246 calls)
     ffts         :      0.12s CPU      0.14s WALL (      48 calls)
     fftw         :      0.94s CPU      1.19s WALL (    4846 calls)
                                        1.03s GPU  (    4846 calls)
 
     Parallel routines
 
     PWSCF        :      7.19s CPU     11.48s WALL

 
   This run was terminated on:  15:39: 4   9May2023            

=------------------------------------------------------------------------------=
   JOB DONE.
=------------------------------------------------------------------------------=
