An instance of this daemon is already running

     Program PWSCF v.7.1 starts on  9May2023 at 15:36:55 

     This program is part of the open-source Quantum ESPRESSO suite
     for quantum simulation of materials; please cite
         "P. Giannozzi et al., J. Phys.:Condens. Matter 21 395502 (2009);
         "P. Giannozzi et al., J. Phys.:Condens. Matter 29 465901 (2017);
         "P. Giannozzi et al., J. Chem. Phys. 152 154105 (2020);
          URL http://www.quantum-espresso.org", 
     in publications or presentations arising from this work. More details at
     http://www.quantum-espresso.org/quote

     Parallel version (MPI & OpenMP), running on       4 processor cores
     Number of MPI processes:                 4
     Threads/MPI process:                     1

     MPI processes distributed on     1 nodes
     751761 MiB available memory on the printing compute node when the environment starts
 
     Reading input from pw-si-46.in
Warning: card &CELL ignored
Warning: card / ignored

     Current dimensions of program PWSCF are:
     Max number of different atomic species (ntypx) = 10
     Max number of k-points (npk) =  40000
     Max angular momentum in pseudopotentials (lmaxx) =  4

     IMPORTANT: XC functional enforced from input :
     Exchange-correlation= PBE
                           (   1   4   3   4   0   0   0)
     Any further DFT definition will be discarded
     Please, verify this is what you really want


     gamma-point specific algorithms are used
 
     K-points division:     npool     =       2
     R & G space division:  proc/nbgrp/npool/nimage =       2
     Subspace diagonalization in iterative solution of the eigenvalue problem:
     a serial algorithm will be used

     Message from routine divide_et_impera:
     suboptimal parallelization: some nodes have no k-points
 
     Parallelization info
     --------------------
     sticks:   dense  smooth     PW     G-vecs:    dense   smooth      PW
     Min        1916    1916    502                89460    89460   12150
     Max        1917    1917    503                89465    89465   12153
     Sum        3833    3833   1005               178925   178925   24303
 
     Using Slab Decomposition
 


     bravais-lattice index     =            0
     lattice parameter (alat)  =      20.0504  a.u.
     unit-cell volume          =    8060.6389 (a.u.)^3
     number of atoms/cell      =           64
     number of atomic types    =            1
     number of electrons       =       256.00
     number of Kohn-Sham states=          128
     kinetic-energy cutoff     =      30.0000  Ry
     charge density cutoff     =     120.0000  Ry
     scf convergence threshold =      1.0E-06
     mixing beta               =       0.5000
     number of iterations used =            8  plain     mixing
     Exchange-correlation= PBE
                           (   1   4   3   4   0   0   0)

     GPU acceleration is ACTIVE.
     GPU-aware MPI enabled

     Message from routine print_cuda_info:
     High GPU oversubscription detected. Are you sure this is what you want?

     celldm(1)=  20.050405  celldm(2)=   0.000000  celldm(3)=   0.000000
     celldm(4)=   0.000000  celldm(5)=   0.000000  celldm(6)=   0.000000

     crystal axes: (cart. coord. in units of alat)
               a(1) = (   1.000000   0.000000   0.000000 )  
               a(2) = (   0.000000   1.000000   0.000000 )  
               a(3) = (   0.000000   0.000000   1.000000 )  

     reciprocal axes: (cart. coord. in units 2 pi/alat)
               b(1) = (  1.000000  0.000000  0.000000 )  
               b(2) = (  0.000000  1.000000  0.000000 )  
               b(3) = (  0.000000  0.000000  1.000000 )  


     PseudoPot. # 1 for Si read from file:
     /home/ppiaggi/pseudos/Si_ONCV_PBE_sr.upf
     MD5 check sum: 8553c464762ac42b85b1eed164b4d029
     Pseudo is Norm-conserving, Zval =  4.0
     Generated using ONCVPSP code by D. R. Hamann
     Using radial grid of 1510 points,  4 beta functions with: 
                l(1) =   0
                l(2) =   0
                l(3) =   1
                l(4) =   1

     atomic species   valence    mass     pseudopotential
        Si             4.00    28.08500     Si( 1.00)

     No symmetry found



   Cartesian axes

     site n.     atom                  positions (alat units)
         1           Si  tau(   1) = (   0.5366380   0.6077910   0.8448130  )
         2           Si  tau(   2) = (   0.6841910   0.2646590   0.8566420  )
         3           Si  tau(   3) = (   0.9359380   0.1088210   0.7223150  )
         4           Si  tau(   4) = (   0.0181015   0.9287060   0.2329630  )
         5           Si  tau(   5) = (   0.9579160   0.0738234   0.0227484  )
         6           Si  tau(   6) = (   0.3889160   0.9911590   0.6214740  )
         7           Si  tau(   7) = (   0.5816120   0.6652570   0.3480770  )
         8           Si  tau(   8) = (   0.3467500   0.8132720   0.0412639  )
         9           Si  tau(   9) = (   0.5685080   0.9875430   0.8938140  )
        10           Si  tau(  10) = (   0.3543390   0.4677320   0.7330430  )
        11           Si  tau(  11) = (   0.1336900   0.0406408   0.8584500  )
        12           Si  tau(  12) = (   0.3221500   0.1827370   0.6961690  )
        13           Si  tau(  13) = (   0.4846680   0.3313580   0.5845930  )
        14           Si  tau(  14) = (   0.2589070   0.3287530   0.1032650  )
        15           Si  tau(  15) = (   0.0888853   0.7504200   0.9898980  )
        16           Si  tau(  16) = (   0.3810380   0.2250840   0.2883190  )
        17           Si  tau(  17) = (   0.3693030   0.7417110   0.6282530  )
        18           Si  tau(  18) = (   0.8799000   0.7687710   0.8658400  )
        19           Si  tau(  19) = (   0.0649810   0.2283640   0.2108150  )
        20           Si  tau(  20) = (   0.5707840   0.7379110   0.1294790  )
        21           Si  tau(  21) = (   0.8460630   0.2999600   0.0935533  )
        22           Si  tau(  22) = (   0.1959680   0.1029850   0.3607370  )
        23           Si  tau(  23) = (   0.8246750   0.0662671   0.2451830  )
        24           Si  tau(  24) = (   0.0943055   0.7514850   0.3968350  )
        25           Si  tau(  25) = (   0.8067190   0.4996280   0.1777020  )
        26           Si  tau(  26) = (   0.1521650   0.5861750   0.5861770  )
        27           Si  tau(  27) = (   0.0847492   0.8600340   0.5841980  )
        28           Si  tau(  28) = (   0.7949450   0.5234980   0.4940970  )
        29           Si  tau(  29) = (   0.6055840   0.2286750   0.3989520  )
        30           Si  tau(  30) = (   0.9292230   0.3271360   0.3954480  )
        31           Si  tau(  31) = (   0.8074580   0.9865360   0.8532650  )
        32           Si  tau(  32) = (   0.7194060   0.8500250   0.6234600  )
        33           Si  tau(  33) = (   0.5901820   0.6919160   0.5611820  )
        34           Si  tau(  34) = (   0.3414410   0.3991600   0.4357660  )
        35           Si  tau(  35) = (   0.2891080   0.9156540   0.4061340  )
        36           Si  tau(  36) = (   0.8997400   0.6933950   0.6504350  )
        37           Si  tau(  37) = (   0.3394480   0.6340710   0.3677570  )
        38           Si  tau(  38) = (   0.4646970   0.8111770   0.8332610  )
        39           Si  tau(  39) = (   0.1057500   0.5574450   0.0794384  )
        40           Si  tau(  40) = (   0.1357100   0.1151000   0.5691940  )
        41           Si  tau(  41) = (   0.0025165   0.5269490   0.3013260  )
        42           Si  tau(  42) = (   0.1982070   0.2913140   0.8765610  )
        43           Si  tau(  43) = (   0.6474850   0.4798090   0.6545760  )
        44           Si  tau(  44) = (   0.5602600   0.0178458   0.4625210  )
        45           Si  tau(  45) = (   0.6977090   0.9684060   0.0985940  )
        46           Si  tau(  46) = (   0.4581230   0.3138680   0.9073730  )
        47           Si  tau(  47) = (   0.7574530   0.5715660   0.9708350  )
        48           Si  tau(  48) = (   0.4102380   0.1141770   0.0399052  )
        49           Si  tau(  49) = (   0.4677390   0.4870290   0.0749686  )
        50           Si  tau(  50) = (   0.2111820   0.0062835   0.0963633  )
        51           Si  tau(  51) = (   0.8785460   0.4903440   0.7819470  )
        52           Si  tau(  52) = (   0.6216340   0.2131850   0.1203770  )
        53           Si  tau(  53) = (   0.3027080   0.6106880   0.1222040  )
        54           Si  tau(  54) = (   0.8066950   0.1879540   0.5525350  )
        55           Si  tau(  55) = (   0.6277940   0.1178640   0.6986260  )
        56           Si  tau(  56) = (   0.5997140   0.4390600   0.2549520  )
        57           Si  tau(  57) = (   0.8468370   0.7385770   0.3627400  )
        58           Si  tau(  58) = (   0.1204940   0.3751330   0.5345370  )
        59           Si  tau(  59) = (   0.1749770   0.8275110   0.7957270  )
        60           Si  tau(  60) = (   0.9306240   0.2970920   0.8779840  )
        61           Si  tau(  61) = (   0.4683050   0.9622220   0.2492170  )
        62           Si  tau(  62) = (   0.8230340   0.7624300   0.1237050  )
        63           Si  tau(  63) = (   0.7695100   0.9764060   0.4509220  )
        64           Si  tau(  64) = (   0.0958926   0.5383690   0.8243890  )

     number of k points=     1
                       cart. coord. in units 2pi/alat
        k(    1) = (   0.0000000   0.0000000   0.0000000), wk =   2.0000000

     Dense  grid:    89463 G-vectors     FFT dimensions: (  72,  72,  72)

     Estimated max dynamical RAM per process >     131.95 MB

     Estimated total dynamical RAM >     505.94 MB

     Initial potential from superposition of free atoms

     starting charge     255.9608, renormalised to     256.0000
     Starting wfcs are  256 randomized atomic wfcs

     total cpu time spent up to now is        4.8 secs

     Self-consistent Calculation

     iteration #  1     ecut=    30.00 Ry     beta= 0.50
     Davidson diagonalization with overlap
     ethr =  1.00E-02,  avg # of iterations =  2.0

     Threshold (ethr) on eigenvalues was too large:
     Diagonalizing with lowered threshold

     Davidson diagonalization with overlap
     ethr =  3.88E-04,  avg # of iterations =  8.0

     total cpu time spent up to now is        5.1 secs

     total energy              =    -501.11278206 Ry
     estimated scf accuracy    <       1.20428157 Ry

     iteration #  2     ecut=    30.00 Ry     beta= 0.50
     Davidson diagonalization with overlap
     ethr =  4.70E-04,  avg # of iterations = 12.0

     total cpu time spent up to now is        5.2 secs

     total energy              =    -500.80230990 Ry
     estimated scf accuracy    <       3.36611683 Ry

     iteration #  3     ecut=    30.00 Ry     beta= 0.50
     Davidson diagonalization with overlap
     ethr =  4.70E-04,  avg # of iterations = 12.0

     total cpu time spent up to now is        5.4 secs

     total energy              =    -501.12712991 Ry
     estimated scf accuracy    <       2.35817109 Ry

     iteration #  4     ecut=    30.00 Ry     beta= 0.50
     Davidson diagonalization with overlap
     ethr =  4.70E-04,  avg # of iterations = 10.0

     total cpu time spent up to now is        5.5 secs

     total energy              =    -501.29636008 Ry
     estimated scf accuracy    <       0.36606931 Ry

     iteration #  5     ecut=    30.00 Ry     beta= 0.50
     Davidson diagonalization with overlap
     ethr =  1.43E-04,  avg # of iterations =  7.0

     total cpu time spent up to now is        5.6 secs

     total energy              =    -501.33067385 Ry
     estimated scf accuracy    <       0.21039439 Ry

     iteration #  6     ecut=    30.00 Ry     beta= 0.50
     Davidson diagonalization with overlap
     ethr =  8.22E-05,  avg # of iterations = 10.0

     total cpu time spent up to now is        5.8 secs

     total energy              =    -501.35778614 Ry
     estimated scf accuracy    <       0.08791313 Ry

     iteration #  7     ecut=    30.00 Ry     beta= 0.50
     Davidson diagonalization with overlap
     ethr =  3.43E-05,  avg # of iterations =  7.0

     total cpu time spent up to now is        5.9 secs

     total energy              =    -501.36141131 Ry
     estimated scf accuracy    <       0.02341604 Ry

     iteration #  8     ecut=    30.00 Ry     beta= 0.50
     Davidson diagonalization with overlap
     ethr =  9.15E-06,  avg # of iterations =  9.0

     total cpu time spent up to now is        6.0 secs

     total energy              =    -501.36463800 Ry
     estimated scf accuracy    <       0.00574411 Ry

     iteration #  9     ecut=    30.00 Ry     beta= 0.50
     Davidson diagonalization with overlap
     ethr =  2.24E-06,  avg # of iterations = 11.0

     total cpu time spent up to now is        6.1 secs

     total energy              =    -501.36522061 Ry
     estimated scf accuracy    <       0.00687132 Ry

     iteration # 10     ecut=    30.00 Ry     beta= 0.50
     Davidson diagonalization with overlap
     ethr =  2.24E-06,  avg # of iterations =  3.0

     total cpu time spent up to now is        6.2 secs

     total energy              =    -501.36537274 Ry
     estimated scf accuracy    <       0.00189472 Ry

     iteration # 11     ecut=    30.00 Ry     beta= 0.50
     Davidson diagonalization with overlap
     ethr =  7.40E-07,  avg # of iterations = 15.0

     total cpu time spent up to now is        6.4 secs

     total energy              =    -501.36573325 Ry
     estimated scf accuracy    <       0.00167276 Ry

     iteration # 12     ecut=    30.00 Ry     beta= 0.50
     Davidson diagonalization with overlap
     ethr =  6.53E-07,  avg # of iterations =  2.0

     total cpu time spent up to now is        6.5 secs

     total energy              =    -501.36556144 Ry
     estimated scf accuracy    <       0.00111223 Ry

     iteration # 13     ecut=    30.00 Ry     beta= 0.50
     Davidson diagonalization with overlap
     ethr =  4.34E-07,  avg # of iterations = 17.0

     total cpu time spent up to now is        6.7 secs

     total energy              =    -501.36573833 Ry
     estimated scf accuracy    <       0.00025147 Ry

     iteration # 14     ecut=    30.00 Ry     beta= 0.50
     Davidson diagonalization with overlap
     ethr =  9.82E-08,  avg # of iterations = 11.0

     total cpu time spent up to now is        6.8 secs

     total energy              =    -501.36573529 Ry
     estimated scf accuracy    <       0.00023566 Ry

     iteration # 15     ecut=    30.00 Ry     beta= 0.50
     Davidson diagonalization with overlap
     ethr =  9.21E-08,  avg # of iterations =  3.0

     total cpu time spent up to now is        6.9 secs

     total energy              =    -501.36573054 Ry
     estimated scf accuracy    <       0.00009826 Ry

     iteration # 16     ecut=    30.00 Ry     beta= 0.50
     Davidson diagonalization with overlap
     ethr =  3.84E-08,  avg # of iterations = 17.0

     total cpu time spent up to now is        7.1 secs

     total energy              =    -501.36574900 Ry
     estimated scf accuracy    <       0.00002031 Ry

     iteration # 17     ecut=    30.00 Ry     beta= 0.50
     Davidson diagonalization with overlap
     ethr =  7.94E-09,  avg # of iterations = 11.0

     total cpu time spent up to now is        7.2 secs

     total energy              =    -501.36574951 Ry
     estimated scf accuracy    <       0.00006453 Ry

     iteration # 18     ecut=    30.00 Ry     beta= 0.50
     Davidson diagonalization with overlap
     ethr =  7.94E-09,  avg # of iterations =  3.0

     total cpu time spent up to now is        7.3 secs

     total energy              =    -501.36574768 Ry
     estimated scf accuracy    <       0.00003690 Ry

     iteration # 19     ecut=    30.00 Ry     beta= 0.50
     Davidson diagonalization with overlap
     ethr =  7.94E-09,  avg # of iterations =  3.0

     total cpu time spent up to now is        7.4 secs

     total energy              =    -501.36574769 Ry
     estimated scf accuracy    <       0.00001118 Ry

     iteration # 20     ecut=    30.00 Ry     beta= 0.50
     Davidson diagonalization with overlap
     ethr =  4.37E-09,  avg # of iterations = 17.0

     total cpu time spent up to now is        7.6 secs

     total energy              =    -501.36574971 Ry
     estimated scf accuracy    <       0.00000384 Ry

     iteration # 21     ecut=    30.00 Ry     beta= 0.50
     Davidson diagonalization with overlap
     ethr =  1.50E-09,  avg # of iterations =  3.0

     total cpu time spent up to now is        7.6 secs

     total energy              =    -501.36574970 Ry
     estimated scf accuracy    <       0.00000360 Ry

     iteration # 22     ecut=    30.00 Ry     beta= 0.50
     Davidson diagonalization with overlap
     ethr =  1.41E-09,  avg # of iterations =  2.0

     total cpu time spent up to now is        7.7 secs

     total energy              =    -501.36574956 Ry
     estimated scf accuracy    <       0.00000249 Ry

     iteration # 23     ecut=    30.00 Ry     beta= 0.50
     Davidson diagonalization with overlap
     ethr =  9.71E-10,  avg # of iterations =  9.0

     total cpu time spent up to now is        7.8 secs

     End of self-consistent calculation

          k = 0.0000 0.0000 0.0000 ( 11168 PWs)   bands (ev):

    -5.2542  -4.2618  -4.2160  -4.1563  -4.0213  -3.9619  -3.8287  -3.4315
    -3.1987  -3.0639  -3.0325  -2.9732  -2.8874  -2.8075  -2.7841  -2.6533
    -2.4847  -2.4188  -2.3624  -2.2178  -1.8167  -1.7849  -1.6404  -1.6281
    -1.3044  -1.2659  -1.1635  -0.8844  -0.7311  -0.6122  -0.4770  -0.2655
    -0.1842  -0.0042   0.0988   0.1579   0.2495   0.3039   0.4190   0.4464
     0.5560   0.6260   0.6975   0.8043   0.8772   0.9174   1.0206   1.0669
     1.1215   1.1620   1.3378   1.3686   1.4715   1.6014   1.7021   1.7995
     1.8143   1.9321   2.0671   2.1400   2.1848   2.3268   2.3656   2.6172
     2.6516   2.7936   2.8258   2.8947   2.9273   3.0036   3.0739   3.1529
     3.2611   3.2778   3.3813   3.4398   3.4968   3.5469   3.5795   3.7423
     3.9510   4.1563   4.2893   4.3709   4.4620   4.6373   4.6709   4.8113
     4.8472   4.9313   5.0231   5.0451   5.1455   5.2132   5.2711   5.3781
     5.4169   5.4819   5.5499   5.5718   5.6180   5.7699   5.8328   5.8692
     5.9247   5.9850   6.0231   6.1087   6.1654   6.2056   6.2449   6.2607
     6.3279   6.3411   6.4769   6.5637   6.5758   6.6283   6.7086   6.7346
     6.7797   6.8009   6.8776   6.9610   6.9866   7.0550   7.1865   7.2436

     highest occupied level (ev):     7.2436

!    total energy              =    -501.36574902 Ry
     estimated scf accuracy    <       0.00000072 Ry

     The total energy is the sum of the following terms:
     one-electron contribution =     197.07071192 Ry
     hartree contribution      =      20.78814245 Ry
     xc contribution           =    -150.88644915 Ry
     ewald contribution        =    -568.33815424 Ry

     convergence has been achieved in  23 iterations

     Forces acting on atoms (cartesian axes, Ry/au):

     atom    1 type  1   force =     0.01386047   -0.06224029    0.01769987
     atom    2 type  1   force =    -0.00939096    0.01581094    0.00648720
     atom    3 type  1   force =     0.03696977    0.04945159    0.00928758
     atom    4 type  1   force =     0.01728571    0.00719636   -0.01811611
     atom    5 type  1   force =     0.01475836    0.01439113    0.00481880
     atom    6 type  1   force =     0.03134568   -0.06867079   -0.05190557
     atom    7 type  1   force =     0.00748131   -0.03753382   -0.03029973
     atom    8 type  1   force =     0.01161211    0.02281809   -0.00563497
     atom    9 type  1   force =     0.03982525    0.05702272    0.02861099
     atom   10 type  1   force =     0.00020676    0.00292758    0.02091564
     atom   11 type  1   force =    -0.01358109   -0.00040524    0.02155894
     atom   12 type  1   force =    -0.02703082    0.03815729    0.01420426
     atom   13 type  1   force =    -0.00317383   -0.00400110    0.01961442
     atom   14 type  1   force =    -0.01143088   -0.00910504   -0.01246768
     atom   15 type  1   force =    -0.04175025    0.04229969   -0.03028513
     atom   16 type  1   force =    -0.01417671    0.00065033   -0.01265527
     atom   17 type  1   force =    -0.01042302    0.02128425    0.01012827
     atom   18 type  1   force =     0.01283501   -0.01284715    0.02976414
     atom   19 type  1   force =    -0.00306833   -0.00785109   -0.00136782
     atom   20 type  1   force =     0.01691726    0.04760451    0.01417588
     atom   21 type  1   force =     0.01968318   -0.03607535   -0.01793142
     atom   22 type  1   force =    -0.01529291    0.03480152   -0.04337035
     atom   23 type  1   force =     0.02245024    0.01870964    0.02131793
     atom   24 type  1   force =     0.02272631    0.00551194   -0.03322826
     atom   25 type  1   force =     0.00758556   -0.00775868    0.02150981
     atom   26 type  1   force =     0.02227712    0.01440903    0.03936462
     atom   27 type  1   force =    -0.00641464    0.00096670    0.02850655
     atom   28 type  1   force =     0.03426824    0.03295586   -0.01547717
     atom   29 type  1   force =    -0.00122540    0.02528423   -0.00806436
     atom   30 type  1   force =     0.03043436    0.01209681    0.01691725
     atom   31 type  1   force =    -0.02279243   -0.02778860    0.02331721
     atom   32 type  1   force =     0.02721366    0.01681078    0.02741303
     atom   33 type  1   force =    -0.04291711   -0.02457989    0.01982090
     atom   34 type  1   force =    -0.04555449    0.02994466   -0.01121651
     atom   35 type  1   force =     0.02011361   -0.05034772    0.00724542
     atom   36 type  1   force =     0.02138293   -0.01099719    0.00044210
     atom   37 type  1   force =    -0.02184517   -0.02209011   -0.02009419
     atom   38 type  1   force =    -0.05459321   -0.02240282   -0.00230251
     atom   39 type  1   force =    -0.04126504   -0.08459824    0.00093861
     atom   40 type  1   force =    -0.00904866    0.01889308    0.03839097
     atom   41 type  1   force =    -0.02858225    0.00002307   -0.01479144
     atom   42 type  1   force =     0.02101960    0.01752853   -0.02023406
     atom   43 type  1   force =    -0.01435736    0.00731515    0.04561254
     atom   44 type  1   force =    -0.07054020    0.00143720   -0.01015772
     atom   45 type  1   force =    -0.03294708   -0.04262545   -0.03793651
     atom   46 type  1   force =    -0.00823693    0.02282292    0.02987559
     atom   47 type  1   force =    -0.02079499    0.04557036   -0.03795797
     atom   48 type  1   force =     0.03337129    0.00502445    0.00343649
     atom   49 type  1   force =     0.03433209   -0.05027315   -0.05252189
     atom   50 type  1   force =     0.00653930   -0.03185967   -0.02143344
     atom   51 type  1   force =    -0.02666984    0.00988414    0.00118721
     atom   52 type  1   force =     0.00450301   -0.00783533    0.00600320
     atom   53 type  1   force =     0.02878294    0.04402426    0.06179791
     atom   54 type  1   force =    -0.00726658   -0.01359540   -0.03005980
     atom   55 type  1   force =     0.00852421   -0.00677601    0.01272830
     atom   56 type  1   force =     0.01511836    0.00256436    0.01716019
     atom   57 type  1   force =    -0.00452704   -0.02563278   -0.00260947
     atom   58 type  1   force =     0.00391016   -0.02006908   -0.03105974
     atom   59 type  1   force =     0.02547290    0.00495119   -0.00872754
     atom   60 type  1   force =    -0.00561402   -0.03046768   -0.01144741
     atom   61 type  1   force =    -0.01992313   -0.00515784   -0.00894802
     atom   62 type  1   force =    -0.03371452    0.01954345   -0.01375820
     atom   63 type  1   force =     0.03533119    0.01285559   -0.00993453
     atom   64 type  1   force =     0.02001095    0.00004209    0.00574297

     Total force =     0.363361     Total SCF correction =     0.001691


     Computing stress (Cartesian axis) and pressure

          total   stress  (Ry/bohr**3)                   (kbar)     P=      -33.27
  -0.00030836  -0.00003777  -0.00000360          -45.36       -5.56       -0.53
  -0.00003777  -0.00013351   0.00000208           -5.56      -19.64        0.31
  -0.00000360   0.00000208  -0.00023664           -0.53        0.31      -34.81

 
     init_run     :      1.13s CPU      4.71s WALL (       1 calls)
     electrons    :      2.89s CPU      3.05s WALL (       1 calls)
     forces       :      0.03s CPU      0.04s WALL (       1 calls)
     stress       :      0.13s CPU      0.14s WALL (       1 calls)

     Called by init_run:
     wfcinit      :      0.58s CPU      4.00s WALL (       1 calls)
                                        4.00s GPU  (       1 calls)
     potinit      :      0.06s CPU      0.14s WALL (       1 calls)
     hinit0       :      0.47s CPU      0.50s WALL (       1 calls)

     Called by electrons:
     c_bands      :      1.91s CPU      1.98s WALL (      24 calls)
     sum_band     :      0.46s CPU      0.51s WALL (      24 calls)
     v_of_rho     :      0.24s CPU      0.33s WALL (      24 calls)
     mix_rho      :      0.23s CPU      0.25s WALL (      24 calls)

     Called by c_bands:
     init_us_2    :      0.09s CPU      0.09s WALL (      49 calls)
     init_us_2:gp :      0.08s CPU      0.09s WALL (      49 calls)
     regterg      :      1.71s CPU      1.78s WALL (      24 calls)

     Called by *egterg:
     rdiaghg      :      0.88s CPU      1.60s WALL (     227 calls)
                                        1.56s GPU  (     227 calls)
     h_psi        :      1.14s CPU      3.89s WALL (     229 calls)
                                        3.89s GPU  (     229 calls)
     g_psi        :      0.00s CPU      0.01s WALL (     204 calls)
                                        0.00s GPU  (     204 calls)

     Called by h_psi:
     h_psi:calbec :      0.57s CPU      3.24s WALL (     229 calls)
                                        3.24s GPU  (     229 calls)
     vloc_psi     :      0.44s CPU      0.51s WALL (     229 calls)
                                        0.51s GPU  (     229 calls)
     add_vuspsi   :      0.10s CPU      0.13s WALL (     229 calls)
                                        0.13s GPU  (     229 calls)

     General routines
     calbec       :      0.57s CPU      3.24s WALL (     234 calls)
     fft          :      0.68s CPU      0.81s WALL (     199 calls)
                                        0.13s GPU  (     126 calls)
     ffts         :      0.07s CPU      0.07s WALL (      24 calls)
     fftw         :      0.51s CPU      0.66s WALL (    2342 calls)
                                        0.58s GPU  (    2342 calls)
 
     Parallel routines
 
     PWSCF        :      4.23s CPU      8.03s WALL

 
   This run was terminated on:  15:37: 3   9May2023            

=------------------------------------------------------------------------------=
   JOB DONE.
=------------------------------------------------------------------------------=
