An instance of this daemon is already running

     Program PWSCF v.7.1 starts on  9May2023 at 15:30:14 

     This program is part of the open-source Quantum ESPRESSO suite
     for quantum simulation of materials; please cite
         "P. Giannozzi et al., J. Phys.:Condens. Matter 21 395502 (2009);
         "P. Giannozzi et al., J. Phys.:Condens. Matter 29 465901 (2017);
         "P. Giannozzi et al., J. Chem. Phys. 152 154105 (2020);
          URL http://www.quantum-espresso.org", 
     in publications or presentations arising from this work. More details at
     http://www.quantum-espresso.org/quote

     Parallel version (MPI & OpenMP), running on       4 processor cores
     Number of MPI processes:                 4
     Threads/MPI process:                     1

     MPI processes distributed on     1 nodes
     751779 MiB available memory on the printing compute node when the environment starts
 
     Reading input from pw-si-15.in
Warning: card &CELL ignored
Warning: card / ignored

     Current dimensions of program PWSCF are:
     Max number of different atomic species (ntypx) = 10
     Max number of k-points (npk) =  40000
     Max angular momentum in pseudopotentials (lmaxx) =  4

     IMPORTANT: XC functional enforced from input :
     Exchange-correlation= PBE
                           (   1   4   3   4   0   0   0)
     Any further DFT definition will be discarded
     Please, verify this is what you really want


     gamma-point specific algorithms are used
 
     K-points division:     npool     =       2
     R & G space division:  proc/nbgrp/npool/nimage =       2
     Subspace diagonalization in iterative solution of the eigenvalue problem:
     a serial algorithm will be used

     Message from routine divide_et_impera:
     suboptimal parallelization: some nodes have no k-points
 
     Parallelization info
     --------------------
     sticks:   dense  smooth     PW     G-vecs:    dense   smooth      PW
     Min        1941    1941    516                90975    90975   12416
     Max        1944    1944    517                90980    90980   12421
     Sum        3885    3885   1033               181955   181955   24837
 
     Using Slab Decomposition
 


     bravais-lattice index     =            0
     lattice parameter (alat)  =      20.1646  a.u.
     unit-cell volume          =    8199.1451 (a.u.)^3
     number of atoms/cell      =           64
     number of atomic types    =            1
     number of electrons       =       256.00
     number of Kohn-Sham states=          128
     kinetic-energy cutoff     =      30.0000  Ry
     charge density cutoff     =     120.0000  Ry
     scf convergence threshold =      1.0E-06
     mixing beta               =       0.5000
     number of iterations used =            8  plain     mixing
     Exchange-correlation= PBE
                           (   1   4   3   4   0   0   0)

     GPU acceleration is ACTIVE.
     GPU-aware MPI enabled

     Message from routine print_cuda_info:
     High GPU oversubscription detected. Are you sure this is what you want?

     celldm(1)=  20.164596  celldm(2)=   0.000000  celldm(3)=   0.000000
     celldm(4)=   0.000000  celldm(5)=   0.000000  celldm(6)=   0.000000

     crystal axes: (cart. coord. in units of alat)
               a(1) = (   1.000000   0.000000   0.000000 )  
               a(2) = (   0.000000   1.000000   0.000000 )  
               a(3) = (   0.000000   0.000000   1.000000 )  

     reciprocal axes: (cart. coord. in units 2 pi/alat)
               b(1) = (  1.000000  0.000000  0.000000 )  
               b(2) = (  0.000000  1.000000  0.000000 )  
               b(3) = (  0.000000  0.000000  1.000000 )  


     PseudoPot. # 1 for Si read from file:
     /home/ppiaggi/pseudos/Si_ONCV_PBE_sr.upf
     MD5 check sum: 8553c464762ac42b85b1eed164b4d029
     Pseudo is Norm-conserving, Zval =  4.0
     Generated using ONCVPSP code by D. R. Hamann
     Using radial grid of 1510 points,  4 beta functions with: 
                l(1) =   0
                l(2) =   0
                l(3) =   1
                l(4) =   1

     atomic species   valence    mass     pseudopotential
        Si             4.00    28.08500     Si( 1.00)

     No symmetry found



   Cartesian axes

     site n.     atom                  positions (alat units)
         1           Si  tau(   1) = (   0.9999040   0.7350170   0.4423440  )
         2           Si  tau(   2) = (   0.4587240   0.9970390   0.5516470  )
         3           Si  tau(   3) = (   0.5431330   0.5372100   0.0361200  )
         4           Si  tau(   4) = (   0.2617000   0.1068950   0.6577630  )
         5           Si  tau(   5) = (   0.2835090   0.8817340   0.4407110  )
         6           Si  tau(   6) = (   0.4349900   0.3655820   0.9395150  )
         7           Si  tau(   7) = (   0.6067880   0.4955620   0.7605300  )
         8           Si  tau(   8) = (   0.7695690   0.9844860   0.7022710  )
         9           Si  tau(   9) = (   0.6889570   0.4203720   0.5700670  )
        10           Si  tau(  10) = (   0.9649260   0.9022240   0.0314603  )
        11           Si  tau(  11) = (   0.2675280   0.6794900   0.5399240  )
        12           Si  tau(  12) = (   0.0880264   0.1790220   0.3464440  )
        13           Si  tau(  13) = (   0.2643480   0.9481310   0.2078280  )
        14           Si  tau(  14) = (   0.7577140   0.7799280   0.9717350  )
        15           Si  tau(  15) = (   0.9505950   0.4878690   0.3526420  )
        16           Si  tau(  16) = (   0.5215780   0.2304770   0.7985760  )
        17           Si  tau(  17) = (   0.2784480   0.6698440   0.8558920  )
        18           Si  tau(  18) = (   0.2587620   0.6956230   0.2418750  )
        19           Si  tau(  19) = (   0.7989170   0.1389920   0.0626454  )
        20           Si  tau(  20) = (   0.5277000   0.7339890   0.9156390  )
        21           Si  tau(  21) = (   0.2729230   0.0180458   0.9131260  )
        22           Si  tau(  22) = (   0.9485820   0.2623230   0.9710030  )
        23           Si  tau(  23) = (   0.9216190   0.9277750   0.5096250  )
        24           Si  tau(  24) = (   0.8471970   0.4766440   0.8565610  )
        25           Si  tau(  25) = (   0.5099090   0.7184800   0.4230030  )
        26           Si  tau(  26) = (   0.9572860   0.5006460   0.1298410  )
        27           Si  tau(  27) = (   0.2643000   0.2805060   0.3045100  )
        28           Si  tau(  28) = (   0.8001830   0.6314800   0.5282300  )
        29           Si  tau(  29) = (   0.3950270   0.5279820   0.6635320  )
        30           Si  tau(  30) = (   0.8417730   0.7165010   0.7648810  )
        31           Si  tau(  31) = (   0.7544960   0.3203520   0.2305700  )
        32           Si  tau(  32) = (   0.2000120   0.5081980   0.4256300  )
        33           Si  tau(  33) = (   0.8805870   0.0249210   0.2596670  )
        34           Si  tau(  34) = (   0.0345452   0.5212030   0.6384480  )
        35           Si  tau(  35) = (   0.7296690   0.5743480   0.3056620  )
        36           Si  tau(  36) = (   0.3732170   0.4860930   0.2199240  )
        37           Si  tau(  37) = (   0.3176500   0.2058210   0.0487681  )
        38           Si  tau(  38) = (   0.7612320   0.5731160   0.0491074  )
        39           Si  tau(  39) = (   0.5351200   0.5001330   0.4223980  )
        40           Si  tau(  40) = (   0.7200300   0.1216990   0.4781920  )
        41           Si  tau(  41) = (   0.9813820   0.9693250   0.8068630  )
        42           Si  tau(  42) = (   0.5902750   0.7105180   0.6474310  )
        43           Si  tau(  43) = (   0.5003670   0.0329137   0.8667330  )
        44           Si  tau(  44) = (   0.1277870   0.0430357   0.5084660  )
        45           Si  tau(  45) = (   0.2131610   0.8055340   0.0157982  )
        46           Si  tau(  46) = (   0.5181420   0.2440790   0.5686590  )
        47           Si  tau(  47) = (   0.6116660   0.9445330   0.3383810  )
        48           Si  tau(  48) = (   0.2342930   0.4496710   0.8816470  )
        49           Si  tau(  49) = (   0.8720960   0.3046170   0.6452690  )
        50           Si  tau(  50) = (   0.5804240   0.9004410   0.6902700  )
        51           Si  tau(  51) = (   0.1620670   0.4103580   0.0835794  )
        52           Si  tau(  52) = (   0.6167000   0.9821930   0.0522010  )
        53           Si  tau(  53) = (   0.1029720   0.7471700   0.7026860  )
        54           Si  tau(  54) = (   0.0153521   0.7246720   0.1891790  )
        55           Si  tau(  55) = (   0.7520970   0.8212520   0.2340550  )
        56           Si  tau(  56) = (   0.4606190   0.0869635   0.2076930  )
        57           Si  tau(  57) = (   0.1032160   0.1027010   0.1373870  )
        58           Si  tau(  58) = (   0.1323000   0.3169890   0.7177100  )
        59           Si  tau(  59) = (   0.7620530   0.2011150   0.8208470  )
        60           Si  tau(  60) = (   0.5326540   0.2741320   0.3021040  )
        61           Si  tau(  61) = (   0.0836171   0.1606230   0.8703400  )
        62           Si  tau(  62) = (   0.4775190   0.7705300   0.1798360  )
        63           Si  tau(  63) = (   0.9038510   0.2690160   0.4128300  )
        64           Si  tau(  64) = (   0.3064420   0.3207810   0.5696240  )

     number of k points=     1
                       cart. coord. in units 2pi/alat
        k(    1) = (   0.0000000   0.0000000   0.0000000), wk =   2.0000000

     Dense  grid:    90978 G-vectors     FFT dimensions: (  72,  72,  72)

     Estimated max dynamical RAM per process >     133.95 MB

     Estimated total dynamical RAM >     513.58 MB

     Initial potential from superposition of free atoms

     starting charge     255.9608, renormalised to     256.0000
     Starting wfcs are  256 randomized atomic wfcs

     total cpu time spent up to now is        4.8 secs

     Self-consistent Calculation

     iteration #  1     ecut=    30.00 Ry     beta= 0.50
     Davidson diagonalization with overlap
     ethr =  1.00E-02,  avg # of iterations =  2.0

     Threshold (ethr) on eigenvalues was too large:
     Diagonalizing with lowered threshold

     Davidson diagonalization with overlap
     ethr =  4.27E-04,  avg # of iterations =  6.0

     total cpu time spent up to now is        5.1 secs

     total energy              =    -501.11687289 Ry
     estimated scf accuracy    <       1.36876765 Ry

     iteration #  2     ecut=    30.00 Ry     beta= 0.50
     Davidson diagonalization with overlap
     ethr =  5.35E-04,  avg # of iterations =  9.0

     total cpu time spent up to now is        5.2 secs

     total energy              =    -500.68496097 Ry
     estimated scf accuracy    <       5.11607089 Ry

     iteration #  3     ecut=    30.00 Ry     beta= 0.50
     Davidson diagonalization with overlap
     ethr =  5.35E-04,  avg # of iterations = 12.0

     total cpu time spent up to now is        5.4 secs

     total energy              =    -501.18123317 Ry
     estimated scf accuracy    <       2.42438564 Ry

     iteration #  4     ecut=    30.00 Ry     beta= 0.50
     Davidson diagonalization with overlap
     ethr =  5.35E-04,  avg # of iterations =  9.0

     total cpu time spent up to now is        5.5 secs

     total energy              =    -501.37718227 Ry
     estimated scf accuracy    <       0.38825461 Ry

     iteration #  5     ecut=    30.00 Ry     beta= 0.50
     Davidson diagonalization with overlap
     ethr =  1.52E-04,  avg # of iterations =  7.0

     total cpu time spent up to now is        5.6 secs

     total energy              =    -501.40938597 Ry
     estimated scf accuracy    <       0.23455041 Ry

     iteration #  6     ecut=    30.00 Ry     beta= 0.50
     Davidson diagonalization with overlap
     ethr =  9.16E-05,  avg # of iterations =  6.0

     total cpu time spent up to now is        5.7 secs

     total energy              =    -501.43843426 Ry
     estimated scf accuracy    <       0.05997819 Ry

     iteration #  7     ecut=    30.00 Ry     beta= 0.50
     Davidson diagonalization with overlap
     ethr =  2.34E-05,  avg # of iterations = 10.0

     total cpu time spent up to now is        5.8 secs

     total energy              =    -501.44201877 Ry
     estimated scf accuracy    <       0.02596203 Ry

     iteration #  8     ecut=    30.00 Ry     beta= 0.50
     Davidson diagonalization with overlap
     ethr =  1.01E-05,  avg # of iterations = 11.0

     total cpu time spent up to now is        6.0 secs

     total energy              =    -501.44383572 Ry
     estimated scf accuracy    <       0.01029823 Ry

     iteration #  9     ecut=    30.00 Ry     beta= 0.50
     Davidson diagonalization with overlap
     ethr =  4.02E-06,  avg # of iterations =  8.0

     total cpu time spent up to now is        6.1 secs

     total energy              =    -501.44498535 Ry
     estimated scf accuracy    <       0.00126632 Ry

     iteration # 10     ecut=    30.00 Ry     beta= 0.50
     Davidson diagonalization with overlap
     ethr =  4.95E-07,  avg # of iterations = 10.0

     total cpu time spent up to now is        6.2 secs

     total energy              =    -501.44516513 Ry
     estimated scf accuracy    <       0.00287502 Ry

     iteration # 11     ecut=    30.00 Ry     beta= 0.50
     Davidson diagonalization with overlap
     ethr =  4.95E-07,  avg # of iterations =  6.0

     total cpu time spent up to now is        6.4 secs

     total energy              =    -501.44527897 Ry
     estimated scf accuracy    <       0.00081858 Ry

     iteration # 12     ecut=    30.00 Ry     beta= 0.50
     Davidson diagonalization with overlap
     ethr =  3.20E-07,  avg # of iterations =  3.0

     total cpu time spent up to now is        6.5 secs

     total energy              =    -501.44534362 Ry
     estimated scf accuracy    <       0.00009985 Ry

     iteration # 13     ecut=    30.00 Ry     beta= 0.50
     Davidson diagonalization with overlap
     ethr =  3.90E-08,  avg # of iterations = 13.0

     total cpu time spent up to now is        6.6 secs

     total energy              =    -501.44537501 Ry
     estimated scf accuracy    <       0.00048935 Ry

     iteration # 14     ecut=    30.00 Ry     beta= 0.50
     Davidson diagonalization with overlap
     ethr =  3.90E-08,  avg # of iterations =  7.0

     total cpu time spent up to now is        6.7 secs

     total energy              =    -501.44537674 Ry
     estimated scf accuracy    <       0.00022655 Ry

     iteration # 15     ecut=    30.00 Ry     beta= 0.50
     Davidson diagonalization with overlap
     ethr =  3.90E-08,  avg # of iterations =  3.0

     total cpu time spent up to now is        6.8 secs

     total energy              =    -501.44537793 Ry
     estimated scf accuracy    <       0.00008960 Ry

     iteration # 16     ecut=    30.00 Ry     beta= 0.50
     Davidson diagonalization with overlap
     ethr =  3.50E-08,  avg # of iterations =  3.0

     total cpu time spent up to now is        6.9 secs

     total energy              =    -501.44537665 Ry
     estimated scf accuracy    <       0.00003510 Ry

     iteration # 17     ecut=    30.00 Ry     beta= 0.50
     Davidson diagonalization with overlap
     ethr =  1.37E-08,  avg # of iterations = 12.0

     total cpu time spent up to now is        7.1 secs

     total energy              =    -501.44538293 Ry
     estimated scf accuracy    <       0.00004419 Ry

     iteration # 18     ecut=    30.00 Ry     beta= 0.50
     Davidson diagonalization with overlap
     ethr =  1.37E-08,  avg # of iterations =  3.0

     total cpu time spent up to now is        7.2 secs

     total energy              =    -501.44538482 Ry
     estimated scf accuracy    <       0.00002166 Ry

     iteration # 19     ecut=    30.00 Ry     beta= 0.50
     Davidson diagonalization with overlap
     ethr =  8.46E-09,  avg # of iterations =  2.0

     total cpu time spent up to now is        7.2 secs

     total energy              =    -501.44538360 Ry
     estimated scf accuracy    <       0.00001797 Ry

     iteration # 20     ecut=    30.00 Ry     beta= 0.50
     Davidson diagonalization with overlap
     ethr =  7.02E-09,  avg # of iterations =  3.0

     total cpu time spent up to now is        7.3 secs

     total energy              =    -501.44538392 Ry
     estimated scf accuracy    <       0.00000669 Ry

     iteration # 21     ecut=    30.00 Ry     beta= 0.50
     Davidson diagonalization with overlap
     ethr =  2.61E-09,  avg # of iterations =  8.0

     total cpu time spent up to now is        7.4 secs

     total energy              =    -501.44538474 Ry
     estimated scf accuracy    <       0.00000187 Ry

     iteration # 22     ecut=    30.00 Ry     beta= 0.50
     Davidson diagonalization with overlap
     ethr =  7.30E-10,  avg # of iterations =  4.0

     total cpu time spent up to now is        7.5 secs

     total energy              =    -501.44538479 Ry
     estimated scf accuracy    <       0.00000160 Ry

     iteration # 23     ecut=    30.00 Ry     beta= 0.50
     Davidson diagonalization with overlap
     ethr =  6.27E-10,  avg # of iterations =  2.0

     total cpu time spent up to now is        7.6 secs

     total energy              =    -501.44538457 Ry
     estimated scf accuracy    <       0.00000145 Ry

     iteration # 24     ecut=    30.00 Ry     beta= 0.50
     Davidson diagonalization with overlap
     ethr =  5.67E-10,  avg # of iterations =  7.0

     total cpu time spent up to now is        7.7 secs

     End of self-consistent calculation

          k = 0.0000 0.0000 0.0000 ( 11372 PWs)   bands (ev):

    -5.3909  -4.5557  -4.3327  -4.2807  -4.1728  -4.1125  -3.9062  -3.5756
    -3.4291  -3.2949  -3.2260  -3.1743  -3.0784  -2.9074  -2.8276  -2.7991
    -2.7255  -2.5581  -2.5160  -2.1648  -1.9679  -1.8497  -1.8000  -1.7368
    -1.6104  -1.4956  -1.4875  -1.1080  -0.9197  -0.7459  -0.6139  -0.3827
    -0.3090  -0.2183  -0.1904  -0.0567   0.0502   0.0676   0.0974   0.2390
     0.2651   0.3821   0.4713   0.5214   0.6321   0.6768   0.7570   0.8946
     1.0053   1.0599   1.1764   1.2159   1.3352   1.3580   1.4746   1.5334
     1.6810   1.7799   1.8198   2.0265   2.1400   2.1593   2.2798   2.3968
     2.4553   2.4914   2.5903   2.6891   2.7278   2.7762   2.8287   2.8914
     3.0086   3.1909   3.2667   3.3294   3.3740   3.4709   3.5104   3.7079
     3.8767   4.1604   4.2819   4.3657   4.4441   4.5027   4.5203   4.6188
     4.6869   4.7306   4.8479   4.8933   4.9474   4.9672   4.9900   5.0450
     5.1550   5.2358   5.3239   5.3613   5.4098   5.4636   5.5121   5.5576
     5.6061   5.6566   5.6711   5.7137   5.8215   5.9190   5.9379   6.0028
     6.0717   6.1088   6.1659   6.2060   6.2877   6.3644   6.4289   6.5578
     6.5916   6.6585   6.7330   6.7689   6.8473   6.8873   6.9066   6.9499

     highest occupied level (ev):     6.9499

!    total energy              =    -501.44538448 Ry
     estimated scf accuracy    <       0.00000035 Ry

     The total energy is the sum of the following terms:
     one-electron contribution =     184.61278314 Ry
     hartree contribution      =      25.10954804 Ry
     xc contribution           =    -150.78623033 Ry
     ewald contribution        =    -560.38148532 Ry

     convergence has been achieved in  24 iterations

     Forces acting on atoms (cartesian axes, Ry/au):

     atom    1 type  1   force =    -0.00455716   -0.03569438   -0.01864951
     atom    2 type  1   force =    -0.04602329    0.05503167   -0.04346600
     atom    3 type  1   force =    -0.04316319    0.01101948   -0.00821897
     atom    4 type  1   force =     0.05305015    0.00119542    0.03463862
     atom    5 type  1   force =     0.00663139    0.01958644   -0.01578449
     atom    6 type  1   force =    -0.02101900    0.03243544    0.01236912
     atom    7 type  1   force =     0.00892854    0.03665372    0.00643408
     atom    8 type  1   force =     0.08226293    0.04777232   -0.01941637
     atom    9 type  1   force =     0.02359279    0.01224099   -0.00113712
     atom   10 type  1   force =     0.02210503   -0.00018892    0.00648478
     atom   11 type  1   force =    -0.00892171    0.01434611    0.01780372
     atom   12 type  1   force =    -0.05690494   -0.03983355   -0.02026966
     atom   13 type  1   force =     0.03181795   -0.00722029    0.00347482
     atom   14 type  1   force =    -0.01479004    0.03760652    0.01207711
     atom   15 type  1   force =     0.02027070    0.01370095    0.01187662
     atom   16 type  1   force =     0.06511510    0.00914397   -0.04508719
     atom   17 type  1   force =     0.02174456   -0.02454912   -0.03283486
     atom   18 type  1   force =     0.00625348   -0.01240448    0.00967254
     atom   19 type  1   force =    -0.02189019   -0.01562527    0.03031555
     atom   20 type  1   force =    -0.02161420   -0.03244347    0.01367475
     atom   21 type  1   force =     0.01827177    0.01561537    0.00471335
     atom   22 type  1   force =    -0.06426784    0.09452032    0.06934286
     atom   23 type  1   force =     0.01218583    0.04636370    0.01078006
     atom   24 type  1   force =    -0.02793262    0.00439049   -0.01986091
     atom   25 type  1   force =    -0.00403502    0.01956174    0.00050602
     atom   26 type  1   force =     0.01993783    0.01204204    0.01973256
     atom   27 type  1   force =     0.05880154    0.07750059   -0.02531304
     atom   28 type  1   force =     0.00458266   -0.01815263   -0.01352570
     atom   29 type  1   force =     0.01193878    0.00626898   -0.00036954
     atom   30 type  1   force =     0.01979393   -0.02442731    0.00836810
     atom   31 type  1   force =    -0.01219544    0.00570164    0.00957270
     atom   32 type  1   force =    -0.03659952   -0.03111467   -0.01925117
     atom   33 type  1   force =     0.00198407   -0.02369266    0.00645130
     atom   34 type  1   force =    -0.02134924   -0.00751746   -0.01083299
     atom   35 type  1   force =     0.00132686   -0.00212847    0.01290497
     atom   36 type  1   force =    -0.01572114    0.00278911    0.00676378
     atom   37 type  1   force =    -0.01874573   -0.01516650    0.03178851
     atom   38 type  1   force =     0.02045313   -0.01824389    0.00098392
     atom   39 type  1   force =    -0.00753207   -0.03091418   -0.03177358
     atom   40 type  1   force =    -0.00848439   -0.01267862   -0.01106847
     atom   41 type  1   force =     0.00345548   -0.03766837    0.00763436
     atom   42 type  1   force =     0.02708728   -0.16826790   -0.01910097
     atom   43 type  1   force =    -0.02307070   -0.05514481    0.01336754
     atom   44 type  1   force =    -0.04608869   -0.06395531   -0.01201019
     atom   45 type  1   force =    -0.03115655    0.05777127    0.02857100
     atom   46 type  1   force =     0.00312034   -0.03919568   -0.02377315
     atom   47 type  1   force =    -0.03262552    0.03517955    0.02467618
     atom   48 type  1   force =     0.02439419    0.00753040   -0.02280952
     atom   49 type  1   force =     0.02031539    0.03890363   -0.01030506
     atom   50 type  1   force =    -0.04181978    0.09535728    0.08421116
     atom   51 type  1   force =    -0.00180626   -0.01736713    0.02727176
     atom   52 type  1   force =     0.01709414   -0.01265430    0.00878473
     atom   53 type  1   force =    -0.02737090   -0.01045722    0.00347284
     atom   54 type  1   force =     0.01312974   -0.01619607    0.01782166
     atom   55 type  1   force =     0.01549844    0.00173751   -0.02842862
     atom   56 type  1   force =     0.00851293   -0.03084433   -0.01857925
     atom   57 type  1   force =    -0.00190448   -0.02279612   -0.00935776
     atom   58 type  1   force =    -0.00879557    0.02727793    0.01219510
     atom   59 type  1   force =    -0.02151547   -0.00619581   -0.02920472
     atom   60 type  1   force =     0.00152869    0.01958975    0.02987415
     atom   61 type  1   force =     0.09846230   -0.07697999   -0.08295068
     atom   62 type  1   force =    -0.02342333   -0.00030757   -0.00833052
     atom   63 type  1   force =    -0.03394198    0.02193085    0.01996644
     atom   64 type  1   force =     0.00561801    0.02926126   -0.01686678

     Total force =     0.451561     Total SCF correction =     0.001165


     Computing stress (Cartesian axis) and pressure

          total   stress  (Ry/bohr**3)                   (kbar)     P=      -29.43
  -0.00027558  -0.00001225  -0.00003824          -40.54       -1.80       -5.63
  -0.00001225  -0.00013612   0.00000027           -1.80      -20.02        0.04
  -0.00003824   0.00000027  -0.00018846           -5.63        0.04      -27.72

 
     init_run     :      1.13s CPU      4.73s WALL (       1 calls)
     electrons    :      2.76s CPU      2.93s WALL (       1 calls)
     forces       :      0.04s CPU      0.04s WALL (       1 calls)
     stress       :      0.13s CPU      0.14s WALL (       1 calls)

     Called by init_run:
     wfcinit      :      0.58s CPU      4.02s WALL (       1 calls)
                                        4.02s GPU  (       1 calls)
     potinit      :      0.06s CPU      0.14s WALL (       1 calls)
     hinit0       :      0.47s CPU      0.50s WALL (       1 calls)

     Called by electrons:
     c_bands      :      1.75s CPU      1.82s WALL (      25 calls)
     sum_band     :      0.47s CPU      0.52s WALL (      25 calls)
     v_of_rho     :      0.24s CPU      0.34s WALL (      25 calls)
     mix_rho      :      0.26s CPU      0.27s WALL (      25 calls)

     Called by c_bands:
     init_us_2    :      0.09s CPU      0.09s WALL (      51 calls)
     init_us_2:gp :      0.09s CPU      0.09s WALL (      51 calls)
     regterg      :      1.54s CPU      1.60s WALL (      25 calls)

     Called by *egterg:
     rdiaghg      :      0.72s CPU      1.45s WALL (     190 calls)
                                        1.41s GPU  (     190 calls)
     h_psi        :      1.13s CPU      3.89s WALL (     192 calls)
                                        3.88s GPU  (     192 calls)
     g_psi        :      0.00s CPU      0.01s WALL (     166 calls)
                                        0.00s GPU  (     166 calls)

     Called by h_psi:
     h_psi:calbec :      0.57s CPU      3.24s WALL (     192 calls)
                                        3.24s GPU  (     192 calls)
     vloc_psi     :      0.46s CPU      0.53s WALL (     192 calls)
                                        0.53s GPU  (     192 calls)
     add_vuspsi   :      0.07s CPU      0.10s WALL (     192 calls)
                                        0.10s GPU  (     192 calls)

     General routines
     calbec       :      0.57s CPU      3.25s WALL (     197 calls)
     fft          :      0.69s CPU      0.81s WALL (     207 calls)
                                        0.14s GPU  (     131 calls)
     ffts         :      0.07s CPU      0.08s WALL (      25 calls)
     fftw         :      0.53s CPU      0.69s WALL (    2358 calls)
                                        0.60s GPU  (    2358 calls)
 
     Parallel routines
 
     PWSCF        :      4.11s CPU      7.93s WALL

 
   This run was terminated on:  15:30:22   9May2023            

=------------------------------------------------------------------------------=
   JOB DONE.
=------------------------------------------------------------------------------=
