An instance of this daemon is already running
An instance of this daemon is already running

     Program PWSCF v.7.1 starts on  9May2023 at 15:33:31 

     This program is part of the open-source Quantum ESPRESSO suite
     for quantum simulation of materials; please cite
         "P. Giannozzi et al., J. Phys.:Condens. Matter 21 395502 (2009);
         "P. Giannozzi et al., J. Phys.:Condens. Matter 29 465901 (2017);
         "P. Giannozzi et al., J. Chem. Phys. 152 154105 (2020);
          URL http://www.quantum-espresso.org", 
     in publications or presentations arising from this work. More details at
     http://www.quantum-espresso.org/quote

     Parallel version (MPI & OpenMP), running on       4 processor cores
     Number of MPI processes:                 4
     Threads/MPI process:                     1

     MPI processes distributed on     1 nodes
     751761 MiB available memory on the printing compute node when the environment starts
 
     Reading input from pw-si-29.in
Warning: card &CELL ignored
Warning: card / ignored

     Current dimensions of program PWSCF are:
     Max number of different atomic species (ntypx) = 10
     Max number of k-points (npk) =  40000
     Max angular momentum in pseudopotentials (lmaxx) =  4

     IMPORTANT: XC functional enforced from input :
     Exchange-correlation= PBE
                           (   1   4   3   4   0   0   0)
     Any further DFT definition will be discarded
     Please, verify this is what you really want


     gamma-point specific algorithms are used
 
     K-points division:     npool     =       2
     R & G space division:  proc/nbgrp/npool/nimage =       2
     Subspace diagonalization in iterative solution of the eigenvalue problem:
     a serial algorithm will be used

     Message from routine divide_et_impera:
     suboptimal parallelization: some nodes have no k-points
 
     Parallelization info
     --------------------
     sticks:   dense  smooth     PW     G-vecs:    dense   smooth      PW
     Min        1880    1880    493                86768    86768   11791
     Max        1881    1881    496                86773    86773   11792
     Sum        3761    3761    989               173541   173541   23583
 
     Using Slab Decomposition
 


     bravais-lattice index     =            0
     lattice parameter (alat)  =      19.8364  a.u.
     unit-cell volume          =    7805.2333 (a.u.)^3
     number of atoms/cell      =           64
     number of atomic types    =            1
     number of electrons       =       256.00
     number of Kohn-Sham states=          128
     kinetic-energy cutoff     =      30.0000  Ry
     charge density cutoff     =     120.0000  Ry
     scf convergence threshold =      1.0E-06
     mixing beta               =       0.5000
     number of iterations used =            8  plain     mixing
     Exchange-correlation= PBE
                           (   1   4   3   4   0   0   0)

     GPU acceleration is ACTIVE.
     GPU-aware MPI enabled

     Message from routine print_cuda_info:
     High GPU oversubscription detected. Are you sure this is what you want?

     celldm(1)=  19.836359  celldm(2)=   0.000000  celldm(3)=   0.000000
     celldm(4)=   0.000000  celldm(5)=   0.000000  celldm(6)=   0.000000

     crystal axes: (cart. coord. in units of alat)
               a(1) = (   1.000000   0.000000   0.000000 )  
               a(2) = (   0.000000   1.000000   0.000000 )  
               a(3) = (   0.000000   0.000000   1.000000 )  

     reciprocal axes: (cart. coord. in units 2 pi/alat)
               b(1) = (  1.000000  0.000000  0.000000 )  
               b(2) = (  0.000000  1.000000  0.000000 )  
               b(3) = (  0.000000  0.000000  1.000000 )  


     PseudoPot. # 1 for Si read from file:
     /home/ppiaggi/pseudos/Si_ONCV_PBE_sr.upf
     MD5 check sum: 8553c464762ac42b85b1eed164b4d029
     Pseudo is Norm-conserving, Zval =  4.0
     Generated using ONCVPSP code by D. R. Hamann
     Using radial grid of 1510 points,  4 beta functions with: 
                l(1) =   0
                l(2) =   0
                l(3) =   1
                l(4) =   1

     atomic species   valence    mass     pseudopotential
        Si             4.00    28.08500     Si( 1.00)

     No symmetry found



   Cartesian axes

     site n.     atom                  positions (alat units)
         1           Si  tau(   1) = (   0.8863200   0.5781160   0.9932490  )
         2           Si  tau(   2) = (   0.9158720   0.3941860   0.2741300  )
         3           Si  tau(   3) = (   0.2130450   0.3398650   0.8575160  )
         4           Si  tau(   4) = (   0.7075080   0.5807970   0.4571710  )
         5           Si  tau(   5) = (   0.1484800   0.5414560   0.5292550  )
         6           Si  tau(   6) = (   0.4722740   0.9849170   0.3990400  )
         7           Si  tau(   7) = (   0.6209360   0.9293660   0.1312620  )
         8           Si  tau(   8) = (   0.2896430   0.3544260   0.2601730  )
         9           Si  tau(   9) = (   0.1388010   0.9307280   0.7421510  )
        10           Si  tau(  10) = (   0.1594020   0.6274390   0.2862690  )
        11           Si  tau(  11) = (   0.3115050   0.0984228   0.1641330  )
        12           Si  tau(  12) = (   0.8149060   0.8655140   0.5489220  )
        13           Si  tau(  13) = (   0.2547470   0.9390400   0.3390760  )
        14           Si  tau(  14) = (   0.7420900   0.3055890   0.8055680  )
        15           Si  tau(  15) = (   0.5630570   0.3446580   0.3069100  )
        16           Si  tau(  16) = (   0.3434040   0.8841240   0.7334120  )
        17           Si  tau(  17) = (   0.3817770   0.2234420   0.6912150  )
        18           Si  tau(  18) = (   0.5729150   0.4404020   0.8602550  )
        19           Si  tau(  19) = (   0.6339780   0.7864590   0.6491460  )
        20           Si  tau(  20) = (   0.8148590   0.1457540   0.1418610  )
        21           Si  tau(  21) = (   0.9978840   0.3778320   0.6041450  )
        22           Si  tau(  22) = (   0.4612270   0.6120600   0.6515920  )
        23           Si  tau(  23) = (   0.7178670   0.6362020   0.8329760  )
        24           Si  tau(  24) = (   0.8186730   0.5339630   0.6636410  )
        25           Si  tau(  25) = (   0.3550810   0.6980340   0.8665940  )
        26           Si  tau(  26) = (   0.7198580   0.3942880   0.1345490  )
        27           Si  tau(  27) = (   0.6758010   0.8202850   0.3421550  )
        28           Si  tau(  28) = (   0.6560770   0.3541190   0.5019220  )
        29           Si  tau(  29) = (   0.9034660   0.0382863   0.3903250  )
        30           Si  tau(  30) = (   0.2643430   0.7799850   0.5337140  )
        31           Si  tau(  31) = (   0.5139380   0.9983070   0.6221840  )
        32           Si  tau(  32) = (   0.1419780   0.7961850   0.1375790  )
        33           Si  tau(  33) = (   0.5249430   0.6578280   0.0026532  )
        34           Si  tau(  34) = (   0.0815225   0.1731470   0.3006270  )
        35           Si  tau(  35) = (   0.5022090   0.4021620   0.6615810  )
        36           Si  tau(  36) = (   0.9313100   0.6142700   0.3438190  )
        37           Si  tau(  37) = (   0.4092270   0.0689310   0.8841810  )
        38           Si  tau(  38) = (   0.8684360   0.2553420   0.4477000  )
        39           Si  tau(  39) = (   0.6317390   0.9126500   0.8738990  )
        40           Si  tau(  40) = (   0.0955961   0.9815510   0.5103200  )
        41           Si  tau(  41) = (   0.6943500   0.1595450   0.9623720  )
        42           Si  tau(  42) = (   0.2084600   0.2323740   0.5283790  )
        43           Si  tau(  43) = (   0.6382450   0.5867150   0.1882900  )
        44           Si  tau(  44) = (   0.3699940   0.8567170   0.0772896  )
        45           Si  tau(  45) = (   0.1091350   0.4339950   0.1374860  )
        46           Si  tau(  46) = (   0.0180659   0.2129220   0.0403920  )
        47           Si  tau(  47) = (   0.4853640   0.2419640   0.0472329  )
        48           Si  tau(  48) = (   0.8412740   0.0416524   0.6745990  )
        49           Si  tau(  49) = (   0.0519629   0.1630900   0.7177400  )
        50           Si  tau(  50) = (   0.8475140   0.9267030   0.8799670  )
        51           Si  tau(  51) = (   0.1462440   0.0257420   0.0039375  )
        52           Si  tau(  52) = (   0.9056910   0.9302300   0.1071980  )
        53           Si  tau(  53) = (   0.9558370   0.3695840   0.8681840  )
        54           Si  tau(  54) = (   0.9915960   0.7701060   0.7952380  )
        55           Si  tau(  55) = (   0.9802620   0.7045850   0.5849480  )
        56           Si  tau(  56) = (   0.1151330   0.6227730   0.9597490  )
        57           Si  tau(  57) = (   0.4677430   0.7132900   0.4275570  )
        58           Si  tau(  58) = (   0.2156660   0.5419220   0.7546300  )
        59           Si  tau(  59) = (   0.5709970   0.1213950   0.2490040  )
        60           Si  tau(  60) = (   0.6619250   0.1423390   0.6562470  )
        61           Si  tau(  61) = (   0.3725410   0.6473840   0.2288190  )
        62           Si  tau(  62) = (   0.3596740   0.4593860   0.0072011  )
        63           Si  tau(  63) = (   0.3517900   0.4355460   0.4532530  )
        64           Si  tau(  64) = (   0.8160670   0.7188290   0.1913140  )

     number of k points=     1
                       cart. coord. in units 2pi/alat
        k(    1) = (   0.0000000   0.0000000   0.0000000), wk =   2.0000000

     Dense  grid:    86771 G-vectors     FFT dimensions: (  72,  72,  72)

     Estimated max dynamical RAM per process >     128.27 MB

     Estimated total dynamical RAM >     491.91 MB

     Initial potential from superposition of free atoms

     starting charge     255.9608, renormalised to     256.0000
     Starting wfcs are  256 randomized atomic wfcs

     total cpu time spent up to now is        5.0 secs

     Self-consistent Calculation

     iteration #  1     ecut=    30.00 Ry     beta= 0.50
     Davidson diagonalization with overlap
     ethr =  1.00E-02,  avg # of iterations =  2.0

     Threshold (ethr) on eigenvalues was too large:
     Diagonalizing with lowered threshold

     Davidson diagonalization with overlap
     ethr =  4.30E-04,  avg # of iterations =  4.0

     total cpu time spent up to now is        5.2 secs

     total energy              =    -501.14382084 Ry
     estimated scf accuracy    <       1.37477603 Ry

     iteration #  2     ecut=    30.00 Ry     beta= 0.50
     Davidson diagonalization with overlap
     ethr =  5.37E-04,  avg # of iterations = 16.0

     total cpu time spent up to now is        5.4 secs

     total energy              =    -500.43099957 Ry
     estimated scf accuracy    <       9.08137398 Ry

     iteration #  3     ecut=    30.00 Ry     beta= 0.50
     Davidson diagonalization with overlap
     ethr =  5.37E-04,  avg # of iterations = 11.0

     total cpu time spent up to now is        5.6 secs

     total energy              =    -501.30953202 Ry
     estimated scf accuracy    <       1.74429173 Ry

     iteration #  4     ecut=    30.00 Ry     beta= 0.50
     Davidson diagonalization with overlap
     ethr =  5.37E-04,  avg # of iterations =  8.0

     total cpu time spent up to now is        5.7 secs

     total energy              =    -501.43978527 Ry
     estimated scf accuracy    <       0.34602566 Ry

     iteration #  5     ecut=    30.00 Ry     beta= 0.50
     Davidson diagonalization with overlap
     ethr =  1.35E-04,  avg # of iterations = 10.0

     total cpu time spent up to now is        5.8 secs

     total energy              =    -501.47138465 Ry
     estimated scf accuracy    <       0.13771119 Ry

     iteration #  6     ecut=    30.00 Ry     beta= 0.50
     Davidson diagonalization with overlap
     ethr =  5.38E-05,  avg # of iterations =  7.0

     total cpu time spent up to now is        5.9 secs

     total energy              =    -501.48814702 Ry
     estimated scf accuracy    <       0.09613744 Ry

     iteration #  7     ecut=    30.00 Ry     beta= 0.50
     Davidson diagonalization with overlap
     ethr =  3.76E-05,  avg # of iterations =  3.0

     total cpu time spent up to now is        6.0 secs

     total energy              =    -501.49267204 Ry
     estimated scf accuracy    <       0.02121752 Ry

     iteration #  8     ecut=    30.00 Ry     beta= 0.50
     Davidson diagonalization with overlap
     ethr =  8.29E-06,  avg # of iterations = 10.0

     total cpu time spent up to now is        6.2 secs

     total energy              =    -501.49657364 Ry
     estimated scf accuracy    <       0.01720710 Ry

     iteration #  9     ecut=    30.00 Ry     beta= 0.50
     Davidson diagonalization with overlap
     ethr =  6.72E-06,  avg # of iterations =  3.0

     total cpu time spent up to now is        6.3 secs

     total energy              =    -501.49641439 Ry
     estimated scf accuracy    <       0.00914692 Ry

     iteration # 10     ecut=    30.00 Ry     beta= 0.50
     Davidson diagonalization with overlap
     ethr =  3.57E-06,  avg # of iterations =  7.0

     total cpu time spent up to now is        6.4 secs

     total energy              =    -501.49704668 Ry
     estimated scf accuracy    <       0.00140047 Ry

     iteration # 11     ecut=    30.00 Ry     beta= 0.50
     Davidson diagonalization with overlap
     ethr =  5.47E-07,  avg # of iterations = 11.0

     total cpu time spent up to now is        6.5 secs

     total energy              =    -501.49747148 Ry
     estimated scf accuracy    <       0.00297845 Ry

     iteration # 12     ecut=    30.00 Ry     beta= 0.50
     Davidson diagonalization with overlap
     ethr =  5.47E-07,  avg # of iterations =  2.0

     total cpu time spent up to now is        6.6 secs

     total energy              =    -501.49724913 Ry
     estimated scf accuracy    <       0.00211542 Ry

     iteration # 13     ecut=    30.00 Ry     beta= 0.50
     Davidson diagonalization with overlap
     ethr =  5.47E-07,  avg # of iterations =  8.0

     total cpu time spent up to now is        6.7 secs

     total energy              =    -501.49736161 Ry
     estimated scf accuracy    <       0.00021036 Ry

     iteration # 14     ecut=    30.00 Ry     beta= 0.50
     Davidson diagonalization with overlap
     ethr =  8.22E-08,  avg # of iterations = 11.0

     total cpu time spent up to now is        6.8 secs

     total energy              =    -501.49742710 Ry
     estimated scf accuracy    <       0.00022314 Ry

     iteration # 15     ecut=    30.00 Ry     beta= 0.50
     Davidson diagonalization with overlap
     ethr =  8.22E-08,  avg # of iterations =  2.0

     total cpu time spent up to now is        6.9 secs

     total energy              =    -501.49741916 Ry
     estimated scf accuracy    <       0.00016378 Ry

     iteration # 16     ecut=    30.00 Ry     beta= 0.50
     Davidson diagonalization with overlap
     ethr =  6.40E-08,  avg # of iterations =  2.0

     total cpu time spent up to now is        7.0 secs

     total energy              =    -501.49741715 Ry
     estimated scf accuracy    <       0.00005796 Ry

     iteration # 17     ecut=    30.00 Ry     beta= 0.50
     Davidson diagonalization with overlap
     ethr =  2.26E-08,  avg # of iterations =  7.0

     total cpu time spent up to now is        7.1 secs

     total energy              =    -501.49742642 Ry
     estimated scf accuracy    <       0.00001256 Ry

     iteration # 18     ecut=    30.00 Ry     beta= 0.50
     Davidson diagonalization with overlap
     ethr =  4.91E-09,  avg # of iterations =  6.0

     total cpu time spent up to now is        7.2 secs

     total energy              =    -501.49742733 Ry
     estimated scf accuracy    <       0.00000604 Ry

     iteration # 19     ecut=    30.00 Ry     beta= 0.50
     Davidson diagonalization with overlap
     ethr =  2.36E-09,  avg # of iterations =  3.0

     total cpu time spent up to now is        7.3 secs

     total energy              =    -501.49742738 Ry
     estimated scf accuracy    <       0.00000331 Ry

     iteration # 20     ecut=    30.00 Ry     beta= 0.50
     Davidson diagonalization with overlap
     ethr =  1.29E-09,  avg # of iterations =  9.0

     total cpu time spent up to now is        7.4 secs

     total energy              =    -501.49742760 Ry
     estimated scf accuracy    <       0.00000164 Ry

     iteration # 21     ecut=    30.00 Ry     beta= 0.50
     Davidson diagonalization with overlap
     ethr =  6.40E-10,  avg # of iterations =  2.0

     total cpu time spent up to now is        7.5 secs

     End of self-consistent calculation

          k = 0.0000 0.0000 0.0000 ( 10912 PWs)   bands (ev):

    -5.1323  -4.1005  -4.0398  -3.9756  -3.8446  -3.7994  -3.6385  -3.0614
    -2.9694  -2.8693  -2.7667  -2.7262  -2.7069  -2.6520  -2.5405  -2.4631
    -2.3588  -2.3140  -2.1255  -1.7500  -1.5864  -1.5572  -1.4458  -1.3800
    -1.2705  -1.1330  -0.9795  -0.5148  -0.4039  -0.2776  -0.2555  -0.2166
    -0.0289   0.1920   0.3018   0.5448   0.6118   0.6495   0.7268   0.7772
     0.8697   0.9125   0.9628   1.0964   1.1432   1.2134   1.2991   1.3634
     1.4977   1.5322   1.6564   1.6866   1.7855   1.7982   1.9374   2.0212
     2.0565   2.1461   2.2990   2.3920   2.5675   2.6036   2.6824   2.6934
     2.8171   2.8925   2.9878   3.0699   3.1123   3.1960   3.2924   3.3244
     3.3742   3.4584   3.6069   3.7016   3.8069   3.9138   3.9850   4.0727
     4.1949   4.7005   4.7559   4.8101   4.9105   4.9858   5.0508   5.1309
     5.1642   5.2001   5.2791   5.3645   5.4373   5.5450   5.6371   5.6758
     5.7763   5.9096   5.9549   5.9907   6.0408   6.1105   6.1921   6.2466
     6.2526   6.3057   6.3717   6.3862   6.4525   6.4795   6.5466   6.5652
     6.6664   6.6868   6.7010   6.7413   6.8283   6.9293   6.9513   6.9961
     7.0786   7.1242   7.1959   7.2564   7.2782   7.3370   7.4356   7.4951

     highest occupied level (ev):     7.4951

!    total energy              =    -501.49742687 Ry
     estimated scf accuracy    <       0.00000085 Ry

     The total energy is the sum of the following terms:
     one-electron contribution =     203.99341092 Ry
     hartree contribution      =      20.61580818 Ry
     xc contribution           =    -151.98532532 Ry
     ewald contribution        =    -574.12132066 Ry

     convergence has been achieved in  21 iterations

     Forces acting on atoms (cartesian axes, Ry/au):

     atom    1 type  1   force =    -0.01859536   -0.01778750   -0.01269693
     atom    2 type  1   force =    -0.01842458    0.01120554   -0.02078194
     atom    3 type  1   force =     0.01080052    0.00087001   -0.01883392
     atom    4 type  1   force =     0.00754424    0.00959911   -0.00042468
     atom    5 type  1   force =     0.01300436    0.00897383    0.00175256
     atom    6 type  1   force =    -0.00017041   -0.02984882    0.00523242
     atom    7 type  1   force =     0.00395605    0.02183447   -0.02674388
     atom    8 type  1   force =    -0.00269998   -0.03635921   -0.04644256
     atom    9 type  1   force =    -0.05230405    0.04661779    0.01743554
     atom   10 type  1   force =    -0.03132519   -0.02352822    0.02333770
     atom   11 type  1   force =    -0.00135531   -0.00135819    0.00867855
     atom   12 type  1   force =     0.02152733   -0.03912386   -0.05942132
     atom   13 type  1   force =     0.01153246    0.00291055   -0.00231907
     atom   14 type  1   force =    -0.00175163   -0.00519799   -0.02944459
     atom   15 type  1   force =    -0.02425421   -0.00730525   -0.03254531
     atom   16 type  1   force =     0.05292197   -0.01201460   -0.00465761
     atom   17 type  1   force =    -0.06242318   -0.03814037    0.02190494
     atom   18 type  1   force =     0.01324434    0.02637089    0.05315335
     atom   19 type  1   force =    -0.02673889   -0.02350422    0.04460876
     atom   20 type  1   force =     0.03218590   -0.00730300    0.03725343
     atom   21 type  1   force =    -0.00378971   -0.00862129    0.00583050
     atom   22 type  1   force =    -0.03406080    0.06121233   -0.01574239
     atom   23 type  1   force =    -0.01706150   -0.00162109    0.01161075
     atom   24 type  1   force =     0.02546618   -0.01386214   -0.03864735
     atom   25 type  1   force =    -0.02784475    0.01160186   -0.01740719
     atom   26 type  1   force =     0.02943051   -0.02845032    0.00624863
     atom   27 type  1   force =    -0.00369138   -0.00325515    0.04474530
     atom   28 type  1   force =     0.03322777   -0.01919810    0.02393948
     atom   29 type  1   force =     0.02390796    0.01326158   -0.00833776
     atom   30 type  1   force =     0.01027352    0.00835349   -0.01319387
     atom   31 type  1   force =    -0.05547097   -0.04280077   -0.00347197
     atom   32 type  1   force =     0.01581560    0.02155707   -0.03071939
     atom   33 type  1   force =    -0.00038105   -0.01406704    0.00564374
     atom   34 type  1   force =     0.01967490    0.00560605    0.00860258
     atom   35 type  1   force =     0.00560499   -0.01104832   -0.04847242
     atom   36 type  1   force =     0.01366784   -0.03149582    0.05809379
     atom   37 type  1   force =    -0.00649042    0.00977123    0.00138763
     atom   38 type  1   force =    -0.00225708    0.00686104    0.01842191
     atom   39 type  1   force =    -0.03015374    0.01742182    0.01931744
     atom   40 type  1   force =     0.00688299    0.01676499    0.00184706
     atom   41 type  1   force =    -0.05531769   -0.03090450   -0.00537981
     atom   42 type  1   force =    -0.01812950   -0.00071004    0.00644362
     atom   43 type  1   force =    -0.03997985    0.00608346   -0.00345418
     atom   44 type  1   force =    -0.00189315   -0.01297068    0.01072025
     atom   45 type  1   force =    -0.00279726   -0.00282364    0.00577389
     atom   46 type  1   force =    -0.00087498    0.04040429    0.00300066
     atom   47 type  1   force =    -0.00063710   -0.00193036    0.00106308
     atom   48 type  1   force =     0.10404281   -0.00761197    0.04929932
     atom   49 type  1   force =    -0.00196089   -0.01455179    0.00014900
     atom   50 type  1   force =     0.03592603    0.00000815   -0.00821998
     atom   51 type  1   force =     0.02864977   -0.00365954   -0.01628770
     atom   52 type  1   force =    -0.01118947   -0.01466867   -0.00680169
     atom   53 type  1   force =     0.00835955   -0.00198910   -0.00332931
     atom   54 type  1   force =     0.00455124    0.00154326    0.03355675
     atom   55 type  1   force =    -0.05001137   -0.00193007   -0.02149781
     atom   56 type  1   force =     0.00017417    0.00756115   -0.01761890
     atom   57 type  1   force =     0.00491767    0.00616449    0.01909111
     atom   58 type  1   force =     0.01181671   -0.00262452    0.01027082
     atom   59 type  1   force =    -0.01973743    0.00839722   -0.02939823
     atom   60 type  1   force =     0.00433894    0.10854676    0.00158422
     atom   61 type  1   force =     0.02814177    0.00153235   -0.00373684
     atom   62 type  1   force =     0.03330464   -0.02805899    0.00918173
     atom   63 type  1   force =    -0.00403067    0.00855737    0.01984055
     atom   64 type  1   force =     0.01291086    0.05073302   -0.04299251

     Total force =     0.354606     Total SCF correction =     0.001922


     Computing stress (Cartesian axis) and pressure

          total   stress  (Ry/bohr**3)                   (kbar)     P=      -10.69
  -0.00003540  -0.00006688   0.00005560           -5.21       -9.84        8.18
  -0.00006688  -0.00012882   0.00003295           -9.84      -18.95        4.85
   0.00005560   0.00003295  -0.00005382            8.18        4.85       -7.92

 
     init_run     :      1.35s CPU      4.92s WALL (       1 calls)
     electrons    :      2.38s CPU      2.52s WALL (       1 calls)
     forces       :      0.04s CPU      0.04s WALL (       1 calls)
     stress       :      0.13s CPU      0.13s WALL (       1 calls)

     Called by init_run:
     wfcinit      :      0.80s CPU      4.21s WALL (       1 calls)
                                        4.21s GPU  (       1 calls)
     potinit      :      0.06s CPU      0.15s WALL (       1 calls)
     hinit0       :      0.47s CPU      0.50s WALL (       1 calls)

     Called by electrons:
     c_bands      :      1.51s CPU      1.57s WALL (      22 calls)
     sum_band     :      0.40s CPU      0.45s WALL (      22 calls)
     v_of_rho     :      0.22s CPU      0.32s WALL (      22 calls)
     mix_rho      :      0.21s CPU      0.22s WALL (      22 calls)

     Called by c_bands:
     init_us_2    :      0.08s CPU      0.08s WALL (      45 calls)
     init_us_2:gp :      0.08s CPU      0.08s WALL (      45 calls)
     regterg      :      1.33s CPU      1.38s WALL (      22 calls)

     Called by *egterg:
     rdiaghg      :      0.65s CPU      1.36s WALL (     165 calls)
                                        1.33s GPU  (     165 calls)
     h_psi        :      1.26s CPU      3.99s WALL (     167 calls)
                                        3.99s GPU  (     167 calls)
     g_psi        :      0.00s CPU      0.00s WALL (     144 calls)
                                        0.00s GPU  (     144 calls)

     Called by h_psi:
     h_psi:calbec :      0.76s CPU      3.42s WALL (     167 calls)
                                        3.42s GPU  (     167 calls)
     vloc_psi     :      0.40s CPU      0.47s WALL (     167 calls)
                                        0.46s GPU  (     167 calls)
     add_vuspsi   :      0.07s CPU      0.09s WALL (     167 calls)
                                        0.09s GPU  (     167 calls)

     General routines
     calbec       :      0.77s CPU      3.42s WALL (     172 calls)
     fft          :      0.66s CPU      0.79s WALL (     183 calls)
                                        0.14s GPU  (     116 calls)
     ffts         :      0.05s CPU      0.06s WALL (      22 calls)
     fftw         :      0.46s CPU      0.61s WALL (    2076 calls)
                                        0.53s GPU  (    2076 calls)
 
     Parallel routines
 
     PWSCF        :      3.94s CPU      7.71s WALL

 
   This run was terminated on:  15:33:39   9May2023            

=------------------------------------------------------------------------------=
   JOB DONE.
=------------------------------------------------------------------------------=
