An instance of this daemon is already running
An instance of this daemon is already running

     Program PWSCF v.7.1 starts on  9May2023 at 15:26:50 

     This program is part of the open-source Quantum ESPRESSO suite
     for quantum simulation of materials; please cite
         "P. Giannozzi et al., J. Phys.:Condens. Matter 21 395502 (2009);
         "P. Giannozzi et al., J. Phys.:Condens. Matter 29 465901 (2017);
         "P. Giannozzi et al., J. Chem. Phys. 152 154105 (2020);
          URL http://www.quantum-espresso.org", 
     in publications or presentations arising from this work. More details at
     http://www.quantum-espresso.org/quote

     Parallel version (MPI & OpenMP), running on       4 processor cores
     Number of MPI processes:                 4
     Threads/MPI process:                     1

     MPI processes distributed on     1 nodes
     751806 MiB available memory on the printing compute node when the environment starts
 
     Reading input from pw-si-0.in
Warning: card &CELL ignored
Warning: card / ignored

     Current dimensions of program PWSCF are:
     Max number of different atomic species (ntypx) = 10
     Max number of k-points (npk) =  40000
     Max angular momentum in pseudopotentials (lmaxx) =  4

     IMPORTANT: XC functional enforced from input :
     Exchange-correlation= PBE
                           (   1   4   3   4   0   0   0)
     Any further DFT definition will be discarded
     Please, verify this is what you really want


     gamma-point specific algorithms are used
 
     K-points division:     npool     =       2
     R & G space division:  proc/nbgrp/npool/nimage =       2
     Subspace diagonalization in iterative solution of the eigenvalue problem:
     a serial algorithm will be used

     Message from routine divide_et_impera:
     suboptimal parallelization: some nodes have no k-points
 
     Parallelization info
     --------------------
     sticks:   dense  smooth     PW     G-vecs:    dense   smooth      PW
     Min        1904    1904    502                88752    88752   12054
     Max        1905    1905    503                88757    88757   12057
     Sum        3809    3809   1005               177509   177509   24111
 
     Using Slab Decomposition
 


     bravais-lattice index     =            0
     lattice parameter (alat)  =      19.9876  a.u.
     unit-cell volume          =    7985.1671 (a.u.)^3
     number of atoms/cell      =           64
     number of atomic types    =            1
     number of electrons       =       256.00
     number of Kohn-Sham states=          128
     kinetic-energy cutoff     =      30.0000  Ry
     charge density cutoff     =     120.0000  Ry
     scf convergence threshold =      1.0E-06
     mixing beta               =       0.5000
     number of iterations used =            8  plain     mixing
     Exchange-correlation= PBE
                           (   1   4   3   4   0   0   0)

     GPU acceleration is ACTIVE.
     GPU-aware MPI enabled

     Message from routine print_cuda_info:
     High GPU oversubscription detected. Are you sure this is what you want?

     celldm(1)=  19.987632  celldm(2)=   0.000000  celldm(3)=   0.000000
     celldm(4)=   0.000000  celldm(5)=   0.000000  celldm(6)=   0.000000

     crystal axes: (cart. coord. in units of alat)
               a(1) = (   1.000000   0.000000   0.000000 )  
               a(2) = (   0.000000   1.000000   0.000000 )  
               a(3) = (   0.000000   0.000000   1.000000 )  

     reciprocal axes: (cart. coord. in units 2 pi/alat)
               b(1) = (  1.000000  0.000000  0.000000 )  
               b(2) = (  0.000000  1.000000  0.000000 )  
               b(3) = (  0.000000  0.000000  1.000000 )  


     PseudoPot. # 1 for Si read from file:
     /home/ppiaggi/pseudos/Si_ONCV_PBE_sr.upf
     MD5 check sum: 8553c464762ac42b85b1eed164b4d029
     Pseudo is Norm-conserving, Zval =  4.0
     Generated using ONCVPSP code by D. R. Hamann
     Using radial grid of 1510 points,  4 beta functions with: 
                l(1) =   0
                l(2) =   0
                l(3) =   1
                l(4) =   1

     atomic species   valence    mass     pseudopotential
        Si             4.00    28.08500     Si( 1.00)

     No symmetry found



   Cartesian axes

     site n.     atom                  positions (alat units)
         1           Si  tau(   1) = (   0.7878340   0.8408200   0.6986520  )
         2           Si  tau(   2) = (   0.0537457   0.7688250   0.0811882  )
         3           Si  tau(   3) = (   0.6991510   0.5169400   0.0738813  )
         4           Si  tau(   4) = (   0.4639700   0.6102590   0.6803140  )
         5           Si  tau(   5) = (   0.0426664   0.5974670   0.2375340  )
         6           Si  tau(   6) = (   0.4160120   0.2919250   0.0540243  )
         7           Si  tau(   7) = (   0.9651340   0.1080780   0.4033670  )
         8           Si  tau(   8) = (   0.5891830   0.2211180   0.6984060  )
         9           Si  tau(   9) = (   0.0433265   0.9700170   0.5724550  )
        10           Si  tau(  10) = (   0.9589490   0.1549390   0.6985480  )
        11           Si  tau(  11) = (   0.3613120   0.9172810   0.3435180  )
        12           Si  tau(  12) = (   0.9317600   0.7717750   0.5384230  )
        13           Si  tau(  13) = (   0.8281590   0.2648200   0.5382940  )
        14           Si  tau(  14) = (   0.9540070   0.2676180   0.2184750  )
        15           Si  tau(  15) = (   0.4853650   0.0840858   0.2256180  )
        16           Si  tau(  16) = (   0.5673520   0.7254100   0.8795090  )
        17           Si  tau(  17) = (   0.7028490   0.2757900   0.9634480  )
        18           Si  tau(  18) = (   0.8267440   0.8248160   0.0258437  )
        19           Si  tau(  19) = (   0.6757880   0.4581670   0.7110320  )
        20           Si  tau(  20) = (   0.2514840   0.5416320   0.2421690  )
        21           Si  tau(  21) = (   0.1272390   0.3019450   0.4597610  )
        22           Si  tau(  22) = (   0.3032080   0.1053870   0.5749900  )
        23           Si  tau(  23) = (   0.2180760   0.5247860   0.7506210  )
        24           Si  tau(  24) = (   0.3669640   0.2599060   0.3544470  )
        25           Si  tau(  25) = (   0.6097760   0.0597253   0.8545830  )
        26           Si  tau(  26) = (   0.5432690   0.7411660   0.4257000  )
        27           Si  tau(  27) = (   0.1169360   0.9151590   0.3131820  )
        28           Si  tau(  28) = (   0.2456740   0.9289670   0.6971220  )
        29           Si  tau(  29) = (   0.0748172   0.6500350   0.9136530  )
        30           Si  tau(  30) = (   0.8480940   0.0185350   0.8555700  )
        31           Si  tau(  31) = (   0.7070670   0.0024729   0.1623250  )
        32           Si  tau(  32) = (   0.0543913   0.5899620   0.5738620  )
        33           Si  tau(  33) = (   0.1660860   0.2761800   0.6713500  )
        34           Si  tau(  34) = (   0.3104300   0.7983110   0.1470040  )
        35           Si  tau(  35) = (   0.5399860   0.8235530   0.1031870  )
        36           Si  tau(  36) = (   0.0420313   0.8669810   0.8279350  )
        37           Si  tau(  37) = (   0.9400550   0.4813060   0.0712199  )
        38           Si  tau(  38) = (   0.2498910   0.9839050   0.9512320  )
        39           Si  tau(  39) = (   0.6504880   0.5148230   0.4567530  )
        40           Si  tau(  40) = (   0.1043670   0.0318254   0.1217700  )
        41           Si  tau(  41) = (   0.4449590   0.4053760   0.5198500  )
        42           Si  tau(  42) = (   0.3196500   0.7675770   0.5489260  )
        43           Si  tau(  43) = (   0.4500730   0.4499070   0.2134160  )
        44           Si  tau(  44) = (   0.7398240   0.4049000   0.2802920  )
        45           Si  tau(  45) = (   0.9150940   0.4598600   0.7064280  )
        46           Si  tau(  46) = (   0.8809960   0.1150470   0.0665134  )
        47           Si  tau(  47) = (   0.6934760   0.6985020   0.2353390  )
        48           Si  tau(  48) = (   0.1863540   0.3891970   0.0196128  )
        49           Si  tau(  49) = (   0.8167640   0.6268900   0.8468720  )
        50           Si  tau(  50) = (   0.1856410   0.1899090   0.8817690  )
        51           Si  tau(  51) = (   0.6343550   0.2116240   0.3568350  )
        52           Si  tau(  52) = (   0.9598020   0.3059610   0.8981090  )
        53           Si  tau(  53) = (   0.6427190   0.8987570   0.5212550  )
        54           Si  tau(  54) = (   0.9390010   0.4569180   0.4227450  )
        55           Si  tau(  55) = (   0.2061640   0.2237640   0.2155820  )
        56           Si  tau(  56) = (   0.8831840   0.7797910   0.3175120  )
        57           Si  tau(  57) = (   0.4600180   0.0465588   0.0019405  )
        58           Si  tau(  58) = (   0.3970110   0.3100240   0.7561440  )
        59           Si  tau(  59) = (   0.4929810   0.4859170   0.9263760  )
        60           Si  tau(  60) = (   0.5086890   0.8851790   0.7572100  )
        61           Si  tau(  61) = (   0.7700720   0.0145349   0.3711320  )
        62           Si  tau(  62) = (   0.3048320   0.6071460   0.9840510  )
        63           Si  tau(  63) = (   0.2573290   0.5425510   0.4718450  )
        64           Si  tau(  64) = (   0.5196000   0.0963185   0.5271760  )

     number of k points=     1
                       cart. coord. in units 2pi/alat
        k(    1) = (   0.0000000   0.0000000   0.0000000), wk =   2.0000000

     Dense  grid:    88755 G-vectors     FFT dimensions: (  72,  72,  72)

     Estimated max dynamical RAM per process >     130.88 MB

     Estimated total dynamical RAM >     501.87 MB

     Initial potential from superposition of free atoms

     starting charge     255.9608, renormalised to     256.0000
     Starting wfcs are  256 randomized atomic wfcs

     total cpu time spent up to now is        5.1 secs

     Self-consistent Calculation

     iteration #  1     ecut=    30.00 Ry     beta= 0.50
     Davidson diagonalization with overlap
     ethr =  1.00E-02,  avg # of iterations =  2.0

     Threshold (ethr) on eigenvalues was too large:
     Diagonalizing with lowered threshold

     Davidson diagonalization with overlap
     ethr =  4.14E-04,  avg # of iterations =  6.0

     total cpu time spent up to now is        5.3 secs

     total energy              =    -501.01767745 Ry
     estimated scf accuracy    <       1.32616167 Ry

     iteration #  2     ecut=    30.00 Ry     beta= 0.50
     Davidson diagonalization with overlap
     ethr =  5.18E-04,  avg # of iterations = 11.0

     total cpu time spent up to now is        5.5 secs

     total energy              =    -500.22314405 Ry
     estimated scf accuracy    <      11.50967763 Ry

     iteration #  3     ecut=    30.00 Ry     beta= 0.50
     Davidson diagonalization with overlap
     ethr =  5.18E-04,  avg # of iterations = 10.0

     total cpu time spent up to now is        5.6 secs

     total energy              =    -501.19977911 Ry
     estimated scf accuracy    <       1.60536042 Ry

     iteration #  4     ecut=    30.00 Ry     beta= 0.50
     Davidson diagonalization with overlap
     ethr =  5.18E-04,  avg # of iterations =  8.0

     total cpu time spent up to now is        5.7 secs

     total energy              =    -501.32349649 Ry
     estimated scf accuracy    <       0.38673010 Ry

     iteration #  5     ecut=    30.00 Ry     beta= 0.50
     Davidson diagonalization with overlap
     ethr =  1.51E-04,  avg # of iterations =  6.0

     total cpu time spent up to now is        5.8 secs

     total energy              =    -501.35014837 Ry
     estimated scf accuracy    <       0.23145405 Ry

     iteration #  6     ecut=    30.00 Ry     beta= 0.50
     Davidson diagonalization with overlap
     ethr =  9.04E-05,  avg # of iterations = 16.0

     total cpu time spent up to now is        6.0 secs

     total energy              =    -501.37662343 Ry
     estimated scf accuracy    <       0.12053694 Ry

     iteration #  7     ecut=    30.00 Ry     beta= 0.50
     Davidson diagonalization with overlap
     ethr =  4.71E-05,  avg # of iterations = 17.0

     total cpu time spent up to now is        6.2 secs

     total energy              =    -501.38292242 Ry
     estimated scf accuracy    <       0.02157955 Ry

     iteration #  8     ecut=    30.00 Ry     beta= 0.50
     Davidson diagonalization with overlap
     ethr =  8.43E-06,  avg # of iterations = 13.0

     total cpu time spent up to now is        6.3 secs

     total energy              =    -501.38572951 Ry
     estimated scf accuracy    <       0.01352223 Ry

     iteration #  9     ecut=    30.00 Ry     beta= 0.50
     Davidson diagonalization with overlap
     ethr =  5.28E-06,  avg # of iterations = 13.0

     total cpu time spent up to now is        6.5 secs

     total energy              =    -501.38724042 Ry
     estimated scf accuracy    <       0.00505036 Ry

     iteration # 10     ecut=    30.00 Ry     beta= 0.50
     Davidson diagonalization with overlap
     ethr =  1.97E-06,  avg # of iterations =  8.0

     total cpu time spent up to now is        6.6 secs

     total energy              =    -501.38745308 Ry
     estimated scf accuracy    <       0.00169603 Ry

     iteration # 11     ecut=    30.00 Ry     beta= 0.50
     Davidson diagonalization with overlap
     ethr =  6.63E-07,  avg # of iterations = 16.0

     total cpu time spent up to now is        6.8 secs

     total energy              =    -501.38766815 Ry
     estimated scf accuracy    <       0.00094317 Ry

     iteration # 12     ecut=    30.00 Ry     beta= 0.50
     Davidson diagonalization with overlap
     ethr =  3.68E-07,  avg # of iterations =  3.0

     total cpu time spent up to now is        6.8 secs

     total energy              =    -501.38768051 Ry
     estimated scf accuracy    <       0.00066526 Ry

     iteration # 13     ecut=    30.00 Ry     beta= 0.50
     Davidson diagonalization with overlap
     ethr =  2.60E-07,  avg # of iterations =  3.0

     total cpu time spent up to now is        6.9 secs

     total energy              =    -501.38770602 Ry
     estimated scf accuracy    <       0.00021352 Ry

     iteration # 14     ecut=    30.00 Ry     beta= 0.50
     Davidson diagonalization with overlap
     c_bands:  1 eigenvalues not converged
     ethr =  8.34E-08,  avg # of iterations = 20.0

     total cpu time spent up to now is        7.1 secs

     total energy              =    -501.38773902 Ry
     estimated scf accuracy    <       0.00037796 Ry

     iteration # 15     ecut=    30.00 Ry     beta= 0.50
     Davidson diagonalization with overlap
     ethr =  8.34E-08,  avg # of iterations = 16.0

     total cpu time spent up to now is        7.3 secs

     total energy              =    -501.38772678 Ry
     estimated scf accuracy    <       0.00020732 Ry

     iteration # 16     ecut=    30.00 Ry     beta= 0.50
     Davidson diagonalization with overlap
     ethr =  8.10E-08,  avg # of iterations =  3.0

     total cpu time spent up to now is        7.4 secs

     total energy              =    -501.38773005 Ry
     estimated scf accuracy    <       0.00007313 Ry

     iteration # 17     ecut=    30.00 Ry     beta= 0.50
     Davidson diagonalization with overlap
     c_bands:  1 eigenvalues not converged
     ethr =  2.86E-08,  avg # of iterations = 20.0

     total cpu time spent up to now is        7.5 secs

     total energy              =    -501.38774614 Ry
     estimated scf accuracy    <       0.00012961 Ry

     iteration # 18     ecut=    30.00 Ry     beta= 0.50
     Davidson diagonalization with overlap
     ethr =  2.86E-08,  avg # of iterations = 18.0

     total cpu time spent up to now is        7.7 secs

     total energy              =    -501.38774774 Ry
     estimated scf accuracy    <       0.00011439 Ry

     iteration # 19     ecut=    30.00 Ry     beta= 0.50
     Davidson diagonalization with overlap
     ethr =  2.86E-08,  avg # of iterations =  1.0

     total cpu time spent up to now is        7.8 secs

     total energy              =    -501.38774168 Ry
     estimated scf accuracy    <       0.00010918 Ry

     iteration # 20     ecut=    30.00 Ry     beta= 0.50
     Davidson diagonalization with overlap
     c_bands:  1 eigenvalues not converged
     ethr =  2.86E-08,  avg # of iterations = 20.0

     total cpu time spent up to now is        7.9 secs

     total energy              =    -501.38774406 Ry
     estimated scf accuracy    <       0.00001877 Ry

     iteration # 21     ecut=    30.00 Ry     beta= 0.50
     Davidson diagonalization with overlap
     c_bands:  1 eigenvalues not converged
     ethr =  7.33E-09,  avg # of iterations = 20.0

     total cpu time spent up to now is        8.1 secs

     total energy              =    -501.38774562 Ry
     estimated scf accuracy    <       0.00000469 Ry

     iteration # 22     ecut=    30.00 Ry     beta= 0.50
     Davidson diagonalization with overlap
     c_bands:  1 eigenvalues not converged
     ethr =  1.83E-09,  avg # of iterations = 20.0

     total cpu time spent up to now is        8.3 secs

     total energy              =    -501.38774626 Ry
     estimated scf accuracy    <       0.00000211 Ry

     iteration # 23     ecut=    30.00 Ry     beta= 0.50
     Davidson diagonalization with overlap
     ethr =  8.24E-10,  avg # of iterations = 15.0

     total cpu time spent up to now is        8.4 secs

     End of self-consistent calculation

          k = 0.0000 0.0000 0.0000 ( 11060 PWs)   bands (ev):

    -5.2134  -4.2260  -4.1750  -4.0728  -3.9615  -3.8532  -3.6827  -3.1970
    -3.0700  -3.0254  -2.9413  -2.8326  -2.8184  -2.7745  -2.7295  -2.6066
    -2.5166  -2.4162  -2.3684  -1.9267  -1.8080  -1.7869  -1.6060  -1.4940
    -1.4716  -1.2530  -1.1543  -0.6337  -0.5737  -0.4084  -0.2908  -0.2298
    -0.1829   0.1150   0.2116   0.2610   0.3290   0.3956   0.4550   0.5782
     0.6448   0.6925   0.7534   0.8140   0.8788   0.9207   0.9864   1.1640
     1.2294   1.2893   1.4074   1.4360   1.5573   1.6894   1.7997   1.9015
     1.9624   2.0551   2.0969   2.2297   2.3288   2.4240   2.5030   2.5465
     2.5975   2.7248   2.7807   2.8501   2.9558   3.0076   3.1537   3.2132
     3.2964   3.3476   3.4046   3.4594   3.5820   3.6871   3.7299   3.7977
     3.9454   4.4108   4.5755   4.6670   4.7244   4.7500   4.8169   4.8858
     4.9899   5.0716   5.1026   5.2081   5.2773   5.3328   5.3711   5.3989
     5.4677   5.5459   5.5712   5.6744   5.7461   5.7792   5.8769   5.9584
     5.9908   6.0417   6.1115   6.1611   6.1955   6.2964   6.3492   6.3939
     6.4312   6.5262   6.5478   6.5856   6.6279   6.6596   6.7141   6.8330
     6.9147   6.9948   7.0527   7.0988   7.1214   7.2396   7.3162   7.3470

     highest occupied level (ev):     7.3470

!    total energy              =    -501.38774595 Ry
     estimated scf accuracy    <       0.00000069 Ry

     The total energy is the sum of the following terms:
     one-electron contribution =     199.02178057 Ry
     hartree contribution      =      20.74985726 Ry
     xc contribution           =    -151.11913473 Ry
     ewald contribution        =    -570.04024905 Ry

     convergence has been achieved in  23 iterations

     Forces acting on atoms (cartesian axes, Ry/au):

     atom    1 type  1   force =    -0.02111246   -0.02688876    0.00046483
     atom    2 type  1   force =    -0.01530842    0.04479559    0.07217414
     atom    3 type  1   force =     0.01614109    0.00586223    0.00148059
     atom    4 type  1   force =    -0.02805910    0.00826222   -0.00116672
     atom    5 type  1   force =    -0.06042364    0.01112041    0.00446464
     atom    6 type  1   force =    -0.02179963   -0.01911925   -0.00931240
     atom    7 type  1   force =     0.04227392    0.02762756   -0.01361578
     atom    8 type  1   force =     0.04368409    0.02535237   -0.00291127
     atom    9 type  1   force =     0.01139395    0.01263356    0.01148625
     atom   10 type  1   force =     0.00609305   -0.02383848   -0.00298881
     atom   11 type  1   force =    -0.00805108   -0.01613722    0.00453089
     atom   12 type  1   force =     0.00241980    0.01113660   -0.00352611
     atom   13 type  1   force =     0.00876972    0.02216378    0.01086254
     atom   14 type  1   force =     0.00453691    0.00915046    0.01532190
     atom   15 type  1   force =    -0.00404321   -0.00659325    0.00974723
     atom   16 type  1   force =     0.02563422   -0.06231456    0.02636848
     atom   17 type  1   force =     0.02333390   -0.01510544   -0.00511235
     atom   18 type  1   force =     0.00534600    0.00138720   -0.02373762
     atom   19 type  1   force =    -0.00390621   -0.02324738   -0.01577217
     atom   20 type  1   force =     0.02051887    0.02718616    0.00804555
     atom   21 type  1   force =    -0.03469930    0.00667077   -0.06320084
     atom   22 type  1   force =    -0.01637845    0.00650460   -0.01009375
     atom   23 type  1   force =     0.00861891    0.00656167    0.01611231
     atom   24 type  1   force =     0.02280223   -0.00784884    0.01513183
     atom   25 type  1   force =     0.07858196    0.02199368   -0.01219629
     atom   26 type  1   force =    -0.02389597   -0.08382169   -0.01523355
     atom   27 type  1   force =    -0.02139483   -0.00494782    0.00560200
     atom   28 type  1   force =     0.00653405   -0.00988683   -0.00463013
     atom   29 type  1   force =     0.00920679   -0.03426463   -0.06908783
     atom   30 type  1   force =    -0.01499787   -0.02690648    0.00465006
     atom   31 type  1   force =    -0.02502864   -0.01742078   -0.01270146
     atom   32 type  1   force =     0.00078857    0.00264961    0.00484328
     atom   33 type  1   force =     0.01117343   -0.00398465    0.02270107
     atom   34 type  1   force =     0.00759859   -0.03720557   -0.01216343
     atom   35 type  1   force =     0.00061967    0.01646239   -0.02515146
     atom   36 type  1   force =     0.00826505   -0.00656579    0.00392679
     atom   37 type  1   force =     0.00730811   -0.02075540   -0.00746596
     atom   38 type  1   force =    -0.02192761   -0.00217332    0.00149104
     atom   39 type  1   force =    -0.05575194    0.02765624    0.03620287
     atom   40 type  1   force =    -0.01000910    0.03589925    0.00284370
     atom   41 type  1   force =    -0.00101491    0.03294085    0.02220106
     atom   42 type  1   force =     0.03175906   -0.03985964   -0.02524619
     atom   43 type  1   force =     0.02090645   -0.02570036    0.00749146
     atom   44 type  1   force =     0.02668292   -0.02041356   -0.00151604
     atom   45 type  1   force =     0.00385106   -0.02169729    0.01239563
     atom   46 type  1   force =     0.02332468    0.01481909   -0.00353890
     atom   47 type  1   force =    -0.03324257   -0.01509737   -0.02023024
     atom   48 type  1   force =    -0.01037168   -0.01812653    0.00367704
     atom   49 type  1   force =    -0.01816669    0.04364832    0.00704721
     atom   50 type  1   force =    -0.00056726    0.03363738    0.01091729
     atom   51 type  1   force =     0.00649246   -0.02201971    0.02081648
     atom   52 type  1   force =    -0.00711543    0.01095462    0.00471594
     atom   53 type  1   force =     0.03765659    0.05946625    0.05658955
     atom   54 type  1   force =     0.01869727   -0.02997631   -0.01825643
     atom   55 type  1   force =    -0.05415577    0.00729987   -0.05457879
     atom   56 type  1   force =     0.03600273    0.01451798    0.00648429
     atom   57 type  1   force =    -0.03049281    0.00131086    0.06354416
     atom   58 type  1   force =    -0.02567305    0.02920740   -0.01525364
     atom   59 type  1   force =     0.01811637    0.02393113    0.00188045
     atom   60 type  1   force =    -0.02432951    0.03399383   -0.05689657
     atom   61 type  1   force =     0.00462594   -0.01455193    0.02705550
     atom   62 type  1   force =    -0.02148747    0.00735972   -0.00121304
     atom   63 type  1   force =     0.00103516    0.02019199    0.00876760
     atom   64 type  1   force =     0.01261103   -0.00788680   -0.02523789

     Total force =     0.346978     Total SCF correction =     0.001280


     Computing stress (Cartesian axis) and pressure

          total   stress  (Ry/bohr**3)                   (kbar)     P=      -29.16
  -0.00033614  -0.00002904   0.00008704          -49.45       -4.27       12.80
  -0.00002904  -0.00014652   0.00002295           -4.27      -21.55        3.38
   0.00008704   0.00002295  -0.00011203           12.80        3.38      -16.48

 
     init_run     :      1.24s CPU      4.99s WALL (       1 calls)
     electrons    :      3.17s CPU      3.35s WALL (       1 calls)
     forces       :      0.03s CPU      0.04s WALL (       1 calls)
     stress       :      0.13s CPU      0.14s WALL (       1 calls)

     Called by init_run:
     wfcinit      :      0.69s CPU      4.26s WALL (       1 calls)
                                        4.26s GPU  (       1 calls)
     potinit      :      0.06s CPU      0.15s WALL (       1 calls)
     hinit0       :      0.47s CPU      0.49s WALL (       1 calls)

     Called by electrons:
     c_bands      :      2.19s CPU      2.27s WALL (      24 calls)
     sum_band     :      0.47s CPU      0.52s WALL (      24 calls)
     v_of_rho     :      0.23s CPU      0.34s WALL (      24 calls)
     mix_rho      :      0.23s CPU      0.25s WALL (      24 calls)

     Called by c_bands:
     init_us_2    :      0.09s CPU      0.09s WALL (      49 calls)
     init_us_2:gp :      0.08s CPU      0.09s WALL (      49 calls)
     regterg      :      1.99s CPU      2.06s WALL (      24 calls)

     Called by *egterg:
     rdiaghg      :      1.03s CPU      1.79s WALL (     308 calls)
                                        1.74s GPU  (     308 calls)
     h_psi        :      1.34s CPU      4.21s WALL (     310 calls)
                                        4.21s GPU  (     310 calls)
     g_psi        :      0.00s CPU      0.01s WALL (     285 calls)
                                        0.00s GPU  (     285 calls)

     Called by h_psi:
     h_psi:calbec :      0.69s CPU      3.48s WALL (     310 calls)
                                        3.48s GPU  (     310 calls)
     vloc_psi     :      0.45s CPU      0.53s WALL (     310 calls)
                                        0.52s GPU  (     310 calls)
     add_vuspsi   :      0.15s CPU      0.18s WALL (     310 calls)
                                        0.18s GPU  (     310 calls)

     General routines
     calbec       :      0.69s CPU      3.48s WALL (     315 calls)
     fft          :      0.67s CPU      0.81s WALL (     199 calls)
                                        0.14s GPU  (     126 calls)
     ffts         :      0.07s CPU      0.07s WALL (      24 calls)
     fftw         :      0.53s CPU      0.69s WALL (    2508 calls)
                                        0.60s GPU  (    2508 calls)
 
     Parallel routines
 
     PWSCF        :      4.62s CPU      8.60s WALL

 
   This run was terminated on:  15:26:59   9May2023            

=------------------------------------------------------------------------------=
   JOB DONE.
=------------------------------------------------------------------------------=
