-6857.053430306085
-6856.355233271788
-6856.6684622869525
-6856.878628593897
-6856.651379252276
-6856.9376423302565
-6856.754010115834
-6856.751914295049
-6856.527346771363
-6856.626445325182
-6856.619113762027
-6856.83922120384
-6856.642619771752
-6856.801777115128
-6856.518059798164
-6856.448679340893
-6856.825647213169
-6856.976583589309
-6856.552226275689
-6856.737912813537
-6857.035441812609
-6856.888970824562
-6856.631459839001
-6856.563521993246
-6856.810251964576
-6857.002892779741
-6856.475784736418
-6856.678697712936
-6857.05693894192
-6856.764720380465
-6857.013127797555
-6856.6740240217005
-6857.044620892672
-6856.898362017362
-6856.806354750179
-6856.641247909834
-6856.453220240575
-6856.507186537342
-6856.990992561292
-6856.631904064842
-6856.281777365555
-6856.624090452023
-6856.750175759733
-6856.552454034972
-6856.960095123369
-6856.391741833122
-6856.8000151780225
-6856.511803901014
-6856.880754483261
-6856.864439353837
-6856.97199833507
-6857.016969500729
-6856.905387588506
-6856.9041623959465
-6856.766296055649
-6856.67866002517
-6856.886681939008
-6856.816042138892
-6856.488148636849
-6856.6576458979225
-6856.723847385273
-6856.939682367705
-6856.8232689382185
-6856.859350144769
-6856.873625644916
-6856.979201732606
-6856.907009523041
-6856.381388445789
-6856.514220680072
-6856.9823642396395
-6856.961997199101
-6856.868383643928
-6856.724988902826
-6856.780154813451
-6856.8570215305945
-6856.911521986826
-6856.742207722309
-6856.89239769019
-6856.4879255035
-6856.680066445545
-6856.964286764939
-6856.915768731449
-6856.7799518165275
-6856.80506112099
-6856.931289288465
-6856.698915771149
-6856.690928821813
-6856.595081212025
-6857.017628016219
-6856.890377925221
-6856.767501656011
-6856.876168548738
-6856.661321475598
-6856.661621617162
-6856.584841296162
-6856.6963029340695
-6856.254166654631
-6856.566953076636
-6856.787694271579
-6856.947556389797
