An instance of this daemon is already running

     Program PWSCF v.7.1 starts on  8May2023 at 15:11:44 

     This program is part of the open-source Quantum ESPRESSO suite
     for quantum simulation of materials; please cite
         "P. Giannozzi et al., J. Phys.:Condens. Matter 21 395502 (2009);
         "P. Giannozzi et al., J. Phys.:Condens. Matter 29 465901 (2017);
         "P. Giannozzi et al., J. Chem. Phys. 152 154105 (2020);
          URL http://www.quantum-espresso.org", 
     in publications or presentations arising from this work. More details at
     http://www.quantum-espresso.org/quote

     Parallel version (MPI & OpenMP), running on       4 processor cores
     Number of MPI processes:                 4
     Threads/MPI process:                     1

     MPI processes distributed on     1 nodes
     618791 MiB available memory on the printing compute node when the environment starts
 
     Reading input from pw-si-36.in
Warning: card &CELL ignored
Warning: card / ignored

     Current dimensions of program PWSCF are:
     Max number of different atomic species (ntypx) = 10
     Max number of k-points (npk) =  40000
     Max angular momentum in pseudopotentials (lmaxx) =  4

     IMPORTANT: XC functional enforced from input :
     Exchange-correlation= PBE
                           (   1   4   3   4   0   0   0)
     Any further DFT definition will be discarded
     Please, verify this is what you really want


     gamma-point specific algorithms are used
 
     K-points division:     npool     =       2
     R & G space division:  proc/nbgrp/npool/nimage =       2
     Subspace diagonalization in iterative solution of the eigenvalue problem:
     a serial algorithm will be used

     Message from routine divide_et_impera:
     suboptimal parallelization: some nodes have no k-points
 
     Parallelization info
     --------------------
     sticks:   dense  smooth     PW     G-vecs:    dense   smooth      PW
     Min        2068    2068    548                98807    98807   13448
     Max        2073    2073    549                98808    98808   13449
     Sum        4141    4141   1097               197615   197615   26897
 
     Using Slab Decomposition
 


     bravais-lattice index     =            0
     lattice parameter (alat)  =      20.6676  a.u.
     unit-cell volume          =    8902.4979 (a.u.)^3
     number of atoms/cell      =           64
     number of atomic types    =            1
     number of electrons       =       256.00
     number of Kohn-Sham states=          128
     kinetic-energy cutoff     =      30.0000  Ry
     charge density cutoff     =     120.0000  Ry
     scf convergence threshold =      1.0E-06
     mixing beta               =       0.5000
     number of iterations used =            8  plain     mixing
     Exchange-correlation= PBE
                           (   1   4   3   4   0   0   0)

     GPU acceleration is ACTIVE.
     GPU-aware MPI enabled

     Message from routine print_cuda_info:
     High GPU oversubscription detected. Are you sure this is what you want?

     celldm(1)=  20.667554  celldm(2)=   0.000000  celldm(3)=   0.000000
     celldm(4)=   0.000000  celldm(5)=   0.000000  celldm(6)=   0.000000

     crystal axes: (cart. coord. in units of alat)
               a(1) = (   1.000000   0.000000   0.000000 )  
               a(2) = (   0.000000   1.013330   0.000000 )  
               a(3) = (   0.000000   0.000000   0.995162 )  

     reciprocal axes: (cart. coord. in units 2 pi/alat)
               b(1) = (  1.000000  0.000000  0.000000 )  
               b(2) = (  0.000000  0.986846  0.000000 )  
               b(3) = (  0.000000  0.000000  1.004861 )  


     PseudoPot. # 1 for Si read from file:
     /home/ppiaggi/pseudos/Si_ONCV_PBE_sr.upf
     MD5 check sum: 8553c464762ac42b85b1eed164b4d029
     Pseudo is Norm-conserving, Zval =  4.0
     Generated using ONCVPSP code by D. R. Hamann
     Using radial grid of 1510 points,  4 beta functions with: 
                l(1) =   0
                l(2) =   0
                l(3) =   1
                l(4) =   1

     atomic species   valence    mass     pseudopotential
        Si             4.00    28.08500     Si( 1.00)

     No symmetry found



   Cartesian axes

     site n.     atom                  positions (alat units)
         1           Si  tau(   1) = (  -0.0008608   0.0004687   0.0005511  )
         2           Si  tau(   2) = (   0.0002584   0.2558074   0.2461801  )
         3           Si  tau(   3) = (   0.2518983  -0.0004565   0.2472622  )
         4           Si  tau(   4) = (   0.2519050   0.2556157   0.0001602  )
         5           Si  tau(   5) = (   0.1261568   0.1283479   0.1232152  )
         6           Si  tau(   6) = (   0.5036329  -0.0002078   0.0004084  )
         7           Si  tau(   7) = (   0.5048535   0.2549639   0.2461477  )
         8           Si  tau(   8) = (   0.6307792   0.1273729   0.1237784  )
         9           Si  tau(   9) = (   0.7561791   0.0006000   0.2475483  )
        10           Si  tau(  10) = (   0.7565317   0.2555909  -0.0005794  )
        11           Si  tau(  11) = (   0.0004923   0.5100858   0.0005182  )
        12           Si  tau(  12) = (   0.2513326   0.5105027   0.2465210  )
        13           Si  tau(  13) = (   0.1259705   0.6383403   0.1227660  )
        14           Si  tau(  14) = (   0.3790183   0.3830196   0.1229328  )
        15           Si  tau(  15) = (   0.5039564   0.5100953   0.0007752  )
        16           Si  tau(  16) = (   0.6305120   0.6375723   0.1232459  )
        17           Si  tau(  17) = (   0.8818340   0.3828435   0.1229560  )
        18           Si  tau(  18) = (   0.7557060   0.5096125   0.2474923  )
        19           Si  tau(  19) = (   0.0001795   0.7654349   0.2477320  )
        20           Si  tau(  20) = (   0.2524123   0.7653125  -0.0004196  )
        21           Si  tau(  21) = (   0.3775683   0.8936252   0.1234388  )
        22           Si  tau(  22) = (   0.5035285   0.7651614   0.2467740  )
        23           Si  tau(  23) = (   0.7566283   0.7648464  -0.0005742  )
        24           Si  tau(  24) = (   0.8831726   0.8918203   0.1238511  )
        25           Si  tau(  25) = (  -0.0005619   0.0006818   0.4932128  )
        26           Si  tau(  26) = (   0.2518521   0.2558750   0.4944649  )
        27           Si  tau(  27) = (   0.1260836   0.1284154   0.6178415  )
        28           Si  tau(  28) = (   0.3786456   0.1284522   0.3695816  )
        29           Si  tau(  29) = (   0.5042404  -0.0007448   0.4938720  )
        30           Si  tau(  30) = (   0.6306228   0.1277275   0.6165632  )
        31           Si  tau(  31) = (   0.8824048   0.1279908   0.3698257  )
        32           Si  tau(  32) = (   0.7566530   0.2549792   0.4939457  )
        33           Si  tau(  33) = (   0.1268420   0.3822371   0.3695778  )
        34           Si  tau(  34) = (   0.0003732   0.5097866   0.4946210  )
        35           Si  tau(  35) = (   0.1257465   0.6379610   0.6175016  )
        36           Si  tau(  36) = (   0.6298361   0.3828449   0.3699621  )
        37           Si  tau(  37) = (   0.3780521   0.6384744   0.3707945  )
        38           Si  tau(  38) = (   0.3786145   0.3828889   0.6170929  )
        39           Si  tau(  39) = (   0.5048788   0.5104250   0.4934232  )
        40           Si  tau(  40) = (   0.6311829   0.6385522   0.6164327  )
        41           Si  tau(  41) = (   0.8819746   0.6383687   0.3712112  )
        42           Si  tau(  42) = (   0.8821371   0.3826370   0.6168114  )
        43           Si  tau(  43) = (   0.1254418   0.8923776   0.3698888  )
        44           Si  tau(  44) = (   0.2521173   0.7655761   0.4929279  )
        45           Si  tau(  45) = (   0.6298632   0.8920526   0.3711976  )
        46           Si  tau(  46) = (   0.3789282   0.8922506   0.6170805  )
        47           Si  tau(  47) = (   0.7571273   0.7656400   0.4933225  )
        48           Si  tau(  48) = (   0.8833220   0.8931355   0.6164559  )
        49           Si  tau(  49) = (   0.0004914   0.2543599   0.7410931  )
        50           Si  tau(  50) = (   0.2519422   0.0002247   0.7406921  )
        51           Si  tau(  51) = (   0.3782171   0.1282235   0.8650044  )
        52           Si  tau(  52) = (   0.5037261   0.2556542   0.7400544  )
        53           Si  tau(  53) = (   0.7574077  -0.0003995   0.7399806  )
        54           Si  tau(  54) = (   0.8825002   0.1283622   0.8638904  )
        55           Si  tau(  55) = (   0.1266793   0.3823276   0.8635240  )
        56           Si  tau(  56) = (   0.2528968   0.5106694   0.7414579  )
        57           Si  tau(  57) = (   0.6307533   0.3834399   0.8641605  )
        58           Si  tau(  58) = (   0.3788517   0.6374529   0.8643070  )
        59           Si  tau(  59) = (   0.7562802   0.5092619   0.7411709  )
        60           Si  tau(  60) = (   0.8819219   0.6374020   0.8641100  )
        61           Si  tau(  61) = (   0.0007835   0.7643847   0.7408620  )
        62           Si  tau(  62) = (   0.1259497   0.8935481   0.8650053  )
        63           Si  tau(  63) = (   0.5034801   0.7649648   0.7400993  )
        64           Si  tau(  64) = (   0.6306469   0.8927838   0.8634606  )

     number of k points=     1
                       cart. coord. in units 2pi/alat
        k(    1) = (   0.0000000   0.0000000   0.0000000), wk =   2.0000000

     Dense  grid:    98808 G-vectors     FFT dimensions: (  75,  75,  72)

     Estimated max dynamical RAM per process >     145.24 MB

     Estimated total dynamical RAM >     556.85 MB

     Initial potential from superposition of free atoms

     starting charge     255.9608, renormalised to     256.0000
     Starting wfcs are  256 randomized atomic wfcs

     total cpu time spent up to now is        5.1 secs

     Self-consistent Calculation

     iteration #  1     ecut=    30.00 Ry     beta= 0.50
     Davidson diagonalization with overlap
     ethr =  1.00E-02,  avg # of iterations =  2.0

     Threshold (ethr) on eigenvalues was too large:
     Diagonalizing with lowered threshold

     Davidson diagonalization with overlap
     ethr =  6.46E-04,  avg # of iterations =  2.0

     total cpu time spent up to now is        5.3 secs

     total energy              =    -503.93784122 Ry
     estimated scf accuracy    <       1.84905085 Ry

     iteration #  2     ecut=    30.00 Ry     beta= 0.50
     Davidson diagonalization with overlap
     ethr =  7.22E-04,  avg # of iterations =  1.0

     total cpu time spent up to now is        5.4 secs

     total energy              =    -503.90988807 Ry
     estimated scf accuracy    <       0.36454530 Ry

     iteration #  3     ecut=    30.00 Ry     beta= 0.50
     Davidson diagonalization with overlap
     ethr =  1.42E-04,  avg # of iterations =  2.0

     total cpu time spent up to now is        5.5 secs

     total energy              =    -503.93631386 Ry
     estimated scf accuracy    <       0.00603360 Ry

     iteration #  4     ecut=    30.00 Ry     beta= 0.50
     Davidson diagonalization with overlap
     ethr =  2.36E-06,  avg # of iterations =  8.0

     total cpu time spent up to now is        5.6 secs

     total energy              =    -503.93986258 Ry
     estimated scf accuracy    <       0.00038472 Ry

     iteration #  5     ecut=    30.00 Ry     beta= 0.50
     Davidson diagonalization with overlap
     ethr =  1.50E-07,  avg # of iterations =  6.0

     total cpu time spent up to now is        5.8 secs

     total energy              =    -503.94003151 Ry
     estimated scf accuracy    <       0.00008322 Ry

     iteration #  6     ecut=    30.00 Ry     beta= 0.50
     Davidson diagonalization with overlap
     ethr =  3.25E-08,  avg # of iterations =  5.0

     total cpu time spent up to now is        5.9 secs

     total energy              =    -503.94005687 Ry
     estimated scf accuracy    <       0.00001397 Ry

     iteration #  7     ecut=    30.00 Ry     beta= 0.50
     Davidson diagonalization with overlap
     ethr =  5.46E-09,  avg # of iterations =  4.0

     total cpu time spent up to now is        6.0 secs

     total energy              =    -503.94006062 Ry
     estimated scf accuracy    <       0.00000237 Ry

     iteration #  8     ecut=    30.00 Ry     beta= 0.50
     Davidson diagonalization with overlap
     ethr =  9.28E-10,  avg # of iterations =  6.0

     total cpu time spent up to now is        6.1 secs

     End of self-consistent calculation

          k = 0.0000 0.0000 0.0000 ( 12366 PWs)   bands (ev):

    -5.8228  -4.8219  -4.8041  -4.7933  -4.7383  -4.7019  -4.6904  -3.9574
    -3.9234  -3.9160  -3.8357  -3.8298  -3.8248  -3.8021  -3.7968  -3.7823
    -3.7459  -3.7238  -3.6990  -3.5921  -3.5213  -3.5023  -3.4124  -1.9258
    -1.8462  -1.8236  -1.7538  -1.7458  -1.6919  -1.6857  -1.6678  -1.6534
    -1.6304  -1.6062  -1.5868  -1.5699  -1.5483  -1.5388  -1.5288  -1.5191
    -1.5154  -0.9741  -0.8890  -0.8481  -0.7889   0.4468   0.4740   0.4955
     0.5052   0.5112   0.5286   0.5318   0.5497   0.5783   0.5900   0.6006
     0.6077   2.1121   2.1175   2.1359   2.1474   2.1569   2.1714   2.1992
     2.2083   2.2221   2.2266   2.2471   2.2507   2.2842   2.2964   2.3032
     2.3239   2.3338   2.3451   2.3535   2.3578   2.3741   2.3888   2.3959
     2.4245   2.4476   2.4669   2.4889   2.5065   2.5190   2.5405   3.1072
     3.1370   3.1473   3.1884   3.2499   3.2955   4.0175   4.0336   4.0461
     4.1009   4.1108   4.1183   4.1853   4.1873   4.1928   4.1973   4.2377
     4.2568   4.3960   4.5457   4.5684   4.5856   4.6074   4.6332   4.6638
     4.6852   4.7159   4.7220   4.7328   4.7493   4.7683   4.7868   4.8344
     4.8610   4.8891   4.9266   4.9561   4.9984   5.8519   6.0242   6.0772

     highest occupied level (ev):     6.0772

!    total energy              =    -503.94006083 Ry
     estimated scf accuracy    <       0.00000062 Ry

     The total energy is the sum of the following terms:
     one-electron contribution =     144.27209794 Ry
     hartree contribution      =      37.20845992 Ry
     xc contribution           =    -153.49579276 Ry
     ewald contribution        =    -531.92482594 Ry

     convergence has been achieved in   8 iterations

     Forces acting on atoms (cartesian axes, Ry/au):

     atom    1 type  1   force =     0.03170788    0.02634515   -0.02831355
     atom    2 type  1   force =     0.02510592   -0.00157682    0.00073656
     atom    3 type  1   force =    -0.00080326    0.02892982   -0.00180933
     atom    4 type  1   force =     0.00333239    0.00075635   -0.02295487
     atom    5 type  1   force =     0.00240044   -0.00191333   -0.00054337
     atom    6 type  1   force =     0.00733428    0.02370124   -0.02639319
     atom    7 type  1   force =    -0.00128591    0.00267501   -0.00015177
     atom    8 type  1   force =    -0.00100736    0.00222430   -0.00677995
     atom    9 type  1   force =    -0.00151025    0.01486479   -0.00252455
     atom   10 type  1   force =    -0.00476614   -0.00146509   -0.02100743
     atom   11 type  1   force =     0.02345408    0.00249117   -0.02886970
     atom   12 type  1   force =     0.00740734    0.00119735   -0.00084773
     atom   13 type  1   force =     0.00255258   -0.00076443    0.00126646
     atom   14 type  1   force =    -0.00617409   -0.00180869    0.00236566
     atom   15 type  1   force =     0.00461220    0.00213197   -0.02688927
     atom   16 type  1   force =    -0.00197536    0.00066149    0.00015518
     atom   17 type  1   force =    -0.02541723    0.00075424    0.00051892
     atom   18 type  1   force =     0.00117282    0.00458254   -0.00295268
     atom   19 type  1   force =     0.02660545   -0.00762134   -0.00424330
     atom   20 type  1   force =     0.00099825   -0.00022890   -0.02150757
     atom   21 type  1   force =     0.00090109   -0.02850603   -0.00143825
     atom   22 type  1   force =     0.00257597   -0.00060858   -0.00199445
     atom   23 type  1   force =    -0.00330842   -0.00031760   -0.02014943
     atom   24 type  1   force =    -0.03628906   -0.01949745    0.00091712
     atom   25 type  1   force =     0.03536734    0.02575736   -0.00177696
     atom   26 type  1   force =     0.00425167   -0.00245292   -0.00361066
     atom   27 type  1   force =     0.00277714   -0.00329178   -0.00380516
     atom   28 type  1   force =    -0.00261843   -0.00212897    0.00506571
     atom   29 type  1   force =    -0.00032310    0.02881894   -0.00107085
     atom   30 type  1   force =    -0.00225696   -0.00020083    0.00421974
     atom   31 type  1   force =    -0.02631006    0.00485568   -0.00040368
     atom   32 type  1   force =    -0.00482823    0.00261671   -0.00391298
     atom   33 type  1   force =    -0.00217653    0.00365740    0.00355788
     atom   34 type  1   force =     0.02687255    0.00192993   -0.00605504
     atom   35 type  1   force =     0.00929003   -0.00264344   -0.00042789
     atom   36 type  1   force =     0.00112604   -0.00394116    0.00252268
     atom   37 type  1   force =    -0.00084407   -0.00619693   -0.00419983
     atom   38 type  1   force =    -0.00150945    0.00399293    0.00062816
     atom   39 type  1   force =    -0.00240804    0.00177575    0.00157493
     atom   40 type  1   force =    -0.00166161   -0.00488482    0.00464382
     atom   41 type  1   force =    -0.02319739   -0.00781967   -0.00306419
     atom   42 type  1   force =    -0.02430405   -0.00406904    0.00658071
     atom   43 type  1   force =     0.00456472   -0.01789077    0.00391830
     atom   44 type  1   force =    -0.00149642   -0.00237564    0.00584026
     atom   45 type  1   force =     0.00142587   -0.02000930   -0.00662256
     atom   46 type  1   force =    -0.00823094   -0.01928653    0.00155044
     atom   47 type  1   force =    -0.00462128   -0.00033747    0.00389917
     atom   48 type  1   force =    -0.02817679   -0.02979603    0.00729029
     atom   49 type  1   force =     0.02449265    0.00849611   -0.00174203
     atom   50 type  1   force =     0.00447274    0.02209192    0.00294060
     atom   51 type  1   force =    -0.00081159    0.00044044    0.01809587
     atom   52 type  1   force =     0.00505946   -0.00204568    0.00607805
     atom   53 type  1   force =    -0.00580148    0.02652215    0.00334483
     atom   54 type  1   force =    -0.02778638   -0.00543104    0.02594134
     atom   55 type  1   force =     0.00060129    0.00232973    0.02561324
     atom   56 type  1   force =    -0.00129328   -0.00134548   -0.00290815
     atom   57 type  1   force =    -0.00715767   -0.00449996    0.02262692
     atom   58 type  1   force =    -0.00088444    0.00106342    0.02388447
     atom   59 type  1   force =    -0.00180190    0.00648271   -0.00300872
     atom   60 type  1   force =    -0.02157499   -0.00437977    0.02379930
     atom   61 type  1   force =     0.02274308    0.00493026    0.00316653
     atom   62 type  1   force =    -0.00019635   -0.02372382    0.02031864
     atom   63 type  1   force =     0.00684269   -0.00267652    0.00402014
     atom   64 type  1   force =    -0.00523945   -0.02134103    0.02489716

     Total force =     0.179340     Total SCF correction =     0.001177


     Computing stress (Cartesian axis) and pressure

          total   stress  (Ry/bohr**3)                   (kbar)     P=        4.41
   0.00004773   0.00002682  -0.00003004            7.02        3.95       -4.42
   0.00002682  -0.00003608  -0.00003317            3.95       -5.31       -4.88
  -0.00003004  -0.00003317   0.00007822           -4.42       -4.88       11.51

 
     init_run     :      1.06s CPU      4.99s WALL (       1 calls)
     electrons    :      0.97s CPU      1.06s WALL (       1 calls)
     forces       :      0.04s CPU      0.04s WALL (       1 calls)
     stress       :      0.14s CPU      0.15s WALL (       1 calls)

     Called by init_run:
     wfcinit      :      0.55s CPU      4.30s WALL (       1 calls)
                                        4.30s GPU  (       1 calls)
     potinit      :      0.20s CPU      0.30s WALL (       1 calls)
     hinit0       :      0.28s CPU      0.30s WALL (       1 calls)

     Called by electrons:
     c_bands      :      0.63s CPU      0.66s WALL (       9 calls)
     sum_band     :      0.19s CPU      0.22s WALL (       9 calls)
     v_of_rho     :      0.10s CPU      0.21s WALL (       9 calls)
     mix_rho      :      0.06s CPU      0.07s WALL (       9 calls)

     Called by c_bands:
     init_us_2    :      0.03s CPU      0.03s WALL (      19 calls)
     init_us_2:gp :      0.03s CPU      0.03s WALL (      19 calls)
     regterg      :      0.54s CPU      0.57s WALL (       9 calls)

     Called by *egterg:
     rdiaghg      :      0.19s CPU      0.96s WALL (      44 calls)
                                        0.95s GPU  (      44 calls)
     h_psi        :      0.80s CPU      3.79s WALL (      46 calls)
                                        3.79s GPU  (      46 calls)
     g_psi        :      0.00s CPU      0.00s WALL (      36 calls)
                                        0.00s GPU  (      36 calls)

     Called by h_psi:
     h_psi:calbec :      0.48s CPU      3.39s WALL (      46 calls)
                                        3.39s GPU  (      46 calls)
     vloc_psi     :      0.30s CPU      0.36s WALL (      46 calls)
                                        0.36s GPU  (      46 calls)
     add_vuspsi   :      0.02s CPU      0.03s WALL (      46 calls)
                                        0.03s GPU  (      46 calls)

     General routines
     calbec       :      0.48s CPU      3.40s WALL (      51 calls)
     fft          :      0.32s CPU      0.45s WALL (      79 calls)
                                        0.13s GPU  (      51 calls)
     ffts         :      0.03s CPU      0.03s WALL (       9 calls)
     fftw         :      0.31s CPU      0.44s WALL (     826 calls)
                                        0.40s GPU  (     826 calls)
 
     Parallel routines
 
     PWSCF        :      2.26s CPU      6.34s WALL

 
   This run was terminated on:  15:11:50   8May2023            

=------------------------------------------------------------------------------=
   JOB DONE.
=------------------------------------------------------------------------------=
