An instance of this daemon is already running

     Program PWSCF v.7.1 starts on  8May2023 at 15:15:14 

     This program is part of the open-source Quantum ESPRESSO suite
     for quantum simulation of materials; please cite
         "P. Giannozzi et al., J. Phys.:Condens. Matter 21 395502 (2009);
         "P. Giannozzi et al., J. Phys.:Condens. Matter 29 465901 (2017);
         "P. Giannozzi et al., J. Chem. Phys. 152 154105 (2020);
          URL http://www.quantum-espresso.org", 
     in publications or presentations arising from this work. More details at
     http://www.quantum-espresso.org/quote

     Parallel version (MPI & OpenMP), running on       4 processor cores
     Number of MPI processes:                 4
     Threads/MPI process:                     1

     MPI processes distributed on     1 nodes
     618740 MiB available memory on the printing compute node when the environment starts
 
     Reading input from pw-si-60.in
Warning: card &CELL ignored
Warning: card / ignored

     Current dimensions of program PWSCF are:
     Max number of different atomic species (ntypx) = 10
     Max number of k-points (npk) =  40000
     Max angular momentum in pseudopotentials (lmaxx) =  4

     IMPORTANT: XC functional enforced from input :
     Exchange-correlation= PBE
                           (   1   4   3   4   0   0   0)
     Any further DFT definition will be discarded
     Please, verify this is what you really want


     gamma-point specific algorithms are used
 
     K-points division:     npool     =       2
     R & G space division:  proc/nbgrp/npool/nimage =       2
     Subspace diagonalization in iterative solution of the eigenvalue problem:
     a serial algorithm will be used

     Message from routine divide_et_impera:
     suboptimal parallelization: some nodes have no k-points
 
     Parallelization info
     --------------------
     sticks:   dense  smooth     PW     G-vecs:    dense   smooth      PW
     Min        2076    2076    546                99537    99537   13534
     Max        2077    2077    547                99540    99540   13539
     Sum        4153    4153   1093               199077   199077   27073
 
     Using Slab Decomposition
 


     bravais-lattice index     =            0
     lattice parameter (alat)  =      20.8196  a.u.
     unit-cell volume          =    8968.3795 (a.u.)^3
     number of atoms/cell      =           64
     number of atomic types    =            1
     number of electrons       =       256.00
     number of Kohn-Sham states=          128
     kinetic-energy cutoff     =      30.0000  Ry
     charge density cutoff     =     120.0000  Ry
     scf convergence threshold =      1.0E-06
     mixing beta               =       0.5000
     number of iterations used =            8  plain     mixing
     Exchange-correlation= PBE
                           (   1   4   3   4   0   0   0)

     GPU acceleration is ACTIVE.
     GPU-aware MPI enabled

     Message from routine print_cuda_info:
     High GPU oversubscription detected. Are you sure this is what you want?

     celldm(1)=  20.819606  celldm(2)=   0.000000  celldm(3)=   0.000000
     celldm(4)=   0.000000  celldm(5)=   0.000000  celldm(6)=   0.000000

     crystal axes: (cart. coord. in units of alat)
               a(1) = (   1.000000   0.000000   0.000000 )  
               a(2) = (   0.000000   1.001341   0.000000 )  
               a(3) = (   0.000000   0.000000   0.992463 )  

     reciprocal axes: (cart. coord. in units 2 pi/alat)
               b(1) = (  1.000000  0.000000  0.000000 )  
               b(2) = (  0.000000  0.998661  0.000000 )  
               b(3) = (  0.000000  0.000000  1.007594 )  


     PseudoPot. # 1 for Si read from file:
     /home/ppiaggi/pseudos/Si_ONCV_PBE_sr.upf
     MD5 check sum: 8553c464762ac42b85b1eed164b4d029
     Pseudo is Norm-conserving, Zval =  4.0
     Generated using ONCVPSP code by D. R. Hamann
     Using radial grid of 1510 points,  4 beta functions with: 
                l(1) =   0
                l(2) =   0
                l(3) =   1
                l(4) =   1

     atomic species   valence    mass     pseudopotential
        Si             4.00    28.08500     Si( 1.00)

     No symmetry found



   Cartesian axes

     site n.     atom                  positions (alat units)
         1           Si  tau(   1) = (  -0.0001397   0.0006784  -0.0002922  )
         2           Si  tau(   2) = (  -0.0001654   0.2482027   0.2491501  )
         3           Si  tau(   3) = (   0.2500847   0.0000359   0.2490851  )
         4           Si  tau(   4) = (   0.2517049   0.2479861  -0.0004658  )
         5           Si  tau(   5) = (   0.1258367   0.1232140   0.1246327  )
         6           Si  tau(   6) = (   0.5021468   0.0006949   0.0005773  )
         7           Si  tau(   7) = (   0.5019803   0.2484570   0.2491481  )
         8           Si  tau(   8) = (   0.6267282   0.1237371   0.1249384  )
         9           Si  tau(   9) = (   0.7538196  -0.0006192   0.2491342  )
        10           Si  tau(  10) = (   0.7530418   0.2477045  -0.0008752  )
        11           Si  tau(  11) = (  -0.0001717   0.4966529  -0.0001240  )
        12           Si  tau(  12) = (   0.2517973   0.4955480   0.2481257  )
        13           Si  tau(  13) = (   0.1260834   0.6200969   0.1242605  )
        14           Si  tau(  14) = (   0.3765050   0.3714021   0.1233553  )
        15           Si  tau(  15) = (   0.5017809   0.4955362  -0.0005938  )
        16           Si  tau(  16) = (   0.6267024   0.6200944   0.1234209  )
        17           Si  tau(  17) = (   0.8778952   0.3715370   0.1240418  )
        18           Si  tau(  18) = (   0.7529937   0.4953020   0.2483596  )
        19           Si  tau(  19) = (   0.0003596   0.7434848   0.2483217  )
        20           Si  tau(  20) = (   0.2504143   0.7441924  -0.0007186  )
        21           Si  tau(  21) = (   0.3767009   0.8677966   0.1236922  )
        22           Si  tau(  22) = (   0.5023862   0.7437303   0.2488849  )
        23           Si  tau(  23) = (   0.7525118   0.7438259   0.0007531  )
        24           Si  tau(  24) = (   0.8780184   0.8673098   0.1248349  )
        25           Si  tau(  25) = (   0.0003457   0.0002104   0.4964338  )
        26           Si  tau(  26) = (   0.2504206   0.2481585   0.4968101  )
        27           Si  tau(  27) = (   0.1250701   0.1237505   0.6205745  )
        28           Si  tau(  28) = (   0.3772101   0.1234145   0.3730018  )
        29           Si  tau(  29) = (   0.5026942  -0.0008281   0.4968177  )
        30           Si  tau(  30) = (   0.6281723   0.1242584   0.6212982  )
        31           Si  tau(  31) = (   0.8792992   0.1244423   0.3721477  )
        32           Si  tau(  32) = (   0.7531117   0.2486718   0.4973902  )
        33           Si  tau(  33) = (   0.1256798   0.3727070   0.3719845  )
        34           Si  tau(  34) = (  -0.0007158   0.4958361   0.4969729  )
        35           Si  tau(  35) = (   0.1257301   0.6197108   0.6218076  )
        36           Si  tau(  36) = (   0.6275915   0.3712380   0.3727739  )
        37           Si  tau(  37) = (   0.3760310   0.6200596   0.3724494  )
        38           Si  tau(  38) = (   0.3760383   0.3715044   0.6206861  )
        39           Si  tau(  39) = (   0.5012814   0.4952330   0.4964114  )
        40           Si  tau(  40) = (   0.6270298   0.6193545   0.6204428  )
        41           Si  tau(  41) = (   0.8776147   0.6190036   0.3720690  )
        42           Si  tau(  42) = (   0.8792379   0.3711724   0.6217083  )
        43           Si  tau(  43) = (   0.1258387   0.8672531   0.3731873  )
        44           Si  tau(  44) = (   0.2512629   0.7433802   0.4973040  )
        45           Si  tau(  45) = (   0.6270014   0.8672076   0.3726040  )
        46           Si  tau(  46) = (   0.3763959   0.8674181   0.6214897  )
        47           Si  tau(  47) = (   0.7536787   0.7429636   0.4974582  )
        48           Si  tau(  48) = (   0.8788623   0.8672130   0.6206415  )
        49           Si  tau(  49) = (   0.0002313   0.2474607   0.7457274  )
        50           Si  tau(  50) = (   0.2502493  -0.0004508   0.7451633  )
        51           Si  tau(  51) = (   0.3757421   0.1234208   0.8701281  )
        52           Si  tau(  52) = (   0.5019329   0.2470731   0.7461003  )
        53           Si  tau(  53) = (   0.7537628   0.0005603   0.7460847  )
        54           Si  tau(  54) = (   0.8790234   0.1240722   0.8700280  )
        55           Si  tau(  55) = (   0.1248462   0.3725677   0.8687545  )
        56           Si  tau(  56) = (   0.2509025   0.4967118   0.7451743  )
        57           Si  tau(  57) = (   0.6279427   0.3723509   0.8686732  )
        58           Si  tau(  58) = (   0.3764347   0.6197862   0.8697843  )
        59           Si  tau(  59) = (   0.7525399   0.4949892   0.7448912  )
        60           Si  tau(  60) = (   0.8779197   0.6192522   0.8690043  )
        61           Si  tau(  61) = (   0.0006009   0.7443464   0.7461460  )
        62           Si  tau(  62) = (   0.1254383   0.8684691   0.8701352  )
        63           Si  tau(  63) = (   0.5017154   0.7433681   0.7453664  )
        64           Si  tau(  64) = (   0.6265820   0.8669747   0.8691770  )

     number of k points=     1
                       cart. coord. in units 2pi/alat
        k(    1) = (   0.0000000   0.0000000   0.0000000), wk =   2.0000000

     Dense  grid:    99539 G-vectors     FFT dimensions: (  75,  75,  75)

     Estimated max dynamical RAM per process >     146.98 MB

     Estimated total dynamical RAM >     563.60 MB

     Initial potential from superposition of free atoms

     starting charge     255.9608, renormalised to     256.0000
     Starting wfcs are  256 randomized atomic wfcs

     total cpu time spent up to now is        5.0 secs

     Self-consistent Calculation

     iteration #  1     ecut=    30.00 Ry     beta= 0.50
     Davidson diagonalization with overlap
     ethr =  1.00E-02,  avg # of iterations =  2.0

     Threshold (ethr) on eigenvalues was too large:
     Diagonalizing with lowered threshold

     Davidson diagonalization with overlap
     ethr =  6.38E-04,  avg # of iterations =  2.0

     total cpu time spent up to now is        5.2 secs

     total energy              =    -503.95818916 Ry
     estimated scf accuracy    <       1.82697576 Ry

     iteration #  2     ecut=    30.00 Ry     beta= 0.50
     Davidson diagonalization with overlap
     ethr =  7.14E-04,  avg # of iterations =  1.0

     total cpu time spent up to now is        5.3 secs

     total energy              =    -503.93056714 Ry
     estimated scf accuracy    <       0.36188801 Ry

     iteration #  3     ecut=    30.00 Ry     beta= 0.50
     Davidson diagonalization with overlap
     ethr =  1.41E-04,  avg # of iterations =  2.0

     total cpu time spent up to now is        5.4 secs

     total energy              =    -503.95650247 Ry
     estimated scf accuracy    <       0.00594567 Ry

     iteration #  4     ecut=    30.00 Ry     beta= 0.50
     Davidson diagonalization with overlap
     ethr =  2.32E-06,  avg # of iterations =  7.0

     total cpu time spent up to now is        5.6 secs

     total energy              =    -503.95972828 Ry
     estimated scf accuracy    <       0.00043632 Ry

     iteration #  5     ecut=    30.00 Ry     beta= 0.50
     Davidson diagonalization with overlap
     ethr =  1.70E-07,  avg # of iterations =  7.0

     total cpu time spent up to now is        5.7 secs

     total energy              =    -503.95993218 Ry
     estimated scf accuracy    <       0.00003602 Ry

     iteration #  6     ecut=    30.00 Ry     beta= 0.50
     Davidson diagonalization with overlap
     ethr =  1.41E-08,  avg # of iterations =  7.0

     total cpu time spent up to now is        5.8 secs

     total energy              =    -503.95994927 Ry
     estimated scf accuracy    <       0.00000719 Ry

     iteration #  7     ecut=    30.00 Ry     beta= 0.50
     Davidson diagonalization with overlap
     ethr =  2.81E-09,  avg # of iterations =  3.0

     total cpu time spent up to now is        6.0 secs

     total energy              =    -503.95995127 Ry
     estimated scf accuracy    <       0.00000217 Ry

     iteration #  8     ecut=    30.00 Ry     beta= 0.50
     Davidson diagonalization with overlap
     ethr =  8.49E-10,  avg # of iterations =  6.0

     total cpu time spent up to now is        6.1 secs

     End of self-consistent calculation

          k = 0.0000 0.0000 0.0000 ( 12469 PWs)   bands (ev):

    -5.8389  -4.8510  -4.8160  -4.7943  -4.7675  -4.7656  -4.7164  -3.9469
    -3.9397  -3.9091  -3.8928  -3.8858  -3.8698  -3.8468  -3.8288  -3.8131
    -3.7985  -3.7752  -3.7659  -3.6419  -3.5897  -3.5817  -3.4355  -1.8970
    -1.8657  -1.8408  -1.8176  -1.7987  -1.7745  -1.7216  -1.7113  -1.7096
    -1.6964  -1.6906  -1.6764  -1.6365  -1.6210  -1.6197  -1.6032  -1.5618
    -1.5552  -0.9981  -0.9152  -0.8906  -0.8612   0.4032   0.4275   0.4459
     0.4540   0.4709   0.4797   0.4854   0.4900   0.4959   0.5000   0.5189
     0.5239   2.1232   2.1303   2.1396   2.1441   2.1464   2.1522   2.1564
     2.1582   2.1742   2.1793   2.1908   2.1939   2.2249   2.2455   2.2503
     2.2641   2.2706   2.2756   2.2840   2.2905   2.2953   2.3000   2.3098
     2.3215   2.3457   2.3771   2.4364   2.4487   2.4627   2.4773   3.0894
     3.0922   3.1311   3.1573   3.1635   3.1735   4.0085   4.0205   4.0289
     4.0333   4.0409   4.0571   4.0628   4.0770   4.1119   4.1196   4.1204
     4.2236   4.5181   4.5269   4.5536   4.5702   4.5836   4.5886   4.6015
     4.6129   4.6218   4.6245   4.6458   4.6622   4.6887   4.6923   4.7059
     4.7180   4.7283   4.7758   4.7791   5.0644   5.8387   5.8793   6.0073

     highest occupied level (ev):     6.0073

!    total energy              =    -503.95995156 Ry
     estimated scf accuracy    <       0.00000036 Ry

     The total energy is the sum of the following terms:
     one-electron contribution =     142.69921844 Ry
     hartree contribution      =      37.32625384 Ry
     xc contribution           =    -153.25655863 Ry
     ewald contribution        =    -530.72886521 Ry

     convergence has been achieved in   8 iterations

     Forces acting on atoms (cartesian axes, Ry/au):

     atom    1 type  1   force =     0.01278551   -0.03490252    0.01125864
     atom    2 type  1   force =     0.01643477    0.00037027   -0.00750741
     atom    3 type  1   force =     0.00715163   -0.03199726   -0.00089815
     atom    4 type  1   force =    -0.00863855   -0.00061406    0.00477960
     atom    5 type  1   force =    -0.00098142    0.00415267   -0.00090771
     atom    6 type  1   force =    -0.00181874   -0.03392959    0.00075397
     atom    7 type  1   force =    -0.00152157   -0.00405534   -0.00297314
     atom    8 type  1   force =     0.00704471   -0.00073826    0.00008635
     atom    9 type  1   force =    -0.00615686   -0.02573576   -0.00174774
     atom   10 type  1   force =    -0.00514292   -0.00053865    0.00919988
     atom   11 type  1   force =     0.01228654   -0.00363468    0.00623416
     atom   12 type  1   force =    -0.00158683    0.00223217   -0.00242670
     atom   13 type  1   force =     0.00030254   -0.00100235   -0.00083071
     atom   14 type  1   force =     0.00274811    0.00092509    0.00391746
     atom   15 type  1   force =     0.00108369    0.00065179    0.00466473
     atom   16 type  1   force =     0.00220565   -0.00371012    0.00594626
     atom   17 type  1   force =    -0.00887692    0.00056978   -0.00075232
     atom   18 type  1   force =    -0.00681254    0.00126676   -0.00358383
     atom   19 type  1   force =     0.01133438    0.00230526    0.00289408
     atom   20 type  1   force =     0.00448531    0.00237943    0.00784120
     atom   21 type  1   force =    -0.00168532    0.02899781    0.00420969
     atom   22 type  1   force =    -0.00467845    0.00262756   -0.00441610
     atom   23 type  1   force =    -0.00038599    0.00201870   -0.00206015
     atom   24 type  1   force =    -0.00809001    0.03183373   -0.00364052
     atom   25 type  1   force =     0.00970725   -0.03255731    0.00116329
     atom   26 type  1   force =     0.00224758   -0.00262255   -0.00267596
     atom   27 type  1   force =     0.00286271   -0.00210296    0.00226591
     atom   28 type  1   force =    -0.00438951   -0.00096546    0.00068116
     atom   29 type  1   force =    -0.00105951   -0.02611200    0.00296534
     atom   30 type  1   force =    -0.00176911   -0.00553134    0.00034564
     atom   31 type  1   force =    -0.01795368   -0.00429543    0.00579194
     atom   32 type  1   force =     0.00122968   -0.00534690   -0.00241383
     atom   33 type  1   force =    -0.00014090   -0.00178070    0.00380133
     atom   34 type  1   force =     0.01682623    0.00114367    0.00008689
     atom   35 type  1   force =    -0.00250220    0.00264481   -0.00356415
     atom   36 type  1   force =     0.00003383    0.00440018    0.00085924
     atom   37 type  1   force =     0.00309478   -0.00116129    0.00069436
     atom   38 type  1   force =     0.00125420   -0.00038623    0.00486340
     atom   39 type  1   force =     0.00105122    0.00145893   -0.00067454
     atom   40 type  1   force =     0.00009698   -0.00058725    0.00210852
     atom   41 type  1   force =    -0.00836227    0.00327347    0.00151966
     atom   42 type  1   force =    -0.01523197    0.00185639   -0.00139025
     atom   43 type  1   force =    -0.00044160    0.02925759   -0.00085674
     atom   44 type  1   force =    -0.00135038    0.00336406    0.00023379
     atom   45 type  1   force =     0.00702409    0.02820514    0.00388513
     atom   46 type  1   force =     0.00094859    0.02949046   -0.00118064
     atom   47 type  1   force =    -0.00632038    0.00501052   -0.00463664
     atom   48 type  1   force =    -0.01065282    0.03345913    0.00241606
     atom   49 type  1   force =     0.01373526   -0.00095872   -0.00188377
     atom   50 type  1   force =     0.00252369   -0.02655778   -0.00029326
     atom   51 type  1   force =     0.00296059   -0.00365896   -0.00746482
     atom   52 type  1   force =    -0.00209156    0.00221230   -0.00415076
     atom   53 type  1   force =    -0.00375928   -0.03389972   -0.00384700
     atom   54 type  1   force =    -0.01469510   -0.00191547   -0.00638272
     atom   55 type  1   force =     0.00560519   -0.00149497    0.00043882
     atom   56 type  1   force =     0.00251674   -0.00502079   -0.00033256
     atom   57 type  1   force =    -0.00362786   -0.00477064   -0.00068814
     atom   58 type  1   force =    -0.00151140    0.00124096   -0.00537259
     atom   59 type  1   force =     0.00140295    0.00443170   -0.00327708
     atom   60 type  1   force =    -0.01377983    0.00529956   -0.00231405
     atom   61 type  1   force =     0.01001992    0.00061092   -0.00237355
     atom   62 type  1   force =    -0.00110151    0.02885367   -0.00607149
     atom   63 type  1   force =     0.00001035    0.00150415   -0.00203422
     atom   64 type  1   force =     0.00410229    0.03453647   -0.00028328

     Total force =     0.140698     Total SCF correction =     0.000479


     Computing stress (Cartesian axis) and pressure

          total   stress  (Ry/bohr**3)                   (kbar)     P=       -2.32
  -0.00002695   0.00000021   0.00002864           -3.96        0.03        4.21
   0.00000021  -0.00004147  -0.00001063            0.03       -6.10       -1.56
   0.00002864  -0.00001063   0.00002115            4.21       -1.56        3.11

 
     init_run     :      0.91s CPU      4.89s WALL (       1 calls)
     electrons    :      1.02s CPU      1.12s WALL (       1 calls)
     forces       :      0.04s CPU      0.05s WALL (       1 calls)
     stress       :      0.15s CPU      0.15s WALL (       1 calls)

     Called by init_run:
     wfcinit      :      0.51s CPU      4.30s WALL (       1 calls)
                                        4.30s GPU  (       1 calls)
     potinit      :      0.20s CPU      0.29s WALL (       1 calls)
     hinit0       :      0.19s CPU      0.22s WALL (       1 calls)

     Called by electrons:
     c_bands      :      0.66s CPU      0.69s WALL (       9 calls)
     sum_band     :      0.21s CPU      0.24s WALL (       9 calls)
     v_of_rho     :      0.10s CPU      0.19s WALL (       9 calls)
     mix_rho      :      0.06s CPU      0.07s WALL (       9 calls)

     Called by c_bands:
     init_us_2    :      0.03s CPU      0.03s WALL (      19 calls)
     init_us_2:gp :      0.03s CPU      0.03s WALL (      19 calls)
     regterg      :      0.57s CPU      0.60s WALL (       9 calls)

     Called by *egterg:
     rdiaghg      :      0.20s CPU      0.96s WALL (      45 calls)
                                        0.95s GPU  (      45 calls)
     h_psi        :      0.78s CPU      3.82s WALL (      47 calls)
                                        3.82s GPU  (      47 calls)
     g_psi        :      0.00s CPU      0.00s WALL (      37 calls)
                                        0.00s GPU  (      37 calls)

     Called by h_psi:
     h_psi:calbec :      0.43s CPU      3.40s WALL (      47 calls)
                                        3.40s GPU  (      47 calls)
     vloc_psi     :      0.31s CPU      0.39s WALL (      47 calls)
                                        0.38s GPU  (      47 calls)
     add_vuspsi   :      0.02s CPU      0.03s WALL (      47 calls)
                                        0.03s GPU  (      47 calls)

     General routines
     calbec       :      0.44s CPU      3.41s WALL (      52 calls)
     fft          :      0.23s CPU      0.35s WALL (      79 calls)
                                        0.11s GPU  (      51 calls)
     ffts         :      0.03s CPU      0.04s WALL (       9 calls)
     fftw         :      0.33s CPU      0.47s WALL (     828 calls)
                                        0.43s GPU  (     828 calls)
 
     Parallel routines
 
     PWSCF        :      2.17s CPU      6.30s WALL

 
   This run was terminated on:  15:15:20   8May2023            

=------------------------------------------------------------------------------=
   JOB DONE.
=------------------------------------------------------------------------------=
