An instance of this daemon is already running

     Program PWSCF v.7.1 starts on  8May2023 at 15:13:11 

     This program is part of the open-source Quantum ESPRESSO suite
     for quantum simulation of materials; please cite
         "P. Giannozzi et al., J. Phys.:Condens. Matter 21 395502 (2009);
         "P. Giannozzi et al., J. Phys.:Condens. Matter 29 465901 (2017);
         "P. Giannozzi et al., J. Chem. Phys. 152 154105 (2020);
          URL http://www.quantum-espresso.org", 
     in publications or presentations arising from this work. More details at
     http://www.quantum-espresso.org/quote

     Parallel version (MPI & OpenMP), running on       4 processor cores
     Number of MPI processes:                 4
     Threads/MPI process:                     1

     MPI processes distributed on     1 nodes
     618767 MiB available memory on the printing compute node when the environment starts
 
     Reading input from pw-si-46.in
Warning: card &CELL ignored
Warning: card / ignored

     Current dimensions of program PWSCF are:
     Max number of different atomic species (ntypx) = 10
     Max number of k-points (npk) =  40000
     Max angular momentum in pseudopotentials (lmaxx) =  4

     IMPORTANT: XC functional enforced from input :
     Exchange-correlation= PBE
                           (   1   4   3   4   0   0   0)
     Any further DFT definition will be discarded
     Please, verify this is what you really want


     gamma-point specific algorithms are used
 
     K-points division:     npool     =       2
     R & G space division:  proc/nbgrp/npool/nimage =       2
     Subspace diagonalization in iterative solution of the eigenvalue problem:
     a serial algorithm will be used

     Message from routine divide_et_impera:
     suboptimal parallelization: some nodes have no k-points
 
     Parallelization info
     --------------------
     sticks:   dense  smooth     PW     G-vecs:    dense   smooth      PW
     Min        2049    2049    542                97979    97979   13310
     Max        2050    2050    543                97982    97982   13311
     Sum        4099    4099   1085               195961   195961   26621
 
     Using Slab Decomposition
 


     bravais-lattice index     =            0
     lattice parameter (alat)  =      20.8440  a.u.
     unit-cell volume          =    8827.6052 (a.u.)^3
     number of atoms/cell      =           64
     number of atomic types    =            1
     number of electrons       =       256.00
     number of Kohn-Sham states=          128
     kinetic-energy cutoff     =      30.0000  Ry
     charge density cutoff     =     120.0000  Ry
     scf convergence threshold =      1.0E-06
     mixing beta               =       0.5000
     number of iterations used =            8  plain     mixing
     Exchange-correlation= PBE
                           (   1   4   3   4   0   0   0)

     GPU acceleration is ACTIVE.
     GPU-aware MPI enabled

     Message from routine print_cuda_info:
     High GPU oversubscription detected. Are you sure this is what you want?

     celldm(1)=  20.844001  celldm(2)=   0.000000  celldm(3)=   0.000000
     celldm(4)=   0.000000  celldm(5)=   0.000000  celldm(6)=   0.000000

     crystal axes: (cart. coord. in units of alat)
               a(1) = (   1.000000   0.000000   0.000000 )  
               a(2) = (   0.000000   0.988316   0.000000 )  
               a(3) = (   0.000000   0.000000   0.986289 )  

     reciprocal axes: (cart. coord. in units 2 pi/alat)
               b(1) = (  1.000000  0.000000  0.000000 )  
               b(2) = (  0.000000  1.011823  0.000000 )  
               b(3) = (  0.000000  0.000000  1.013902 )  


     PseudoPot. # 1 for Si read from file:
     /home/ppiaggi/pseudos/Si_ONCV_PBE_sr.upf
     MD5 check sum: 8553c464762ac42b85b1eed164b4d029
     Pseudo is Norm-conserving, Zval =  4.0
     Generated using ONCVPSP code by D. R. Hamann
     Using radial grid of 1510 points,  4 beta functions with: 
                l(1) =   0
                l(2) =   0
                l(3) =   1
                l(4) =   1

     atomic species   valence    mass     pseudopotential
        Si             4.00    28.08500     Si( 1.00)

     No symmetry found



   Cartesian axes

     site n.     atom                  positions (alat units)
         1           Si  tau(   1) = (  -0.0003457  -0.0006530  -0.0001676  )
         2           Si  tau(   2) = (  -0.0006138   0.2451934   0.2471044  )
         3           Si  tau(   3) = (   0.2509197   0.0004485   0.2478146  )
         4           Si  tau(   4) = (   0.2505679   0.2467001   0.0004034  )
         5           Si  tau(   5) = (   0.1250759   0.1230270   0.1239698  )
         6           Si  tau(   6) = (   0.5025190  -0.0001220   0.0008957  )
         7           Si  tau(   7) = (   0.5023656   0.2465113   0.2481693  )
         8           Si  tau(   8) = (   0.6273370   0.1232382   0.1227529  )
         9           Si  tau(   9) = (   0.7535827  -0.0008677   0.2477473  )
        10           Si  tau(  10) = (   0.7537217   0.2462855   0.0002327  )
        11           Si  tau(  11) = (  -0.0000344   0.4921094  -0.0003549  )
        12           Si  tau(  12) = (   0.2519500   0.4923591   0.2469656  )
        13           Si  tau(  13) = (   0.1263942   0.6153005   0.1229528  )
        14           Si  tau(  14) = (   0.3767634   0.3695597   0.1233344  )
        15           Si  tau(  15) = (   0.5020453   0.4911336   0.0000497  )
        16           Si  tau(  16) = (   0.6286885   0.6147692   0.1241745  )
        17           Si  tau(  17) = (   0.8790109   0.3694842   0.1232672  )
        18           Si  tau(  18) = (   0.7530900   0.4908209   0.2480036  )
        19           Si  tau(  19) = (  -0.0004127   0.7376739   0.2476496  )
        20           Si  tau(  20) = (   0.2503880   0.7378421  -0.0003292  )
        21           Si  tau(  21) = (   0.3769165   0.8597322   0.1227522  )
        22           Si  tau(  22) = (   0.5030266   0.7381081   0.2465752  )
        23           Si  tau(  23) = (   0.7540270   0.7366138   0.0001100  )
        24           Si  tau(  24) = (   0.8787243   0.8608521   0.1235649  )
        25           Si  tau(  25) = (  -0.0003175   0.0006637   0.4946551  )
        26           Si  tau(  26) = (   0.2520192   0.2462846   0.4940465  )
        27           Si  tau(  27) = (   0.1254604   0.1233254   0.6183303  )
        28           Si  tau(  28) = (   0.3767620   0.1234311   0.3702089  )
        29           Si  tau(  29) = (   0.5033296   0.0007805   0.4951748  )
        30           Si  tau(  30) = (   0.6275950   0.1224302   0.6182147  )
        31           Si  tau(  31) = (   0.8792623   0.1233233   0.3712888  )
        32           Si  tau(  32) = (   0.7539008   0.2460479   0.4954735  )
        33           Si  tau(  33) = (   0.1255494   0.3684376   0.3701529  )
        34           Si  tau(  34) = (   0.0007285   0.4914502   0.4950608  )
        35           Si  tau(  35) = (   0.1259589   0.6140823   0.6183589  )
        36           Si  tau(  36) = (   0.6277540   0.3690496   0.3709792  )
        37           Si  tau(  37) = (   0.3763551   0.6147969   0.3703339  )
        38           Si  tau(  38) = (   0.3769438   0.3684000   0.6182684  )
        39           Si  tau(  39) = (   0.5025413   0.4919757   0.4946798  )
        40           Si  tau(  40) = (   0.6282483   0.6146808   0.6187845  )
        41           Si  tau(  41) = (   0.8787832   0.6143341   0.3715156  )
        42           Si  tau(  42) = (   0.8796590   0.3684949   0.6176722  )
        43           Si  tau(  43) = (   0.1252043   0.8605174   0.3714858  )
        44           Si  tau(  44) = (   0.2509304   0.7370756   0.4941431  )
        45           Si  tau(  45) = (   0.6290703   0.8606864   0.3704821  )
        46           Si  tau(  46) = (   0.3760534   0.8596105   0.6188443  )
        47           Si  tau(  47) = (   0.7543428   0.7373565   0.4951014  )
        48           Si  tau(  48) = (   0.8790951   0.8597986   0.6177891  )
        49           Si  tau(  49) = (  -0.0005929   0.2460798   0.7423498  )
        50           Si  tau(  50) = (   0.2521927  -0.0002356   0.7419148  )
        51           Si  tau(  51) = (   0.3762553   0.1235949   0.8657082  )
        52           Si  tau(  52) = (   0.5024752   0.2457188   0.7412843  )
        53           Si  tau(  53) = (   0.7542087   0.0005399   0.7428073  )
        54           Si  tau(  54) = (   0.8791036   0.1223794   0.8650067  )
        55           Si  tau(  55) = (   0.1247592   0.3692280   0.8661868  )
        56           Si  tau(  56) = (   0.2513922   0.4921251   0.7410690  )
        57           Si  tau(  57) = (   0.6281817   0.3695527   0.8662166  )
        58           Si  tau(  58) = (   0.3761191   0.6149223   0.8650558  )
        59           Si  tau(  59) = (   0.7530681   0.4922374   0.7424568  )
        60           Si  tau(  60) = (   0.8789819   0.6151859   0.8660277  )
        61           Si  tau(  61) = (   0.0006752   0.7366730   0.7426442  )
        62           Si  tau(  62) = (   0.1250401   0.8601434   0.8659105  )
        63           Si  tau(  63) = (   0.5019843   0.7366793   0.7425424  )
        64           Si  tau(  64) = (   0.6276180   0.8606591   0.8651313  )

     number of k points=     1
                       cart. coord. in units 2pi/alat
        k(    1) = (   0.0000000   0.0000000   0.0000000), wk =   2.0000000

     Dense  grid:    97981 G-vectors     FFT dimensions: (  75,  72,  72)

     Estimated max dynamical RAM per process >     143.60 MB

     Estimated total dynamical RAM >     550.48 MB

     Initial potential from superposition of free atoms

     starting charge     255.9608, renormalised to     256.0000
     Starting wfcs are  256 randomized atomic wfcs

     total cpu time spent up to now is        5.3 secs

     Self-consistent Calculation

     iteration #  1     ecut=    30.00 Ry     beta= 0.50
     Davidson diagonalization with overlap
     ethr =  1.00E-02,  avg # of iterations =  2.0

     Threshold (ethr) on eigenvalues was too large:
     Diagonalizing with lowered threshold

     Davidson diagonalization with overlap
     ethr =  6.55E-04,  avg # of iterations =  2.0

     total cpu time spent up to now is        5.5 secs

     total energy              =    -503.96376609 Ry
     estimated scf accuracy    <       1.87398148 Ry

     iteration #  2     ecut=    30.00 Ry     beta= 0.50
     Davidson diagonalization with overlap
     ethr =  7.32E-04,  avg # of iterations =  1.0

     total cpu time spent up to now is        5.6 secs

     total energy              =    -503.93505835 Ry
     estimated scf accuracy    <       0.36799926 Ry

     iteration #  3     ecut=    30.00 Ry     beta= 0.50
     Davidson diagonalization with overlap
     ethr =  1.44E-04,  avg # of iterations =  2.0

     total cpu time spent up to now is        5.7 secs

     total energy              =    -503.96211560 Ry
     estimated scf accuracy    <       0.00607016 Ry

     iteration #  4     ecut=    30.00 Ry     beta= 0.50
     Davidson diagonalization with overlap
     ethr =  2.37E-06,  avg # of iterations =  7.0

     total cpu time spent up to now is        5.8 secs

     total energy              =    -503.96530598 Ry
     estimated scf accuracy    <       0.00044237 Ry

     iteration #  5     ecut=    30.00 Ry     beta= 0.50
     Davidson diagonalization with overlap
     ethr =  1.73E-07,  avg # of iterations =  8.0

     total cpu time spent up to now is        5.9 secs

     total energy              =    -503.96552819 Ry
     estimated scf accuracy    <       0.00006095 Ry

     iteration #  6     ecut=    30.00 Ry     beta= 0.50
     Davidson diagonalization with overlap
     ethr =  2.38E-08,  avg # of iterations =  5.0

     total cpu time spent up to now is        6.1 secs

     total energy              =    -503.96554683 Ry
     estimated scf accuracy    <       0.00000819 Ry

     iteration #  7     ecut=    30.00 Ry     beta= 0.50
     Davidson diagonalization with overlap
     ethr =  3.20E-09,  avg # of iterations =  6.0

     total cpu time spent up to now is        6.2 secs

     total energy              =    -503.96554941 Ry
     estimated scf accuracy    <       0.00000191 Ry

     iteration #  8     ecut=    30.00 Ry     beta= 0.50
     Davidson diagonalization with overlap
     ethr =  7.48E-10,  avg # of iterations =  6.0

     total cpu time spent up to now is        6.3 secs

     End of self-consistent calculation

          k = 0.0000 0.0000 0.0000 ( 12245 PWs)   bands (ev):

    -5.7779  -4.7568  -4.7443  -4.7228  -4.6944  -4.6818  -4.6687  -3.8504
    -3.8287  -3.8167  -3.7869  -3.7736  -3.7710  -3.7661  -3.7581  -3.7457
    -3.7197  -3.7061  -3.6893  -3.5255  -3.4880  -3.4743  -3.4083  -1.7805
    -1.7521  -1.7265  -1.7065  -1.6754  -1.6434  -1.5855  -1.5785  -1.5715
    -1.5579  -1.5504  -1.5409  -1.5303  -1.5215  -1.5044  -1.4981  -1.4930
    -1.4731  -0.8706  -0.8327  -0.8116  -0.7829   0.5618   0.5699   0.5824
     0.5934   0.5990   0.6081   0.6183   0.6220   0.6329   0.6385   0.6442
     0.6477   2.2279   2.2329   2.2433   2.2487   2.2538   2.2609   2.2677
     2.2723   2.2758   2.2835   2.2862   2.2927   2.3317   2.3407   2.3488
     2.3784   2.3854   2.3992   2.4012   2.4123   2.4137   2.4160   2.4296
     2.4331   2.4984   2.5158   2.5554   2.5731   2.5832   2.6031   3.2100
     3.2166   3.2286   3.2436   3.3102   3.3317   4.1365   4.1418   4.1473
     4.1590   4.1981   4.2026   4.2068   4.2131   4.2444   4.2585   4.2920
     4.2948   4.6376   4.6805   4.6898   4.7042   4.7106   4.7174   4.7247
     4.7412   4.7605   4.7961   4.8192   4.8223   4.8264   4.8367   4.8713
     4.9000   4.9377   4.9684   4.9742   5.0346   5.9969   6.0814   6.1243

     highest occupied level (ev):     6.1243

!    total energy              =    -503.96554979 Ry
     estimated scf accuracy    <       0.00000036 Ry

     The total energy is the sum of the following terms:
     one-electron contribution =     146.67242924 Ry
     hartree contribution      =      36.79462309 Ry
     xc contribution           =    -153.77911567 Ry
     ewald contribution        =    -533.65348645 Ry

     convergence has been achieved in   8 iterations

     Forces acting on atoms (cartesian axes, Ry/au):

     atom    1 type  1   force =     0.01676117   -0.01306684    0.01135329
     atom    2 type  1   force =     0.01596299    0.00479586   -0.00107096
     atom    3 type  1   force =     0.00153384   -0.02013919   -0.00373194
     atom    4 type  1   force =     0.00029956   -0.00260436    0.00922471
     atom    5 type  1   force =     0.00272333   -0.00351065   -0.00169603
     atom    6 type  1   force =    -0.00371361   -0.01411276    0.00115925
     atom    7 type  1   force =    -0.00056731   -0.00153334   -0.00766614
     atom    8 type  1   force =     0.00425908   -0.00178333    0.01046474
     atom    9 type  1   force =    -0.00168337   -0.00575402   -0.00442850
     atom   10 type  1   force =    -0.00121966   -0.00273576    0.00627539
     atom   11 type  1   force =     0.01589542    0.00207762    0.01335476
     atom   12 type  1   force =    -0.00525210   -0.00206572   -0.00095532
     atom   13 type  1   force =    -0.00390994   -0.00190600    0.00606627
     atom   14 type  1   force =     0.00074283   -0.00444525    0.00452462
     atom   15 type  1   force =     0.00087821    0.00854897    0.00936880
     atom   16 type  1   force =    -0.00366637   -0.00421233   -0.00151565
     atom   17 type  1   force =    -0.01415119   -0.00302546    0.00424962
     atom   18 type  1   force =     0.00130168    0.00466126   -0.00191521
     atom   19 type  1   force =     0.01690640    0.00075547   -0.00221005
     atom   20 type  1   force =     0.00476088    0.00103810    0.00782285
     atom   21 type  1   force =    -0.00266682    0.02009585    0.00589120
     atom   22 type  1   force =    -0.00206579   -0.00029827    0.00383804
     atom   23 type  1   force =    -0.00628783    0.00980094    0.00911092
     atom   24 type  1   force =    -0.01393318    0.01170248    0.00141356
     atom   25 type  1   force =     0.01655844   -0.01869042    0.00256616
     atom   26 type  1   force =    -0.00493939   -0.00233386    0.00097395
     atom   27 type  1   force =     0.00511185   -0.00154469    0.00047372
     atom   28 type  1   force =     0.00293533   -0.00431270    0.00563903
     atom   29 type  1   force =    -0.00764330   -0.02254918   -0.00551904
     atom   30 type  1   force =     0.00626070    0.00198901    0.00377764
     atom   31 type  1   force =    -0.01998810   -0.00392044   -0.00077912
     atom   32 type  1   force =    -0.00561854   -0.00150007   -0.00458183
     atom   33 type  1   force =     0.00340127    0.00178355    0.00062245
     atom   34 type  1   force =     0.01422784    0.00029505   -0.00463327
     atom   35 type  1   force =     0.00084371    0.00285175   -0.00145841
     atom   36 type  1   force =     0.00119184   -0.00292719    0.00534376
     atom   37 type  1   force =     0.00656853    0.00215811    0.00190113
     atom   38 type  1   force =     0.00120973    0.00279957   -0.00187138
     atom   39 type  1   force =    -0.00195267    0.00126670   -0.00018986
     atom   40 type  1   force =    -0.00207158    0.00118322   -0.00219213
     atom   41 type  1   force =    -0.01253509   -0.00196520   -0.00078165
     atom   42 type  1   force =    -0.01912453    0.00420042    0.00651034
     atom   43 type  1   force =     0.00148935    0.01672526   -0.00111871
     atom   44 type  1   force =    -0.00031946    0.00320922    0.00171857
     atom   45 type  1   force =    -0.00470514    0.01305863    0.00585519
     atom   46 type  1   force =     0.00647456    0.01721899   -0.00457190
     atom   47 type  1   force =    -0.00719735    0.00128881   -0.00263326
     atom   48 type  1   force =    -0.01058929    0.01945531    0.00570234
     atom   49 type  1   force =     0.01915055   -0.00130531   -0.00247153
     atom   50 type  1   force =    -0.00751451   -0.01400757    0.00026055
     atom   51 type  1   force =     0.00383030   -0.00346286   -0.00722092
     atom   52 type  1   force =     0.00103291    0.00124295    0.00475908
     atom   53 type  1   force =    -0.00640661   -0.02132575   -0.00845819
     atom   54 type  1   force =    -0.01522254    0.00368187   -0.00319566
     atom   55 type  1   force =     0.00557979    0.00019118   -0.01498098
     atom   56 type  1   force =    -0.00115814   -0.00547290    0.00388282
     atom   57 type  1   force =    -0.00230840   -0.00556228   -0.01377568
     atom   58 type  1   force =     0.00125155   -0.00331551   -0.00453849
     atom   59 type  1   force =     0.00414664   -0.00278248   -0.00353377
     atom   60 type  1   force =    -0.01484985   -0.00347175   -0.01289362
     atom   61 type  1   force =     0.01234828    0.00511886   -0.00629530
     atom   62 type  1   force =     0.00423568    0.01934641   -0.01259997
     atom   63 type  1   force =     0.00127577    0.00593442   -0.00434430
     atom   64 type  1   force =     0.00211164    0.01316764   -0.00427604

     Total force =     0.110374     Total SCF correction =     0.000623


     Computing stress (Cartesian axis) and pressure

          total   stress  (Ry/bohr**3)                   (kbar)     P=       11.61
   0.00002397  -0.00000335   0.00001366            3.53       -0.49        2.01
  -0.00000335   0.00009945  -0.00001193           -0.49       14.63       -1.75
   0.00001366  -0.00001193   0.00011334            2.01       -1.75       16.67

 
     init_run     :      1.26s CPU      5.19s WALL (       1 calls)
     electrons    :      0.94s CPU      1.02s WALL (       1 calls)
     forces       :      0.04s CPU      0.05s WALL (       1 calls)
     stress       :      0.14s CPU      0.14s WALL (       1 calls)

     Called by init_run:
     wfcinit      :      0.54s CPU      4.28s WALL (       1 calls)
                                        4.28s GPU  (       1 calls)
     potinit      :      0.20s CPU      0.30s WALL (       1 calls)
     hinit0       :      0.50s CPU      0.53s WALL (       1 calls)

     Called by electrons:
     c_bands      :      0.60s CPU      0.64s WALL (       9 calls)
     sum_band     :      0.19s CPU      0.20s WALL (       9 calls)
     v_of_rho     :      0.09s CPU      0.20s WALL (       9 calls)
     mix_rho      :      0.06s CPU      0.07s WALL (       9 calls)

     Called by c_bands:
     init_us_2    :      0.03s CPU      0.03s WALL (      19 calls)
     init_us_2:gp :      0.03s CPU      0.03s WALL (      19 calls)
     regterg      :      0.52s CPU      0.55s WALL (       9 calls)

     Called by *egterg:
     rdiaghg      :      0.21s CPU      0.97s WALL (      47 calls)
                                        0.96s GPU  (      47 calls)
     h_psi        :      0.75s CPU      3.74s WALL (      49 calls)
                                        3.74s GPU  (      49 calls)
     g_psi        :      0.00s CPU      0.00s WALL (      39 calls)
                                        0.00s GPU  (      39 calls)

     Called by h_psi:
     h_psi:calbec :      0.48s CPU      3.40s WALL (      49 calls)
                                        3.40s GPU  (      49 calls)
     vloc_psi     :      0.24s CPU      0.31s WALL (      49 calls)
                                        0.31s GPU  (      49 calls)
     add_vuspsi   :      0.02s CPU      0.03s WALL (      49 calls)
                                        0.03s GPU  (      49 calls)

     General routines
     calbec       :      0.48s CPU      3.41s WALL (      54 calls)
     fft          :      0.53s CPU      0.67s WALL (      79 calls)
                                        0.12s GPU  (      51 calls)
     ffts         :      0.02s CPU      0.03s WALL (       9 calls)
     fftw         :      0.27s CPU      0.38s WALL (     832 calls)
                                        0.34s GPU  (     832 calls)
 
     Parallel routines
 
     PWSCF        :      2.42s CPU      6.49s WALL

 
   This run was terminated on:  15:13:18   8May2023            

=------------------------------------------------------------------------------=
   JOB DONE.
=------------------------------------------------------------------------------=
