An instance of this daemon is already running

     Program PWSCF v.7.1 starts on  8May2023 at 15: 9: 5 

     This program is part of the open-source Quantum ESPRESSO suite
     for quantum simulation of materials; please cite
         "P. Giannozzi et al., J. Phys.:Condens. Matter 21 395502 (2009);
         "P. Giannozzi et al., J. Phys.:Condens. Matter 29 465901 (2017);
         "P. Giannozzi et al., J. Chem. Phys. 152 154105 (2020);
          URL http://www.quantum-espresso.org", 
     in publications or presentations arising from this work. More details at
     http://www.quantum-espresso.org/quote

     Parallel version (MPI & OpenMP), running on       4 processor cores
     Number of MPI processes:                 4
     Threads/MPI process:                     1

     MPI processes distributed on     1 nodes
     618764 MiB available memory on the printing compute node when the environment starts
 
     Reading input from pw-si-18.in
Warning: card &CELL ignored
Warning: card / ignored

     Current dimensions of program PWSCF are:
     Max number of different atomic species (ntypx) = 10
     Max number of k-points (npk) =  40000
     Max angular momentum in pseudopotentials (lmaxx) =  4

     IMPORTANT: XC functional enforced from input :
     Exchange-correlation= PBE
                           (   1   4   3   4   0   0   0)
     Any further DFT definition will be discarded
     Please, verify this is what you really want


     gamma-point specific algorithms are used
 
     K-points division:     npool     =       2
     R & G space division:  proc/nbgrp/npool/nimage =       2
     Subspace diagonalization in iterative solution of the eigenvalue problem:
     a serial algorithm will be used

     Message from routine divide_et_impera:
     suboptimal parallelization: some nodes have no k-points
 
     Parallelization info
     --------------------
     sticks:   dense  smooth     PW     G-vecs:    dense   smooth      PW
     Min        2052    2052    543                98381    98381   13407
     Max        2055    2055    546                98384    98384   13410
     Sum        4107    4107   1089               196765   196765   26817
 
     Using Slab Decomposition
 


     bravais-lattice index     =            0
     lattice parameter (alat)  =      20.8419  a.u.
     unit-cell volume          =    8862.0438 (a.u.)^3
     number of atoms/cell      =           64
     number of atomic types    =            1
     number of electrons       =       256.00
     number of Kohn-Sham states=          128
     kinetic-energy cutoff     =      30.0000  Ry
     charge density cutoff     =     120.0000  Ry
     scf convergence threshold =      1.0E-06
     mixing beta               =       0.5000
     number of iterations used =            8  plain     mixing
     Exchange-correlation= PBE
                           (   1   4   3   4   0   0   0)

     GPU acceleration is ACTIVE.
     GPU-aware MPI enabled

     Message from routine print_cuda_info:
     High GPU oversubscription detected. Are you sure this is what you want?

     celldm(1)=  20.841878  celldm(2)=   0.000000  celldm(3)=   0.000000
     celldm(4)=   0.000000  celldm(5)=   0.000000  celldm(6)=   0.000000

     crystal axes: (cart. coord. in units of alat)
               a(1) = (   1.000000   0.000000   0.000000 )  
               a(2) = (   0.000000   0.989705   0.000000 )  
               a(3) = (   0.000000   0.000000   0.989048 )  

     reciprocal axes: (cart. coord. in units 2 pi/alat)
               b(1) = (  1.000000  0.000000  0.000000 )  
               b(2) = (  0.000000  1.010402  0.000000 )  
               b(3) = (  0.000000  0.000000  1.011073 )  


     PseudoPot. # 1 for Si read from file:
     /home/ppiaggi/pseudos/Si_ONCV_PBE_sr.upf
     MD5 check sum: 8553c464762ac42b85b1eed164b4d029
     Pseudo is Norm-conserving, Zval =  4.0
     Generated using ONCVPSP code by D. R. Hamann
     Using radial grid of 1510 points,  4 beta functions with: 
                l(1) =   0
                l(2) =   0
                l(3) =   1
                l(4) =   1

     atomic species   valence    mass     pseudopotential
        Si             4.00    28.08500     Si( 1.00)

     No symmetry found



   Cartesian axes

     site n.     atom                  positions (alat units)
         1           Si  tau(   1) = (  -0.0004402  -0.0002732  -0.0006579  )
         2           Si  tau(   2) = (  -0.0003190   0.2474304   0.2449800  )
         3           Si  tau(   3) = (   0.2479377  -0.0001974   0.2450241  )
         4           Si  tau(   4) = (   0.2477207   0.2483418  -0.0005954  )
         5           Si  tau(   5) = (   0.1234448   0.1234941   0.1231285  )
         6           Si  tau(   6) = (   0.4956365  -0.0004898   0.0008811  )
         7           Si  tau(   7) = (   0.4952710   0.2488695   0.2454353  )
         8           Si  tau(   8) = (   0.6200901   0.1238242   0.1223823  )
         9           Si  tau(   9) = (   0.7440444  -0.0000691   0.2457913  )
        10           Si  tau(  10) = (   0.7442528   0.2489892   0.0007600  )
        11           Si  tau(  11) = (  -0.0008616   0.4968226   0.0002835  )
        12           Si  tau(  12) = (   0.2479550   0.4960863   0.2445971  )
        13           Si  tau(  13) = (   0.1232039   0.6204683   0.1223334  )
        14           Si  tau(  14) = (   0.3710550   0.3719584   0.1216448  )
        15           Si  tau(  15) = (   0.4950938   0.4968174  -0.0008010  )
        16           Si  tau(  16) = (   0.6206963   0.6206026   0.1224189  )
        17           Si  tau(  17) = (   0.8683276   0.3717053   0.1226734  )
        18           Si  tau(  18) = (   0.7435605   0.4970339   0.2446035  )
        19           Si  tau(  19) = (  -0.0001307   0.7446230   0.2456588  )
        20           Si  tau(  20) = (   0.2476903   0.7453606  -0.0002702  )
        21           Si  tau(  21) = (   0.3725961   0.8697485   0.1223301  )
        22           Si  tau(  22) = (   0.4959341   0.7441296   0.2449137  )
        23           Si  tau(  23) = (   0.7442336   0.7440744   0.0000302  )
        24           Si  tau(  24) = (   0.8685853   0.8691067   0.1231127  )
        25           Si  tau(  25) = (  -0.0006544  -0.0000831   0.4906326  )
        26           Si  tau(  26) = (   0.2475906   0.2485665   0.4902620  )
        27           Si  tau(  27) = (   0.1248210   0.1247882   0.6131220  )
        28           Si  tau(  28) = (   0.3711768   0.1242717   0.3679081  )
        29           Si  tau(  29) = (   0.4958599   0.0007707   0.4893499  )
        30           Si  tau(  30) = (   0.6192511   0.1242620   0.6118223  )
        31           Si  tau(  31) = (   0.8676395   0.1239968   0.3678086  )
        32           Si  tau(  32) = (   0.7432337   0.2481390   0.4893469  )
        33           Si  tau(  33) = (   0.1239738   0.3724963   0.3679179  )
        34           Si  tau(  34) = (   0.0001299   0.4972666   0.4903271  )
        35           Si  tau(  35) = (   0.1245930   0.6201130   0.6122085  )
        36           Si  tau(  36) = (   0.6203732   0.3725337   0.3667128  )
        37           Si  tau(  37) = (   0.3711758   0.6208977   0.3669733  )
        38           Si  tau(  38) = (   0.3711136   0.3725329   0.6129244  )
        39           Si  tau(  39) = (   0.4963914   0.4968509   0.4895991  )
        40           Si  tau(  40) = (   0.6196941   0.6207679   0.6121731  )
        41           Si  tau(  41) = (   0.8682360   0.6211270   0.3679906  )
        42           Si  tau(  42) = (   0.8683827   0.3726798   0.6124708  )
        43           Si  tau(  43) = (   0.1233173   0.8689107   0.3682012  )
        44           Si  tau(  44) = (   0.2487155   0.7442642   0.4899598  )
        45           Si  tau(  45) = (   0.6199412   0.8686782   0.3675707  )
        46           Si  tau(  46) = (   0.3728418   0.8694537   0.6123539  )
        47           Si  tau(  47) = (   0.7433142   0.7450051   0.4892134  )
        48           Si  tau(  48) = (   0.8686190   0.8691891   0.6130890  )
        49           Si  tau(  49) = (  -0.0001759   0.2490395   0.7354131  )
        50           Si  tau(  50) = (   0.2483120   0.0002470   0.7356314  )
        51           Si  tau(  51) = (   0.3720188   0.1246076   0.8567169  )
        52           Si  tau(  52) = (   0.4961645   0.2489564   0.7349028  )
        53           Si  tau(  53) = (   0.7434654   0.0005714   0.7357451  )
        54           Si  tau(  54) = (   0.8685336   0.1246273   0.8569837  )
        55           Si  tau(  55) = (   0.1247353   0.3718571   0.8577435  )
        56           Si  tau(  56) = (   0.2478426   0.4969943   0.7351854  )
        57           Si  tau(  57) = (   0.6204629   0.3731325   0.8571642  )
        58           Si  tau(  58) = (   0.3721431   0.6202361   0.8579459  )
        59           Si  tau(  59) = (   0.7431810   0.4959631   0.7346890  )
        60           Si  tau(  60) = (   0.8672348   0.6208446   0.8567787  )
        61           Si  tau(  61) = (  -0.0002133   0.7447102   0.7343637  )
        62           Si  tau(  62) = (   0.1242877   0.8693436   0.8572367  )
        63           Si  tau(  63) = (   0.4965088   0.7450180   0.7356818  )
        64           Si  tau(  64) = (   0.6191007   0.8690478   0.8583791  )

     number of k points=     1
                       cart. coord. in units 2pi/alat
        k(    1) = (   0.0000000   0.0000000   0.0000000), wk =   2.0000000

     Dense  grid:    98383 G-vectors     FFT dimensions: (  75,  72,  72)

     Estimated max dynamical RAM per process >     144.11 MB

     Estimated total dynamical RAM >     552.41 MB

     Initial potential from superposition of free atoms

     starting charge     255.9608, renormalised to     256.0000
     Starting wfcs are  256 randomized atomic wfcs

     total cpu time spent up to now is        5.3 secs

     Self-consistent Calculation

     iteration #  1     ecut=    30.00 Ry     beta= 0.50
     Davidson diagonalization with overlap
     ethr =  1.00E-02,  avg # of iterations =  2.0

     Threshold (ethr) on eigenvalues was too large:
     Diagonalizing with lowered threshold

     Davidson diagonalization with overlap
     ethr =  6.52E-04,  avg # of iterations =  2.0

     total cpu time spent up to now is        5.5 secs

     total energy              =    -503.94520726 Ry
     estimated scf accuracy    <       1.86324253 Ry

     iteration #  2     ecut=    30.00 Ry     beta= 0.50
     Davidson diagonalization with overlap
     ethr =  7.28E-04,  avg # of iterations =  1.0

     total cpu time spent up to now is        5.6 secs

     total energy              =    -503.91693133 Ry
     estimated scf accuracy    <       0.36638554 Ry

     iteration #  3     ecut=    30.00 Ry     beta= 0.50
     Davidson diagonalization with overlap
     ethr =  1.43E-04,  avg # of iterations =  2.0

     total cpu time spent up to now is        5.7 secs

     total energy              =    -503.94363854 Ry
     estimated scf accuracy    <       0.00604883 Ry

     iteration #  4     ecut=    30.00 Ry     beta= 0.50
     Davidson diagonalization with overlap
     ethr =  2.36E-06,  avg # of iterations =  7.0

     total cpu time spent up to now is        5.8 secs

     total energy              =    -503.94713068 Ry
     estimated scf accuracy    <       0.00040851 Ry

     iteration #  5     ecut=    30.00 Ry     beta= 0.50
     Davidson diagonalization with overlap
     ethr =  1.60E-07,  avg # of iterations =  5.0

     total cpu time spent up to now is        5.9 secs

     total energy              =    -503.94731082 Ry
     estimated scf accuracy    <       0.00006764 Ry

     iteration #  6     ecut=    30.00 Ry     beta= 0.50
     Davidson diagonalization with overlap
     ethr =  2.64E-08,  avg # of iterations =  4.0

     total cpu time spent up to now is        6.0 secs

     total energy              =    -503.94733405 Ry
     estimated scf accuracy    <       0.00001208 Ry

     iteration #  7     ecut=    30.00 Ry     beta= 0.50
     Davidson diagonalization with overlap
     ethr =  4.72E-09,  avg # of iterations =  7.0

     total cpu time spent up to now is        6.2 secs

     total energy              =    -503.94733742 Ry
     estimated scf accuracy    <       0.00000239 Ry

     iteration #  8     ecut=    30.00 Ry     beta= 0.50
     Davidson diagonalization with overlap
     ethr =  9.35E-10,  avg # of iterations =  2.0

     total cpu time spent up to now is        6.3 secs

     End of self-consistent calculation

          k = 0.0000 0.0000 0.0000 ( 12297 PWs)   bands (ev):

    -5.8027  -4.8016  -4.7817  -4.7575  -4.7145  -4.6926  -4.6677  -3.8995
    -3.8829  -3.8698  -3.8338  -3.8145  -3.8001  -3.7814  -3.7751  -3.7553
    -3.7379  -3.7060  -3.6819  -3.5855  -3.5234  -3.4782  -3.3506  -1.8250
    -1.7891  -1.7659  -1.7504  -1.7303  -1.6772  -1.6452  -1.6271  -1.6201
    -1.6085  -1.5984  -1.5713  -1.5430  -1.5341  -1.5316  -1.4901  -1.4826
    -1.4410  -0.9319  -0.8631  -0.8216  -0.7818   0.5105   0.5277   0.5377
     0.5498   0.5588   0.5730   0.5802   0.5869   0.5968   0.6022   0.6334
     0.6369   2.1829   2.1931   2.1941   2.2018   2.2126   2.2143   2.2226
     2.2286   2.2378   2.2434   2.2534   2.2630   2.2943   2.3184   2.3316
     2.3464   2.3490   2.3566   2.3645   2.3789   2.3865   2.3942   2.3991
     2.4469   2.5059   2.5239   2.5325   2.5503   2.5807   2.5910   3.1637
     3.1866   3.2032   3.2271   3.2708   3.2916   4.0804   4.0911   4.1129
     4.1432   4.1539   4.1574   4.1749   4.1862   4.1874   4.2400   4.2694
     4.3172   4.5976   4.6201   4.6349   4.6667   4.6808   4.6897   4.7036
     4.7161   4.7278   4.7455   4.7538   4.7654   4.7696   4.7922   4.8018
     4.8376   4.8519   4.9001   5.0507   5.1554   5.9419   6.0220   6.1297

     highest occupied level (ev):     6.1297

!    total energy              =    -503.94733764 Ry
     estimated scf accuracy    <       0.00000052 Ry

     The total energy is the sum of the following terms:
     one-electron contribution =     145.38165614 Ry
     hartree contribution      =      37.07271224 Ry
     xc contribution           =    -153.65106036 Ry
     ewald contribution        =    -532.75064567 Ry

     convergence has been achieved in   8 iterations

     Forces acting on atoms (cartesian axes, Ry/au):

     atom    1 type  1   force =    -0.02114625    0.00927764   -0.02393098
     atom    2 type  1   force =    -0.02352100    0.00336982    0.00303629
     atom    3 type  1   force =    -0.00196285    0.01021643    0.00182236
     atom    4 type  1   force =    -0.00195427   -0.00564418   -0.02486809
     atom    5 type  1   force =    -0.00021848    0.00214713   -0.00900610
     atom    6 type  1   force =     0.00293952    0.01775296   -0.03529062
     atom    7 type  1   force =     0.00157970   -0.00380403   -0.00482166
     atom    8 type  1   force =    -0.00102385    0.00398964    0.00116834
     atom    9 type  1   force =     0.00239558    0.01065417   -0.00462628
     atom   10 type  1   force =     0.00126850   -0.00398262   -0.03323323
     atom   11 type  1   force =    -0.02110197   -0.00517053   -0.03052466
     atom   12 type  1   force =    -0.00330443    0.00114027   -0.00124615
     atom   13 type  1   force =     0.00036846    0.00189997   -0.00149600
     atom   14 type  1   force =     0.00397154    0.00215196   -0.00117992
     atom   15 type  1   force =     0.00556471   -0.00199921   -0.02267722
     atom   16 type  1   force =    -0.00640454   -0.00142874   -0.00570551
     atom   17 type  1   force =     0.02380224    0.00546908    0.00018175
     atom   18 type  1   force =     0.00985955   -0.00327624    0.00132742
     atom   19 type  1   force =    -0.02357445   -0.00009185   -0.00213297
     atom   20 type  1   force =     0.00089375   -0.00269307   -0.02513335
     atom   21 type  1   force =    -0.00537450   -0.01875941    0.00091764
     atom   22 type  1   force =     0.00085156    0.00250023   -0.00190362
     atom   23 type  1   force =     0.00364081    0.00523633   -0.02728429
     atom   24 type  1   force =     0.02199699   -0.01275517   -0.00597951
     atom   25 type  1   force =    -0.02110344    0.01488978    0.00247608
     atom   26 type  1   force =     0.00080097    0.00026248    0.00075079
     atom   27 type  1   force =    -0.00910247   -0.00187382   -0.00007264
     atom   28 type  1   force =     0.00052001    0.00301457   -0.00303076
     atom   29 type  1   force =     0.00023758    0.00775557    0.00070195
     atom   30 type  1   force =     0.00300667    0.00188400    0.00409777
     atom   31 type  1   force =     0.02574315    0.00083656    0.00000388
     atom   32 type  1   force =     0.00709431    0.00255879    0.00365810
     atom   33 type  1   force =    -0.00552035   -0.00045925   -0.00341280
     atom   34 type  1   force =    -0.02569798   -0.00345068   -0.00147787
     atom   35 type  1   force =    -0.00426141    0.00442830    0.00252575
     atom   36 type  1   force =    -0.00268147    0.00201675    0.00179109
     atom   37 type  1   force =     0.00443928   -0.00455665   -0.00032917
     atom   38 type  1   force =     0.00513822    0.00289783   -0.00252507
     atom   39 type  1   force =    -0.00517052   -0.00246205    0.00046534
     atom   40 type  1   force =     0.00154421    0.00071517    0.00177389
     atom   41 type  1   force =     0.02163937   -0.00250955   -0.00314157
     atom   42 type  1   force =     0.02127798   -0.00153282   -0.00118889
     atom   43 type  1   force =     0.00115215   -0.01196406   -0.00086770
     atom   44 type  1   force =    -0.00341600    0.00429786    0.00201510
     atom   45 type  1   force =    -0.00311050   -0.00961282   -0.00249653
     atom   46 type  1   force =    -0.00253651   -0.01329436    0.00249653
     atom   47 type  1   force =     0.00800167    0.00004762    0.00794408
     atom   48 type  1   force =     0.01690737   -0.01185061   -0.00185238
     atom   49 type  1   force =    -0.02173668   -0.00209347   -0.00006976
     atom   50 type  1   force =     0.00064904    0.01028068   -0.00243399
     atom   51 type  1   force =     0.00231642   -0.00018017    0.03369773
     atom   52 type  1   force =     0.00018445   -0.00067291    0.00192560
     atom   53 type  1   force =     0.00295649    0.00920183   -0.00027890
     atom   54 type  1   force =     0.01896051    0.00387141    0.03009725
     atom   55 type  1   force =    -0.00774367    0.00662933    0.02864244
     atom   56 type  1   force =     0.00009689   -0.00302632    0.00450116
     atom   57 type  1   force =    -0.00340293   -0.00379093    0.03219785
     atom   58 type  1   force =    -0.00265373    0.00542653    0.02476420
     atom   59 type  1   force =     0.00706476    0.00457235   -0.00011413
     atom   60 type  1   force =     0.02479999   -0.00038124    0.02660107
     atom   61 type  1   force =    -0.02107046   -0.00160962    0.00511653
     atom   62 type  1   force =    -0.00689947   -0.01335014    0.02831116
     atom   63 type  1   force =    -0.00285877   -0.00259866    0.00016978
     atom   64 type  1   force =     0.00488852   -0.01051785    0.02915338

     Total force =     0.159371     Total SCF correction =     0.000922


     Computing stress (Cartesian axis) and pressure

          total   stress  (Ry/bohr**3)                   (kbar)     P=        8.50
   0.00001193   0.00002691  -0.00001017            1.76        3.96       -1.50
   0.00002691   0.00008152   0.00001800            3.96       11.99        2.65
  -0.00001017   0.00001800   0.00007997           -1.50        2.65       11.76

 
     init_run     :      1.26s CPU      5.20s WALL (       1 calls)
     electrons    :      0.91s CPU      0.98s WALL (       1 calls)
     forces       :      0.04s CPU      0.05s WALL (       1 calls)
     stress       :      0.14s CPU      0.15s WALL (       1 calls)

     Called by init_run:
     wfcinit      :      0.52s CPU      4.28s WALL (       1 calls)
                                        4.28s GPU  (       1 calls)
     potinit      :      0.20s CPU      0.30s WALL (       1 calls)
     hinit0       :      0.51s CPU      0.54s WALL (       1 calls)

     Called by electrons:
     c_bands      :      0.57s CPU      0.60s WALL (       9 calls)
     sum_band     :      0.18s CPU      0.20s WALL (       9 calls)
     v_of_rho     :      0.10s CPU      0.20s WALL (       9 calls)
     mix_rho      :      0.06s CPU      0.07s WALL (       9 calls)

     Called by c_bands:
     init_us_2    :      0.03s CPU      0.03s WALL (      19 calls)
     init_us_2:gp :      0.03s CPU      0.03s WALL (      19 calls)
     regterg      :      0.49s CPU      0.51s WALL (       9 calls)

     Called by *egterg:
     rdiaghg      :      0.19s CPU      0.95s WALL (      40 calls)
                                        0.95s GPU  (      40 calls)
     h_psi        :      0.72s CPU      3.72s WALL (      42 calls)
                                        3.72s GPU  (      42 calls)
     g_psi        :      0.00s CPU      0.00s WALL (      32 calls)
                                        0.00s GPU  (      32 calls)

     Called by h_psi:
     h_psi:calbec :      0.45s CPU      3.39s WALL (      42 calls)
                                        3.39s GPU  (      42 calls)
     vloc_psi     :      0.24s CPU      0.30s WALL (      42 calls)
                                        0.30s GPU  (      42 calls)
     add_vuspsi   :      0.02s CPU      0.03s WALL (      42 calls)
                                        0.03s GPU  (      42 calls)

     General routines
     calbec       :      0.46s CPU      3.40s WALL (      47 calls)
     fft          :      0.54s CPU      0.67s WALL (      79 calls)
                                        0.13s GPU  (      51 calls)
     ffts         :      0.03s CPU      0.03s WALL (       9 calls)
     fftw         :      0.27s CPU      0.37s WALL (     818 calls)
                                        0.33s GPU  (     818 calls)
 
     Parallel routines
 
     PWSCF        :      2.39s CPU      6.46s WALL

 
   This run was terminated on:  15: 9:12   8May2023            

=------------------------------------------------------------------------------=
   JOB DONE.
=------------------------------------------------------------------------------=
