An instance of this daemon is already running
An instance of this daemon is already running

     Program PWSCF v.7.1 starts on  8May2023 at 15:13:55 

     This program is part of the open-source Quantum ESPRESSO suite
     for quantum simulation of materials; please cite
         "P. Giannozzi et al., J. Phys.:Condens. Matter 21 395502 (2009);
         "P. Giannozzi et al., J. Phys.:Condens. Matter 29 465901 (2017);
         "P. Giannozzi et al., J. Chem. Phys. 152 154105 (2020);
          URL http://www.quantum-espresso.org", 
     in publications or presentations arising from this work. More details at
     http://www.quantum-espresso.org/quote

     Parallel version (MPI & OpenMP), running on       4 processor cores
     Number of MPI processes:                 4
     Threads/MPI process:                     1

     MPI processes distributed on     1 nodes
     618765 MiB available memory on the printing compute node when the environment starts
 
     Reading input from pw-si-51.in
Warning: card &CELL ignored
Warning: card / ignored

     Current dimensions of program PWSCF are:
     Max number of different atomic species (ntypx) = 10
     Max number of k-points (npk) =  40000
     Max angular momentum in pseudopotentials (lmaxx) =  4

     IMPORTANT: XC functional enforced from input :
     Exchange-correlation= PBE
                           (   1   4   3   4   0   0   0)
     Any further DFT definition will be discarded
     Please, verify this is what you really want


     gamma-point specific algorithms are used
 
     K-points division:     npool     =       2
     R & G space division:  proc/nbgrp/npool/nimage =       2
     Subspace diagonalization in iterative solution of the eigenvalue problem:
     a serial algorithm will be used

     Message from routine divide_et_impera:
     suboptimal parallelization: some nodes have no k-points
 
     Parallelization info
     --------------------
     sticks:   dense  smooth     PW     G-vecs:    dense   smooth      PW
     Min        2027    2027    542                98031    98031   13374
     Max        2028    2028    543                98032    98032   13379
     Sum        4055    4055   1085               196063   196063   26753
 
     Using Slab Decomposition
 


     bravais-lattice index     =            0
     lattice parameter (alat)  =      20.6606  a.u.
     unit-cell volume          =    8837.2900 (a.u.)^3
     number of atoms/cell      =           64
     number of atomic types    =            1
     number of electrons       =       256.00
     number of Kohn-Sham states=          128
     kinetic-energy cutoff     =      30.0000  Ry
     charge density cutoff     =     120.0000  Ry
     scf convergence threshold =      1.0E-06
     mixing beta               =       0.5000
     number of iterations used =            8  plain     mixing
     Exchange-correlation= PBE
                           (   1   4   3   4   0   0   0)

     GPU acceleration is ACTIVE.
     GPU-aware MPI enabled

     Message from routine print_cuda_info:
     High GPU oversubscription detected. Are you sure this is what you want?

     celldm(1)=  20.660585  celldm(2)=   0.000000  celldm(3)=   0.000000
     celldm(4)=   0.000000  celldm(5)=   0.000000  celldm(6)=   0.000000

     crystal axes: (cart. coord. in units of alat)
               a(1) = (   1.000000   0.000000   0.000000 )  
               a(2) = (   0.000000   0.998388   0.000000 )  
               a(3) = (   0.000000   0.000000   1.003672 )  

     reciprocal axes: (cart. coord. in units 2 pi/alat)
               b(1) = (  1.000000  0.000000  0.000000 )  
               b(2) = (  0.000000  1.001614  0.000000 )  
               b(3) = (  0.000000  0.000000  0.996342 )  


     PseudoPot. # 1 for Si read from file:
     /home/ppiaggi/pseudos/Si_ONCV_PBE_sr.upf
     MD5 check sum: 8553c464762ac42b85b1eed164b4d029
     Pseudo is Norm-conserving, Zval =  4.0
     Generated using ONCVPSP code by D. R. Hamann
     Using radial grid of 1510 points,  4 beta functions with: 
                l(1) =   0
                l(2) =   0
                l(3) =   1
                l(4) =   1

     atomic species   valence    mass     pseudopotential
        Si             4.00    28.08500     Si( 1.00)

     No symmetry found



   Cartesian axes

     site n.     atom                  positions (alat units)
         1           Si  tau(   1) = (  -0.0005201   0.0006556  -0.0005826  )
         2           Si  tau(   2) = (  -0.0007048   0.2503514   0.2504146  )
         3           Si  tau(   3) = (   0.2506185  -0.0000129   0.2513905  )
         4           Si  tau(   4) = (   0.2503479   0.2499786  -0.0000857  )
         5           Si  tau(   5) = (   0.1256172   0.1249226   0.1249543  )
         6           Si  tau(   6) = (   0.5021432   0.0007669   0.0005147  )
         7           Si  tau(   7) = (   0.5023483   0.2489954   0.2505396  )
         8           Si  tau(   8) = (   0.6265415   0.1255672   0.1261032  )
         9           Si  tau(   9) = (   0.7517719  -0.0005279   0.2498121  )
        10           Si  tau(  10) = (   0.7526807   0.2490830   0.0004253  )
        11           Si  tau(  11) = (   0.0002341   0.4991779   0.0001529  )
        12           Si  tau(  12) = (   0.2516602   0.4990132   0.2498534  )
        13           Si  tau(  13) = (   0.1261870   0.6242185   0.1251775  )
        14           Si  tau(  14) = (   0.3761270   0.3745353   0.1248615  )
        15           Si  tau(  15) = (   0.5021918   0.4993791  -0.0000210  )
        16           Si  tau(  16) = (   0.6271378   0.6229255   0.1254617  )
        17           Si  tau(  17) = (   0.8771898   0.3733814   0.1259989  )
        18           Si  tau(  18) = (   0.7515575   0.4996737   0.2509162  )
        19           Si  tau(  19) = (   0.0002632   0.7484769   0.2507051  )
        20           Si  tau(  20) = (   0.2506243   0.7486221  -0.0000797  )
        21           Si  tau(  21) = (   0.3769927   0.8741427   0.1248320  )
        22           Si  tau(  22) = (   0.5023706   0.7485808   0.2500920  )
        23           Si  tau(  23) = (   0.7522229   0.7486365  -0.0006797  )
        24           Si  tau(  24) = (   0.8774397   0.8736353   0.1247789  )
        25           Si  tau(  25) = (  -0.0004742  -0.0009082   0.5004753  )
        26           Si  tau(  26) = (   0.2500203   0.2493817   0.5013187  )
        27           Si  tau(  27) = (   0.1254785   0.1252726   0.6264704  )
        28           Si  tau(  28) = (   0.3769642   0.1244391   0.3755186  )
        29           Si  tau(  29) = (   0.5019750   0.0008139   0.5005535  )
        30           Si  tau(  30) = (   0.6262504   0.1250257   0.6266282  )
        31           Si  tau(  31) = (   0.8775464   0.1242842   0.3761190  )
        32           Si  tau(  32) = (   0.7530730   0.2494065   0.5015812  )
        33           Si  tau(  33) = (   0.1246157   0.3745639   0.3765849  )
        34           Si  tau(  34) = (   0.0007778   0.4992978   0.5008356  )
        35           Si  tau(  35) = (   0.1255994   0.6240696   0.6263269  )
        36           Si  tau(  36) = (   0.6273756   0.3744123   0.3757050  )
        37           Si  tau(  37) = (   0.3757378   0.6229165   0.3753089  )
        38           Si  tau(  38) = (   0.3766938   0.3747617   0.6266792  )
        39           Si  tau(  39) = (   0.5015967   0.4985532   0.5016061  )
        40           Si  tau(  40) = (   0.6275201   0.6234704   0.6269516  )
        41           Si  tau(  41) = (   0.8776119   0.6242943   0.3758128  )
        42           Si  tau(  42) = (   0.8782825   0.3742668   0.6263443  )
        43           Si  tau(  43) = (   0.1262440   0.8733213   0.3752225  )
        44           Si  tau(  44) = (   0.2505114   0.7484339   0.5017249  )
        45           Si  tau(  45) = (   0.6277133   0.8724322   0.3755617  )
        46           Si  tau(  46) = (   0.3765090   0.8738858   0.6273643  )
        47           Si  tau(  47) = (   0.7518554   0.7486694   0.5020509  )
        48           Si  tau(  48) = (   0.8774186   0.8729490   0.6272283  )
        49           Si  tau(  49) = (   0.0004071   0.2492567   0.7515945  )
        50           Si  tau(  50) = (   0.2510212  -0.0008228   0.7523903  )
        51           Si  tau(  51) = (   0.3768672   0.1242975   0.8766577  )
        52           Si  tau(  52) = (   0.5021457   0.2493817   0.7525929  )
        53           Si  tau(  53) = (   0.7526289  -0.0004636   0.7526652  )
        54           Si  tau(  54) = (   0.8785800   0.1250629   0.8782762  )
        55           Si  tau(  55) = (   0.1261262   0.3745494   0.8771583  )
        56           Si  tau(  56) = (   0.2513258   0.4995198   0.7524736  )
        57           Si  tau(  57) = (   0.6264104   0.3749367   0.8765304  )
        58           Si  tau(  58) = (   0.3768298   0.6234475   0.8781136  )
        59           Si  tau(  59) = (   0.7523118   0.4985338   0.7511704  )
        60           Si  tau(  60) = (   0.8782549   0.6244069   0.8767030  )
        61           Si  tau(  61) = (   0.0003400   0.7478389   0.7528723  )
        62           Si  tau(  62) = (   0.1250817   0.8729867   0.8768534  )
        63           Si  tau(  63) = (   0.5012626   0.7493005   0.7520621  )
        64           Si  tau(  64) = (   0.6276186   0.8730646   0.8771964  )

     number of k points=     1
                       cart. coord. in units 2pi/alat
        k(    1) = (   0.0000000   0.0000000   0.0000000), wk =   2.0000000

     Dense  grid:    98032 G-vectors     FFT dimensions: (  75,  72,  75)

     Estimated max dynamical RAM per process >     144.48 MB

     Estimated total dynamical RAM >     553.97 MB

     Initial potential from superposition of free atoms

     starting charge     255.9608, renormalised to     256.0000
     Starting wfcs are  256 randomized atomic wfcs

     total cpu time spent up to now is        5.2 secs

     Self-consistent Calculation

     iteration #  1     ecut=    30.00 Ry     beta= 0.50
     Davidson diagonalization with overlap
     ethr =  1.00E-02,  avg # of iterations =  2.0

     Threshold (ethr) on eigenvalues was too large:
     Diagonalizing with lowered threshold

     Davidson diagonalization with overlap
     ethr =  6.54E-04,  avg # of iterations =  2.0

     total cpu time spent up to now is        5.4 secs

     total energy              =    -503.98002627 Ry
     estimated scf accuracy    <       1.87074286 Ry

     iteration #  2     ecut=    30.00 Ry     beta= 0.50
     Davidson diagonalization with overlap
     ethr =  7.31E-04,  avg # of iterations =  1.0

     total cpu time spent up to now is        5.5 secs

     total energy              =    -503.95123017 Ry
     estimated scf accuracy    <       0.36776798 Ry

     iteration #  3     ecut=    30.00 Ry     beta= 0.50
     Davidson diagonalization with overlap
     ethr =  1.44E-04,  avg # of iterations =  2.0

     total cpu time spent up to now is        5.6 secs

     total energy              =    -503.97846870 Ry
     estimated scf accuracy    <       0.00609124 Ry

     iteration #  4     ecut=    30.00 Ry     beta= 0.50
     Davidson diagonalization with overlap
     ethr =  2.38E-06,  avg # of iterations =  3.0

     total cpu time spent up to now is        5.7 secs

     total energy              =    -503.98124831 Ry
     estimated scf accuracy    <       0.00062901 Ry

     iteration #  5     ecut=    30.00 Ry     beta= 0.50
     Davidson diagonalization with overlap
     ethr =  2.46E-07,  avg # of iterations =  7.0

     total cpu time spent up to now is        5.9 secs

     total energy              =    -503.98147422 Ry
     estimated scf accuracy    <       0.00002770 Ry

     iteration #  6     ecut=    30.00 Ry     beta= 0.50
     Davidson diagonalization with overlap
     ethr =  1.08E-08,  avg # of iterations =  7.0

     total cpu time spent up to now is        6.0 secs

     total energy              =    -503.98149344 Ry
     estimated scf accuracy    <       0.00000616 Ry

     iteration #  7     ecut=    30.00 Ry     beta= 0.50
     Davidson diagonalization with overlap
     ethr =  2.41E-09,  avg # of iterations =  3.0

     total cpu time spent up to now is        6.1 secs

     total energy              =    -503.98149548 Ry
     estimated scf accuracy    <       0.00000150 Ry

     iteration #  8     ecut=    30.00 Ry     beta= 0.50
     Davidson diagonalization with overlap
     ethr =  5.85E-10,  avg # of iterations =  5.0

     total cpu time spent up to now is        6.2 secs

     End of self-consistent calculation

          k = 0.0000 0.0000 0.0000 ( 12244 PWs)   bands (ev):

    -5.7744  -4.7331  -4.7242  -4.7118  -4.7085  -4.7025  -4.6912  -3.8094
    -3.7953  -3.7876  -3.7855  -3.7845  -3.7685  -3.7668  -3.7594  -3.7507
    -3.7481  -3.7427  -3.7414  -3.5150  -3.4926  -3.4868  -3.4726  -1.7363
    -1.7336  -1.7173  -1.7024  -1.6874  -1.6775  -1.5843  -1.5730  -1.5669
    -1.5617  -1.5527  -1.5488  -1.5460  -1.5415  -1.5337  -1.5284  -1.5241
    -1.5145  -0.8502  -0.8369  -0.8280  -0.8017   0.5730   0.5811   0.5825
     0.5859   0.5875   0.6063   0.6065   0.6085   0.6111   0.6207   0.6253
     0.6332   2.2515   2.2571   2.2605   2.2632   2.2689   2.2707   2.2766
     2.2777   2.2816   2.2865   2.2898   2.2940   2.3490   2.3547   2.3572
     2.3599   2.3671   2.3700   2.3763   2.3792   2.3881   2.3896   2.3946
     2.3950   2.5015   2.5100   2.5212   2.5336   2.5470   2.5525   3.2312
     3.2324   3.2344   3.2550   3.2696   3.2780   4.1513   4.1744   4.1790
     4.1852   4.1874   4.1913   4.1999   4.2054   4.2143   4.2180   4.2229
     4.2337   4.6646   4.7149   4.7205   4.7327   4.7375   4.7457   4.7491
     4.7553   4.7640   4.7685   4.7729   4.7909   4.8391   4.8500   4.8568
     4.8646   4.8841   4.8963   4.8980   4.9261   6.0198   6.0556   6.0868

     highest occupied level (ev):     6.0868

!    total energy              =    -503.98149564 Ry
     estimated scf accuracy    <       0.00000042 Ry

     The total energy is the sum of the following terms:
     one-electron contribution =     146.60615215 Ry
     hartree contribution      =      36.73105910 Ry
     xc contribution           =    -153.74551323 Ry
     ewald contribution        =    -533.57319366 Ry

     convergence has been achieved in   8 iterations

     Forces acting on atoms (cartesian axes, Ry/au):

     atom    1 type  1   force =     0.01580155   -0.00558139    0.00059752
     atom    2 type  1   force =     0.01397642   -0.00715999    0.00389683
     atom    3 type  1   force =     0.00440431    0.00058877   -0.00709972
     atom    4 type  1   force =     0.00555668   -0.00372737   -0.00585981
     atom    5 type  1   force =    -0.00171306    0.00050422    0.00302620
     atom    6 type  1   force =     0.00125801   -0.00250267   -0.00748904
     atom    7 type  1   force =    -0.00554863    0.00711902    0.00097480
     atom    8 type  1   force =     0.00386303   -0.00452016   -0.00483673
     atom    9 type  1   force =     0.00158619    0.00182570    0.00368353
     atom   10 type  1   force =    -0.00550808    0.00408580   -0.00621977
     atom   11 type  1   force =     0.00817528   -0.00155465   -0.00264235
     atom   12 type  1   force =    -0.00659247   -0.00259430    0.00343178
     atom   13 type  1   force =    -0.00236213   -0.00220345    0.00068222
     atom   14 type  1   force =     0.00423458   -0.00364602    0.00013010
     atom   15 type  1   force =    -0.00201847   -0.00313356   -0.00255674
     atom   16 type  1   force =     0.00083514    0.00636608   -0.00351536
     atom   17 type  1   force =    -0.01027514    0.00963518   -0.00430272
     atom   18 type  1   force =     0.00488908   -0.00381760   -0.00056354
     atom   19 type  1   force =     0.00960048    0.00238550   -0.00333342
     atom   20 type  1   force =     0.00392558    0.00267327   -0.00332143
     atom   21 type  1   force =    -0.00393689   -0.00163211    0.00238673
     atom   22 type  1   force =    -0.00512706   -0.00223789    0.00149387
     atom   23 type  1   force =     0.00048991   -0.00311381   -0.00008255
     atom   24 type  1   force =    -0.00787903   -0.00139619   -0.00021039
     atom   25 type  1   force =     0.01391571    0.00103562    0.00462740
     atom   26 type  1   force =     0.00717325    0.00202435   -0.00117162
     atom   27 type  1   force =    -0.00026106   -0.00908709   -0.00022578
     atom   28 type  1   force =    -0.00545727    0.00401225    0.00219532
     atom   29 type  1   force =     0.00003922   -0.00781696    0.00224432
     atom   30 type  1   force =     0.00691443   -0.00147243    0.00174840
     atom   31 type  1   force =    -0.01073410    0.00009689   -0.00432433
     atom   32 type  1   force =    -0.00431434   -0.00001465   -0.00115401
     atom   33 type  1   force =     0.00688536   -0.00052533   -0.00737280
     atom   34 type  1   force =     0.00476184    0.00216169    0.00264173
     atom   35 type  1   force =     0.00082787   -0.00189552    0.00404839
     atom   36 type  1   force =    -0.00119091   -0.00210965    0.00382348
     atom   37 type  1   force =     0.00465105    0.00551997    0.00362024
     atom   38 type  1   force =    -0.00343830   -0.00494080    0.00199149
     atom   39 type  1   force =     0.00147219    0.00303584   -0.00318945
     atom   40 type  1   force =    -0.00641763    0.00189029   -0.00074058
     atom   41 type  1   force =    -0.01030685   -0.00055583    0.00263134
     atom   42 type  1   force =    -0.00899948    0.00015810   -0.00035270
     atom   43 type  1   force =    -0.00351654   -0.00150190    0.00491855
     atom   44 type  1   force =     0.00537927    0.00187602   -0.00295915
     atom   45 type  1   force =    -0.00361332    0.00496444    0.00202203
     atom   46 type  1   force =    -0.00034424   -0.00001438   -0.00728266
     atom   47 type  1   force =     0.00273669   -0.00175324   -0.00180210
     atom   48 type  1   force =    -0.00668125    0.00061706   -0.00008143
     atom   49 type  1   force =     0.00996437    0.00314090    0.00363158
     atom   50 type  1   force =    -0.00228290    0.00437595   -0.00249826
     atom   51 type  1   force =    -0.00391281    0.00227210    0.00887554
     atom   52 type  1   force =    -0.00453901    0.00170442   -0.00458487
     atom   53 type  1   force =    -0.00120226    0.00489181   -0.00203296
     atom   54 type  1   force =    -0.01502305    0.00057050   -0.00405134
     atom   55 type  1   force =    -0.00351169    0.00004377    0.00256955
     atom   56 type  1   force =     0.00068154   -0.00032509   -0.00274418
     atom   57 type  1   force =     0.00614628   -0.00403800    0.00890139
     atom   58 type  1   force =    -0.00181185    0.00492097    0.00057012
     atom   59 type  1   force =     0.00299774    0.00259431    0.00368441
     atom   60 type  1   force =    -0.01446342   -0.00757014    0.00738426
     atom   61 type  1   force =     0.00985259    0.00407141   -0.00818803
     atom   62 type  1   force =     0.00163124    0.00258353    0.00742029
     atom   63 type  1   force =     0.00330966   -0.00500220    0.00139412
     atom   64 type  1   force =    -0.00495327    0.00369864    0.00554229

     Total force =     0.068671     Total SCF correction =     0.000236


     Computing stress (Cartesian axis) and pressure

          total   stress  (Ry/bohr**3)                   (kbar)     P=       10.40
   0.00007459   0.00000505   0.00000012           10.97        0.74        0.02
   0.00000505   0.00008547  -0.00001352            0.74       12.57       -1.99
   0.00000012  -0.00001352   0.00005208            0.02       -1.99        7.66

 
     init_run     :      1.16s CPU      5.12s WALL (       1 calls)
     electrons    :      0.92s CPU      1.02s WALL (       1 calls)
     forces       :      0.04s CPU      0.05s WALL (       1 calls)
     stress       :      0.14s CPU      0.14s WALL (       1 calls)

     Called by init_run:
     wfcinit      :      0.53s CPU      4.29s WALL (       1 calls)
                                        4.29s GPU  (       1 calls)
     potinit      :      0.20s CPU      0.30s WALL (       1 calls)
     hinit0       :      0.42s CPU      0.45s WALL (       1 calls)

     Called by electrons:
     c_bands      :      0.59s CPU      0.63s WALL (       9 calls)
     sum_band     :      0.18s CPU      0.21s WALL (       9 calls)
     v_of_rho     :      0.10s CPU      0.21s WALL (       9 calls)
     mix_rho      :      0.06s CPU      0.07s WALL (       9 calls)

     Called by c_bands:
     init_us_2    :      0.03s CPU      0.03s WALL (      19 calls)
     init_us_2:gp :      0.03s CPU      0.03s WALL (      19 calls)
     regterg      :      0.51s CPU      0.54s WALL (       9 calls)

     Called by *egterg:
     rdiaghg      :      0.18s CPU      0.95s WALL (      40 calls)
                                        0.94s GPU  (      40 calls)
     h_psi        :      0.74s CPU      3.77s WALL (      42 calls)
                                        3.77s GPU  (      42 calls)
     g_psi        :      0.00s CPU      0.00s WALL (      32 calls)
                                        0.00s GPU  (      32 calls)

     Called by h_psi:
     h_psi:calbec :      0.45s CPU      3.40s WALL (      42 calls)
                                        3.40s GPU  (      42 calls)
     vloc_psi     :      0.27s CPU      0.34s WALL (      42 calls)
                                        0.34s GPU  (      42 calls)
     add_vuspsi   :      0.02s CPU      0.03s WALL (      42 calls)
                                        0.02s GPU  (      42 calls)

     General routines
     calbec       :      0.46s CPU      3.40s WALL (      47 calls)
     fft          :      0.46s CPU      0.59s WALL (      79 calls)
                                        0.13s GPU  (      51 calls)
     ffts         :      0.03s CPU      0.03s WALL (       9 calls)
     fftw         :      0.29s CPU      0.41s WALL (     824 calls)
                                        0.37s GPU  (     824 calls)
 
     Parallel routines
 
     PWSCF        :      2.31s CPU      6.42s WALL

 
   This run was terminated on:  15:14: 2   8May2023            

=------------------------------------------------------------------------------=
   JOB DONE.
=------------------------------------------------------------------------------=
