Removing intel version 2021.1.2
Removing oclfpga version 2021.1.2
Removing intel-dpl version 2021.1.2
Removing intel-debugger version 10.0.0
Removing intel-mkl version 2021.1.1
Removing intel-tbb version 2021.1.1
Removing intel-rt version 2021.1.2
An instance of this daemon is already running
An instance of this daemon is already running

     Program PWSCF v.7.1 starts on  8May2023 at 14:31: 3 

     This program is part of the open-source Quantum ESPRESSO suite
     for quantum simulation of materials; please cite
         "P. Giannozzi et al., J. Phys.:Condens. Matter 21 395502 (2009);
         "P. Giannozzi et al., J. Phys.:Condens. Matter 29 465901 (2017);
         "P. Giannozzi et al., J. Chem. Phys. 152 154105 (2020);
          URL http://www.quantum-espresso.org", 
     in publications or presentations arising from this work. More details at
     http://www.quantum-espresso.org/quote

     Parallel version (MPI & OpenMP), running on       4 processor cores
     Number of MPI processes:                 4
     Threads/MPI process:                     1

     MPI processes distributed on     1 nodes
     619826 MiB available memory on the printing compute node when the environment starts
 
     Reading input from pw-si.in

     Current dimensions of program PWSCF are:
     Max number of different atomic species (ntypx) = 10
     Max number of k-points (npk) =  40000
     Max angular momentum in pseudopotentials (lmaxx) =  4

     IMPORTANT: XC functional enforced from input :
     Exchange-correlation= PBE
                           (   1   4   3   4   0   0   0)
     Any further DFT definition will be discarded
     Please, verify this is what you really want


     gamma-point specific algorithms are used
     Found identity + (  0.0000  0.2500  0.2500) symmetry
     This is a supercell, fractional translations are disabled
     Message from routine setup:
     using ibrav=0 with symmetry is DISCOURAGED, use correct ibrav instead
 
     K-points division:     npool     =       2
     R & G space division:  proc/nbgrp/npool/nimage =       2
     Subspace diagonalization in iterative solution of the eigenvalue problem:
     a serial algorithm will be used

     Message from routine divide_et_impera:
     suboptimal parallelization: some nodes have no k-points
 
     Parallelization info
     --------------------
     sticks:   dense  smooth     PW     G-vecs:    dense   smooth      PW
     Min        2688    2688    702               147952   147952   19802
     Max        2689    2689    703               147955   147955   19805
     Sum        5377    5377   1405               295907   295907   39607
 
     Using Slab Decomposition
 


     bravais-lattice index     =            0
     lattice parameter (alat)  =      20.5251  a.u.
     unit-cell volume          =    8646.7724 (a.u.)^3
     number of atoms/cell      =           64
     number of atomic types    =            1
     number of electrons       =       256.00
     number of Kohn-Sham states=          128
     kinetic-energy cutoff     =      40.0000  Ry
     charge density cutoff     =     160.0000  Ry
     scf convergence threshold =      1.0E-06
     mixing beta               =       0.5000
     number of iterations used =            8  plain     mixing
     energy convergence thresh.=      1.0E-04
     force convergence thresh. =      1.0E-03
     press convergence thresh. =      5.0E-01
     Exchange-correlation= PBE
                           (   1   4   3   4   0   0   0)
     nstep                     =           50


     GPU acceleration is ACTIVE.
     GPU-aware MPI enabled

     Message from routine print_cuda_info:
     High GPU oversubscription detected. Are you sure this is what you want?

     celldm(1)=  20.525071  celldm(2)=   0.000000  celldm(3)=   0.000000
     celldm(4)=   0.000000  celldm(5)=   0.000000  celldm(6)=   0.000000

     crystal axes: (cart. coord. in units of alat)
               a(1) = (   1.000000   0.000000   0.000000 )  
               a(2) = (   0.000000   1.000000   0.000000 )  
               a(3) = (   0.000000   0.000000   1.000000 )  

     reciprocal axes: (cart. coord. in units 2 pi/alat)
               b(1) = (  1.000000  0.000000  0.000000 )  
               b(2) = (  0.000000  1.000000  0.000000 )  
               b(3) = (  0.000000  0.000000  1.000000 )  


     PseudoPot. # 1 for Si read from file:
     /home/ppiaggi/pseudos/Si_ONCV_PBE_sr.upf
     MD5 check sum: 8553c464762ac42b85b1eed164b4d029
     Pseudo is Norm-conserving, Zval =  4.0
     Generated using ONCVPSP code by D. R. Hamann
     Using radial grid of 1510 points,  4 beta functions with: 
                l(1) =   0
                l(2) =   0
                l(3) =   1
                l(4) =   1

     atomic species   valence    mass     pseudopotential
        Si             4.00    28.08550     Si( 1.00)

     24 Sym. Ops. (no inversion) found



   Cartesian axes

     site n.     atom                  positions (alat units)
         1           Si  tau(   1) = (   0.0000000   0.0000000   0.0000000  )
         2           Si  tau(   2) = (   0.0000000   0.2500000   0.2500000  )
         3           Si  tau(   3) = (   0.2500000   0.0000000   0.2500000  )
         4           Si  tau(   4) = (   0.2500000   0.2500000   0.0000000  )
         5           Si  tau(   5) = (   0.1250000   0.1250000   0.1250000  )
         6           Si  tau(   6) = (   0.5000000   0.0000000   0.0000000  )
         7           Si  tau(   7) = (   0.5000000   0.2500000   0.2500000  )
         8           Si  tau(   8) = (   0.6250000   0.1250000   0.1250000  )
         9           Si  tau(   9) = (   0.7500000   0.0000000   0.2500000  )
        10           Si  tau(  10) = (   0.7500000   0.2500000   0.0000000  )
        11           Si  tau(  11) = (   0.0000000   0.5000000   0.0000000  )
        12           Si  tau(  12) = (   0.2500000   0.5000000   0.2500000  )
        13           Si  tau(  13) = (   0.1250000   0.6250000   0.1250000  )
        14           Si  tau(  14) = (   0.3750000   0.3750000   0.1250000  )
        15           Si  tau(  15) = (   0.5000000   0.5000000   0.0000000  )
        16           Si  tau(  16) = (   0.6250000   0.6250000   0.1250000  )
        17           Si  tau(  17) = (   0.8750000   0.3750000   0.1250000  )
        18           Si  tau(  18) = (   0.7500000   0.5000000   0.2500000  )
        19           Si  tau(  19) = (   0.0000000   0.7500000   0.2500000  )
        20           Si  tau(  20) = (   0.2500000   0.7500000   0.0000000  )
        21           Si  tau(  21) = (   0.3750000   0.8750000   0.1250000  )
        22           Si  tau(  22) = (   0.5000000   0.7500000   0.2500000  )
        23           Si  tau(  23) = (   0.7500000   0.7500000   0.0000000  )
        24           Si  tau(  24) = (   0.8750000   0.8750000   0.1250000  )
        25           Si  tau(  25) = (   0.0000000   0.0000000   0.5000000  )
        26           Si  tau(  26) = (   0.2500000   0.2500000   0.5000000  )
        27           Si  tau(  27) = (   0.1250000   0.1250000   0.6250000  )
        28           Si  tau(  28) = (   0.3750000   0.1250000   0.3750000  )
        29           Si  tau(  29) = (   0.5000000   0.0000000   0.5000000  )
        30           Si  tau(  30) = (   0.6250000   0.1250000   0.6250000  )
        31           Si  tau(  31) = (   0.8750000   0.1250000   0.3750000  )
        32           Si  tau(  32) = (   0.7500000   0.2500000   0.5000000  )
        33           Si  tau(  33) = (   0.1250000   0.3750000   0.3750000  )
        34           Si  tau(  34) = (   0.0000000   0.5000000   0.5000000  )
        35           Si  tau(  35) = (   0.1250000   0.6250000   0.6250000  )
        36           Si  tau(  36) = (   0.6250000   0.3750000   0.3750000  )
        37           Si  tau(  37) = (   0.3750000   0.6250000   0.3750000  )
        38           Si  tau(  38) = (   0.3750000   0.3750000   0.6250000  )
        39           Si  tau(  39) = (   0.5000000   0.5000000   0.5000000  )
        40           Si  tau(  40) = (   0.6250000   0.6250000   0.6250000  )
        41           Si  tau(  41) = (   0.8750000   0.6250000   0.3750000  )
        42           Si  tau(  42) = (   0.8750000   0.3750000   0.6250000  )
        43           Si  tau(  43) = (   0.1250000   0.8750000   0.3750000  )
        44           Si  tau(  44) = (   0.2500000   0.7500000   0.5000000  )
        45           Si  tau(  45) = (   0.6250000   0.8750000   0.3750000  )
        46           Si  tau(  46) = (   0.3750000   0.8750000   0.6250000  )
        47           Si  tau(  47) = (   0.7500000   0.7500000   0.5000000  )
        48           Si  tau(  48) = (   0.8750000   0.8750000   0.6250000  )
        49           Si  tau(  49) = (   0.0000000   0.2500000   0.7500000  )
        50           Si  tau(  50) = (   0.2500000   0.0000000   0.7500000  )
        51           Si  tau(  51) = (   0.3750000   0.1250000   0.8750000  )
        52           Si  tau(  52) = (   0.5000000   0.2500000   0.7500000  )
        53           Si  tau(  53) = (   0.7500000   0.0000000   0.7500000  )
        54           Si  tau(  54) = (   0.8750000   0.1250000   0.8750000  )
        55           Si  tau(  55) = (   0.1250000   0.3750000   0.8750000  )
        56           Si  tau(  56) = (   0.2500000   0.5000000   0.7500000  )
        57           Si  tau(  57) = (   0.6250000   0.3750000   0.8750000  )
        58           Si  tau(  58) = (   0.3750000   0.6250000   0.8750000  )
        59           Si  tau(  59) = (   0.7500000   0.5000000   0.7500000  )
        60           Si  tau(  60) = (   0.8750000   0.6250000   0.8750000  )
        61           Si  tau(  61) = (   0.0000000   0.7500000   0.7500000  )
        62           Si  tau(  62) = (   0.1250000   0.8750000   0.8750000  )
        63           Si  tau(  63) = (   0.5000000   0.7500000   0.7500000  )
        64           Si  tau(  64) = (   0.6250000   0.8750000   0.8750000  )

     number of k points=     1
                       cart. coord. in units 2pi/alat
        k(    1) = (   0.0000000   0.0000000   0.0000000), wk =   2.0000000

     Dense  grid:   147954 G-vectors     FFT dimensions: (  90,  90,  90)

     Estimated max dynamical RAM per process >     220.70 MB

     Estimated total dynamical RAM >     846.69 MB

     Initial potential from superposition of free atoms

     starting charge     255.9608, renormalised to     256.0000
     Starting wfcs are  256 randomized atomic wfcs

     total cpu time spent up to now is        5.9 secs

     Self-consistent Calculation

     iteration #  1     ecut=    40.00 Ry     beta= 0.50
     Davidson diagonalization with overlap
     ethr =  1.00E-02,  avg # of iterations =  2.0

     Threshold (ethr) on eigenvalues was too large:
     Diagonalizing with lowered threshold

     Davidson diagonalization with overlap
     ethr =  6.78E-04,  avg # of iterations =  2.0

     total cpu time spent up to now is        6.2 secs

     total energy              =    -503.98175695 Ry
     estimated scf accuracy    <       1.93871815 Ry

     iteration #  2     ecut=    40.00 Ry     beta= 0.50
     Davidson diagonalization with overlap
     ethr =  7.57E-04,  avg # of iterations =  1.0

     total cpu time spent up to now is        6.4 secs

     total energy              =    -503.95404949 Ry
     estimated scf accuracy    <       0.37736808 Ry

     iteration #  3     ecut=    40.00 Ry     beta= 0.50
     Davidson diagonalization with overlap
     ethr =  1.47E-04,  avg # of iterations =  2.0

     total cpu time spent up to now is        6.5 secs

     total energy              =    -503.98403120 Ry
     estimated scf accuracy    <       0.00625870 Ry

     iteration #  4     ecut=    40.00 Ry     beta= 0.50
     Davidson diagonalization with overlap
     ethr =  2.44E-06,  avg # of iterations =  3.0

     total cpu time spent up to now is        6.6 secs

     total energy              =    -503.98708430 Ry
     estimated scf accuracy    <       0.00071067 Ry

     iteration #  5     ecut=    40.00 Ry     beta= 0.50
     Davidson diagonalization with overlap
     ethr =  2.78E-07,  avg # of iterations =  3.0

     total cpu time spent up to now is        6.8 secs

     total energy              =    -503.98732220 Ry
     estimated scf accuracy    <       0.00001646 Ry

     iteration #  6     ecut=    40.00 Ry     beta= 0.50
     Davidson diagonalization with overlap
     ethr =  6.43E-09,  avg # of iterations =  8.0

     total cpu time spent up to now is        7.0 secs

     total energy              =    -503.98734841 Ry
     estimated scf accuracy    <       0.00000498 Ry

     iteration #  7     ecut=    40.00 Ry     beta= 0.50
     Davidson diagonalization with overlap
     ethr =  1.94E-09,  avg # of iterations =  2.0

     total cpu time spent up to now is        7.2 secs

     total energy              =    -503.98735069 Ry
     estimated scf accuracy    <       0.00000187 Ry

     iteration #  8     ecut=    40.00 Ry     beta= 0.50
     Davidson diagonalization with overlap
     ethr =  7.32E-10,  avg # of iterations =  2.0

     total cpu time spent up to now is        7.3 secs

     total energy              =    -503.98735034 Ry
     estimated scf accuracy    <       0.00000168 Ry

     iteration #  9     ecut=    40.00 Ry     beta= 0.50
     Davidson diagonalization with overlap
     ethr =  6.56E-10,  avg # of iterations =  1.0

     total cpu time spent up to now is        7.4 secs

     End of self-consistent calculation

          k = 0.0000 0.0000 0.0000 ( 18537 PWs)   bands (ev):

    -5.6944  -4.6119  -4.6119  -4.6119  -4.6119  -4.6119  -4.6119  -3.6494
    -3.6494  -3.6494  -3.6494  -3.6494  -3.6494  -3.6494  -3.6493  -3.6493
    -3.6493  -3.6493  -3.6493  -3.3610  -3.3610  -3.3610  -3.3610  -1.5478
    -1.5478  -1.5478  -1.5478  -1.5478  -1.5478  -1.3832  -1.3832  -1.3832
    -1.3832  -1.3832  -1.3832  -1.3832  -1.3832  -1.3832  -1.3832  -1.3832
    -1.3832  -0.7040  -0.7040  -0.7039  -0.7039   0.7889   0.7889   0.7889
     0.7889   0.7889   0.7889   0.7889   0.7889   0.7889   0.7889   0.7889
     0.7890   2.4126   2.4126   2.4126   2.4127   2.4127   2.4127   2.4127
     2.4127   2.4127   2.4127   2.4127   2.4127   2.5126   2.5126   2.5126
     2.5126   2.5126   2.5126   2.5126   2.5126   2.5126   2.5126   2.5126
     2.5126   2.7529   2.7529   2.7529   2.7529   2.7529   2.7529   3.4199
     3.4199   3.4199   3.4199   3.4199   3.4199   4.3813   4.3813   4.3813
     4.3813   4.3813   4.3813   4.3813   4.3813   4.3813   4.3813   4.3813
     4.3813   4.9460   4.9460   4.9460   4.9460   4.9460   4.9460   4.9460
     4.9460   4.9460   4.9460   4.9460   4.9460   5.0764   5.0764   5.0764
     5.0764   5.0764   5.0764   5.0764   5.0764   6.2732   6.2732   6.2732

     highest occupied level (ev):     6.2732

!    total energy              =    -503.98735029 Ry
     estimated scf accuracy    <       0.00000022 Ry

     The total energy is the sum of the following terms:
     one-electron contribution =     151.86014810 Ry
     hartree contribution      =      36.12862188 Ry
     xc contribution           =    -154.47921138 Ry
     ewald contribution        =    -537.49690888 Ry

     convergence has been achieved in   9 iterations

     Forces acting on atoms (cartesian axes, Ry/au):

     atom    1 type  1   force =     0.00000000    0.00000000    0.00000000
     atom    2 type  1   force =    -0.00000025   -0.00000107   -0.00000107
     atom    3 type  1   force =    -0.00000107   -0.00000025   -0.00000107
     atom    4 type  1   force =    -0.00000107   -0.00000107   -0.00000025
     atom    5 type  1   force =    -0.00000027   -0.00000027   -0.00000027
     atom    6 type  1   force =     0.00000000    0.00000000    0.00000000
     atom    7 type  1   force =     0.00000112   -0.00000135   -0.00000135
     atom    8 type  1   force =     0.00000062    0.00000000    0.00000000
     atom    9 type  1   force =     0.00000107    0.00000025   -0.00000107
     atom   10 type  1   force =     0.00000107   -0.00000107    0.00000025
     atom   11 type  1   force =     0.00000000    0.00000000    0.00000000
     atom   12 type  1   force =    -0.00000135    0.00000112   -0.00000135
     atom   13 type  1   force =     0.00000000    0.00000062    0.00000000
     atom   14 type  1   force =    -0.00000100   -0.00000100   -0.00000047
     atom   15 type  1   force =     0.00000000    0.00000000    0.00000000
     atom   16 type  1   force =     0.00000100    0.00000100   -0.00000047
     atom   17 type  1   force =    -0.00000000   -0.00000062    0.00000000
     atom   18 type  1   force =     0.00000135   -0.00000112   -0.00000135
     atom   19 type  1   force =     0.00000025    0.00000107   -0.00000107
     atom   20 type  1   force =    -0.00000107    0.00000107    0.00000025
     atom   21 type  1   force =    -0.00000062   -0.00000000    0.00000000
     atom   22 type  1   force =    -0.00000112    0.00000135   -0.00000135
     atom   23 type  1   force =     0.00000107    0.00000107   -0.00000025
     atom   24 type  1   force =     0.00000027    0.00000027   -0.00000027
     atom   25 type  1   force =     0.00000000    0.00000000    0.00000000
     atom   26 type  1   force =    -0.00000135   -0.00000135    0.00000112
     atom   27 type  1   force =     0.00000000    0.00000000    0.00000062
     atom   28 type  1   force =    -0.00000100   -0.00000047   -0.00000100
     atom   29 type  1   force =     0.00000000    0.00000000    0.00000000
     atom   30 type  1   force =     0.00000100   -0.00000047    0.00000100
     atom   31 type  1   force =    -0.00000000    0.00000000   -0.00000062
     atom   32 type  1   force =     0.00000135   -0.00000135   -0.00000112
     atom   33 type  1   force =    -0.00000047   -0.00000100   -0.00000100
     atom   34 type  1   force =     0.00000000    0.00000000    0.00000000
     atom   35 type  1   force =    -0.00000047    0.00000100    0.00000100
     atom   36 type  1   force =     0.00000341   -0.00000341   -0.00000341
     atom   37 type  1   force =    -0.00000341    0.00000341   -0.00000341
     atom   38 type  1   force =    -0.00000341   -0.00000341    0.00000341
     atom   39 type  1   force =     0.00000000    0.00000000    0.00000000
     atom   40 type  1   force =     0.00000341    0.00000341    0.00000341
     atom   41 type  1   force =     0.00000047    0.00000100   -0.00000100
     atom   42 type  1   force =     0.00000047   -0.00000100    0.00000100
     atom   43 type  1   force =     0.00000000   -0.00000000   -0.00000062
     atom   44 type  1   force =    -0.00000135    0.00000135   -0.00000112
     atom   45 type  1   force =     0.00000100    0.00000047   -0.00000100
     atom   46 type  1   force =    -0.00000100    0.00000047    0.00000100
     atom   47 type  1   force =     0.00000135    0.00000135    0.00000112
     atom   48 type  1   force =    -0.00000000   -0.00000000    0.00000062
     atom   49 type  1   force =     0.00000025   -0.00000107    0.00000107
     atom   50 type  1   force =    -0.00000107    0.00000025    0.00000107
     atom   51 type  1   force =    -0.00000062    0.00000000   -0.00000000
     atom   52 type  1   force =    -0.00000112   -0.00000135    0.00000135
     atom   53 type  1   force =     0.00000107   -0.00000025    0.00000107
     atom   54 type  1   force =     0.00000027   -0.00000027    0.00000027
     atom   55 type  1   force =     0.00000000   -0.00000062   -0.00000000
     atom   56 type  1   force =    -0.00000135   -0.00000112    0.00000135
     atom   57 type  1   force =     0.00000100   -0.00000100    0.00000047
     atom   58 type  1   force =    -0.00000100    0.00000100    0.00000047
     atom   59 type  1   force =     0.00000135    0.00000112    0.00000135
     atom   60 type  1   force =    -0.00000000    0.00000062   -0.00000000
     atom   61 type  1   force =    -0.00000025    0.00000107    0.00000107
     atom   62 type  1   force =    -0.00000027    0.00000027    0.00000027
     atom   63 type  1   force =     0.00000112    0.00000135    0.00000135
     atom   64 type  1   force =     0.00000062   -0.00000000   -0.00000000

     Total force =     0.000016     Total SCF correction =     0.000375
     SCF correction compared to forces is large: reduce conv_thr to get better values


     Computing stress (Cartesian axis) and pressure

          total   stress  (Ry/bohr**3)                   (kbar)     P=       31.27
   0.00021259   0.00000000   0.00000000           31.27        0.00        0.00
   0.00000000   0.00021259   0.00000000            0.00       31.27        0.00
   0.00000000   0.00000000   0.00021259            0.00        0.00       31.27


     BFGS Geometry Optimization
     Energy error            =      0.0E+00 Ry
     Gradient error          =      3.4E-06 Ry/Bohr
     Cell gradient error     =      3.1E+01 kbar

     number of scf cycles    =   1
     number of bfgs steps    =   0

     enthalpy           new  =    -503.9873502904 Ry

     new trust radius        =       0.0988401932 bohr
     new conv_thr            =       0.0000010000 Ry

     new unit-cell volume =   8785.37067 a.u.^3 (  1301.85762 Ang^3 )
     density =      2.29270 g/cm^3

CELL_PARAMETERS (angstrom)
  10.919124793   0.000000000   0.000000000
   0.000000000  10.919124793   0.000000000
   0.000000000   0.000000000  10.919124793

ATOMIC_POSITIONS (angstrom)
Si            0.0000000000        0.0000000000        0.0000000000
Si           -0.0000001355        2.7297806278        2.7297806278
Si            2.7297806278       -0.0000001355        2.7297806278
Si            2.7297806278        2.7297806278       -0.0000001355
Si            1.3648904543        1.3648904543        1.3648904543
Si            5.4595623966        0.0000000000        0.0000000000
Si            5.4595629929        2.7297804775        2.7297804775
Si            6.8244533242        1.3648905994        1.3648905994
Si            8.1893441654        0.0000001355        2.7297806278
Si            8.1893441654        2.7297806278        0.0000001355
Si            0.0000000000        5.4595623966        0.0000000000
Si            2.7297804775        5.4595629929        2.7297804775
Si            1.3648905994        6.8244533242        1.3648905994
Si            4.0946712634        4.0946712634        1.3648903492
Si            5.4595623966        5.4595623966        0.0000000000
Si            6.8244535298        6.8244535298        1.3648903492
Si            9.5542341938        4.0946714689        1.3648905994
Si            8.1893443156        5.4595618003        2.7297804775
Si            0.0000001355        8.1893441654        2.7297806278
Si            2.7297806278        8.1893441654        0.0000001355
Si            4.0946714689        9.5542341938        1.3648905994
Si            5.4595618003        8.1893443156        2.7297804775
Si            8.1893441654        8.1893441654       -0.0000001355
Si            9.5542343389        9.5542343389        1.3648904543
Si            0.0000000000        0.0000000000        5.4595623966
Si            2.7297804775        2.7297804775        5.4595629929
Si            1.3648905994        1.3648905994        6.8244533242
Si            4.0946712634        1.3648903492        4.0946712634
Si            5.4595623966        0.0000000000        5.4595623966
Si            6.8244535298        1.3648903492        6.8244535298
Si            9.5542341938        1.3648905994        4.0946714689
Si            8.1893443156        2.7297804775        5.4595618003
Si            1.3648903492        4.0946712634        4.0946712634
Si            0.0000000000        5.4595623966        5.4595623966
Si            1.3648903492        6.8244535298        6.8244535298
Si            6.8244548076        4.0946699856        4.0946699856
Si            4.0946699856        6.8244548076        4.0946699856
Si            4.0946699856        4.0946699856        6.8244548076
Si            5.4595623966        5.4595623966        5.4595623966
Si            6.8244548076        6.8244548076        6.8244548076
Si            9.5542344440        6.8244535298        4.0946712634
Si            9.5542344440        4.0946712634        6.8244535298
Si            1.3648905994        9.5542341938        4.0946714689
Si            2.7297804775        8.1893443156        5.4595618003
Si            6.8244535298        9.5542344440        4.0946712634
Si            4.0946712634        9.5542344440        6.8244535298
Si            8.1893443156        8.1893443156        5.4595629929
Si            9.5542341938        9.5542341938        6.8244533242
Si            0.0000001355        2.7297806278        8.1893441654
Si            2.7297806278        0.0000001355        8.1893441654
Si            4.0946714689        1.3648905994        9.5542341938
Si            5.4595618003        2.7297804775        8.1893443156
Si            8.1893441654       -0.0000001355        8.1893441654
Si            9.5542343389        1.3648904543        9.5542343389
Si            1.3648905994        4.0946714689        9.5542341938
Si            2.7297804775        5.4595618003        8.1893443156
Si            6.8244535298        4.0946712634        9.5542344440
Si            4.0946712634        6.8244535298        9.5542344440
Si            8.1893443156        5.4595629929        8.1893443156
Si            9.5542341938        6.8244533242        9.5542341938
Si           -0.0000001355        8.1893441654        8.1893441654
Si            1.3648904543        9.5542343389        9.5542343389
Si            5.4595629929        8.1893443156        8.1893443156
Si            6.8244533242        9.5542341938        9.5542341938



     Writing config-only to output data dir ./pwscf.save/
     NEW-OLD atomic charge density approx. for the potential
     extrapolated charge  260.03805, renormalised to  256.00000

     total cpu time spent up to now is        9.3 secs

     Self-consistent Calculation

     iteration #  1     ecut=    40.00 Ry     beta= 0.50
     Davidson diagonalization with overlap
     ethr =  1.00E-06,  avg # of iterations =  6.0

     total cpu time spent up to now is        9.5 secs

     total energy              =    -504.00422901 Ry
     estimated scf accuracy    <       0.00255859 Ry

     iteration #  2     ecut=    40.00 Ry     beta= 0.50
     Davidson diagonalization with overlap
     ethr =  9.99E-07,  avg # of iterations =  4.0

     total cpu time spent up to now is        9.7 secs

     total energy              =    -504.00946053 Ry
     estimated scf accuracy    <       0.00108949 Ry

     iteration #  3     ecut=    40.00 Ry     beta= 0.50
     Davidson diagonalization with overlap
     ethr =  4.26E-07,  avg # of iterations =  1.0

     total cpu time spent up to now is        9.8 secs

     total energy              =    -504.00929722 Ry
     estimated scf accuracy    <       0.00047532 Ry

     iteration #  4     ecut=    40.00 Ry     beta= 0.50
     Davidson diagonalization with overlap
     ethr =  1.86E-07,  avg # of iterations =  2.0

     total cpu time spent up to now is       10.0 secs

     total energy              =    -504.00934719 Ry
     estimated scf accuracy    <       0.00002363 Ry

     iteration #  5     ecut=    40.00 Ry     beta= 0.50
     Davidson diagonalization with overlap
     ethr =  9.23E-09,  avg # of iterations =  2.0

     total cpu time spent up to now is       10.1 secs

     total energy              =    -504.00934768 Ry
     estimated scf accuracy    <       0.00001076 Ry

     iteration #  6     ecut=    40.00 Ry     beta= 0.50
     Davidson diagonalization with overlap
     ethr =  4.20E-09,  avg # of iterations =  1.0

     total cpu time spent up to now is       10.2 secs

     total energy              =    -504.00934751 Ry
     estimated scf accuracy    <       0.00000798 Ry

     iteration #  7     ecut=    40.00 Ry     beta= 0.50
     Davidson diagonalization with overlap
     ethr =  3.12E-09,  avg # of iterations =  1.0

     total cpu time spent up to now is       10.3 secs

     total energy              =    -504.00934409 Ry
     estimated scf accuracy    <       0.00000789 Ry

     iteration #  8     ecut=    40.00 Ry     beta= 0.50
     Davidson diagonalization with overlap
     ethr =  3.08E-09,  avg # of iterations =  2.0

     total cpu time spent up to now is       10.5 secs

     End of self-consistent calculation

          k = 0.0000 0.0000 0.0000 ( 18537 PWs)   bands (ev):

    -5.7509  -4.6832  -4.6832  -4.6832  -4.6832  -4.6832  -4.6832  -3.7361
    -3.7361  -3.7361  -3.7361  -3.7361  -3.7361  -3.7360  -3.7360  -3.7360
    -3.7360  -3.7360  -3.7360  -3.4576  -3.4576  -3.4575  -3.4575  -1.6620
    -1.6620  -1.6620  -1.6620  -1.6620  -1.6620  -1.5045  -1.5045  -1.5045
    -1.5045  -1.5045  -1.5045  -1.5045  -1.5045  -1.5045  -1.5045  -1.5045
    -1.5045  -0.7952  -0.7951  -0.7951  -0.7951   0.6523   0.6523   0.6523
     0.6523   0.6523   0.6523   0.6523   0.6523   0.6523   0.6523   0.6523
     0.6524   2.3144   2.3144   2.3144   2.3144   2.3144   2.3144   2.3144
     2.3144   2.3144   2.3144   2.3144   2.3144   2.4082   2.4083   2.4083
     2.4083   2.4083   2.4083   2.4083   2.4083   2.4083   2.4083   2.4083
     2.4083   2.5845   2.5846   2.5846   2.5846   2.5846   2.5846   3.2961
     3.2961   3.2961   3.2961   3.2961   3.2961   4.2454   4.2454   4.2454
     4.2454   4.2454   4.2454   4.2454   4.2454   4.2454   4.2454   4.2454
     4.2454   4.7984   4.7984   4.7984   4.7984   4.7984   4.7984   4.7984
     4.7984   4.7984   4.7984   4.7984   4.7984   4.9249   4.9249   4.9249
     4.9249   4.9249   4.9249   4.9249   4.9249   6.1079   6.1079   6.1079

     highest occupied level (ev):     6.1079

!    total energy              =    -504.00934487 Ry
     estimated scf accuracy    <       0.00000012 Ry

     The total energy is the sum of the following terms:
     one-electron contribution =     148.02843832 Ry
     hartree contribution      =      36.56221046 Ry
     xc contribution           =    -153.94460353 Ry
     ewald contribution        =    -534.65539012 Ry

     convergence has been achieved in   8 iterations

     Forces acting on atoms (cartesian axes, Ry/au):

     atom    1 type  1   force =     0.00000000    0.00000000    0.00000000
     atom    2 type  1   force =    -0.00000001    0.00000784    0.00000784
     atom    3 type  1   force =     0.00000784   -0.00000001    0.00000784
     atom    4 type  1   force =     0.00000784    0.00000784   -0.00000001
     atom    5 type  1   force =     0.00000527    0.00000527    0.00000527
     atom    6 type  1   force =     0.00000000    0.00000000    0.00000000
     atom    7 type  1   force =    -0.00000074    0.00000807    0.00000807
     atom    8 type  1   force =    -0.00000497    0.00000548    0.00000548
     atom    9 type  1   force =    -0.00000784    0.00000001    0.00000784
     atom   10 type  1   force =    -0.00000784    0.00000784    0.00000001
     atom   11 type  1   force =     0.00000000    0.00000000    0.00000000
     atom   12 type  1   force =     0.00000807   -0.00000074    0.00000807
     atom   13 type  1   force =     0.00000548   -0.00000497    0.00000548
     atom   14 type  1   force =     0.00000557    0.00000557    0.00000584
     atom   15 type  1   force =     0.00000000    0.00000000    0.00000000
     atom   16 type  1   force =    -0.00000557   -0.00000557    0.00000584
     atom   17 type  1   force =    -0.00000548    0.00000497    0.00000548
     atom   18 type  1   force =    -0.00000807    0.00000074    0.00000807
     atom   19 type  1   force =     0.00000001   -0.00000784    0.00000784
     atom   20 type  1   force =     0.00000784   -0.00000784    0.00000001
     atom   21 type  1   force =     0.00000497   -0.00000548    0.00000548
     atom   22 type  1   force =     0.00000074   -0.00000807    0.00000807
     atom   23 type  1   force =    -0.00000784   -0.00000784   -0.00000001
     atom   24 type  1   force =    -0.00000527   -0.00000527    0.00000527
     atom   25 type  1   force =     0.00000000    0.00000000    0.00000000
     atom   26 type  1   force =     0.00000807    0.00000807   -0.00000074
     atom   27 type  1   force =     0.00000548    0.00000548   -0.00000497
     atom   28 type  1   force =     0.00000557    0.00000584    0.00000557
     atom   29 type  1   force =     0.00000000    0.00000000    0.00000000
     atom   30 type  1   force =    -0.00000557    0.00000584   -0.00000557
     atom   31 type  1   force =    -0.00000548    0.00000548    0.00000497
     atom   32 type  1   force =    -0.00000807    0.00000807    0.00000074
     atom   33 type  1   force =     0.00000584    0.00000557    0.00000557
     atom   34 type  1   force =     0.00000000    0.00000000    0.00000000
     atom   35 type  1   force =     0.00000584   -0.00000557   -0.00000557
     atom   36 type  1   force =    -0.00000649    0.00000649    0.00000649
     atom   37 type  1   force =     0.00000649   -0.00000649    0.00000649
     atom   38 type  1   force =     0.00000649    0.00000649   -0.00000649
     atom   39 type  1   force =     0.00000000    0.00000000    0.00000000
     atom   40 type  1   force =    -0.00000649   -0.00000649   -0.00000649
     atom   41 type  1   force =    -0.00000584   -0.00000557    0.00000557
     atom   42 type  1   force =    -0.00000584    0.00000557   -0.00000557
     atom   43 type  1   force =     0.00000548   -0.00000548    0.00000497
     atom   44 type  1   force =     0.00000807   -0.00000807    0.00000074
     atom   45 type  1   force =    -0.00000557   -0.00000584    0.00000557
     atom   46 type  1   force =     0.00000557   -0.00000584   -0.00000557
     atom   47 type  1   force =    -0.00000807   -0.00000807   -0.00000074
     atom   48 type  1   force =    -0.00000548   -0.00000548   -0.00000497
     atom   49 type  1   force =     0.00000001    0.00000784   -0.00000784
     atom   50 type  1   force =     0.00000784    0.00000001   -0.00000784
     atom   51 type  1   force =     0.00000497    0.00000548   -0.00000548
     atom   52 type  1   force =     0.00000074    0.00000807   -0.00000807
     atom   53 type  1   force =    -0.00000784   -0.00000001   -0.00000784
     atom   54 type  1   force =    -0.00000527    0.00000527   -0.00000527
     atom   55 type  1   force =     0.00000548    0.00000497   -0.00000548
     atom   56 type  1   force =     0.00000807    0.00000074   -0.00000807
     atom   57 type  1   force =    -0.00000557    0.00000557   -0.00000584
     atom   58 type  1   force =     0.00000557   -0.00000557   -0.00000584
     atom   59 type  1   force =    -0.00000807   -0.00000074   -0.00000807
     atom   60 type  1   force =    -0.00000548   -0.00000497   -0.00000548
     atom   61 type  1   force =    -0.00000001   -0.00000784   -0.00000784
     atom   62 type  1   force =     0.00000527   -0.00000527   -0.00000527
     atom   63 type  1   force =    -0.00000074   -0.00000807   -0.00000807
     atom   64 type  1   force =    -0.00000497   -0.00000548   -0.00000548

     Total force =     0.000078     Total SCF correction =     0.000532
     SCF correction compared to forces is large: reduce conv_thr to get better values


     Computing stress (Cartesian axis) and pressure

          total   stress  (Ry/bohr**3)                   (kbar)     P=       15.66
   0.00010644   0.00000000   0.00000000           15.66        0.00        0.00
   0.00000000   0.00010644   0.00000000            0.00       15.66        0.00
   0.00000000   0.00000000   0.00010644            0.00        0.00       15.66

     Energy error            =      2.2E-02 Ry
     Gradient error          =      8.1E-06 Ry/Bohr
     Cell gradient error     =      1.6E+01 kbar

     number of scf cycles    =   2
     number of bfgs steps    =   1

     enthalpy           old  =    -503.9873502904 Ry
     enthalpy           new  =    -504.0093448678 Ry

     CASE: enthalpy          _new < enthalpy          _old

     new trust radius        =       0.1015273378 bohr
     new conv_thr            =       0.0000000100 Ry

     new unit-cell volume =   8928.88798 a.u.^3 (  1323.12469 Ang^3 )
     density =      2.25585 g/cm^3

CELL_PARAMETERS (angstrom)
  10.978261997   0.000000000   0.000000000
   0.000000000  10.978261997   0.000000000
   0.000000000   0.000000000  10.978261997

ATOMIC_POSITIONS (angstrom)
Si            0.0000000000        0.0000000000        0.0000000000
Si           -0.0000001498        2.7445734556        2.7445734556
Si            2.7445734556       -0.0000001498        2.7445734556
Si            2.7445734556        2.7445734556       -0.0000001498
Si            1.3722883355        1.3722883355        1.3722883355
Si            5.4891309986        0.0000000000        0.0000000000
Si            5.4891307933        2.7445735627        2.7445735627
Si            6.8614086675        1.3722887201        1.3722887201
Si            8.2336885416        0.0000001498        2.7445734556
Si            8.2336885416        2.7445734556        0.0000001498
Si            0.0000000000        5.4891309986        0.0000000000
Si            2.7445735627        5.4891307933        2.7445735627
Si            1.3722887201        6.8614086675        1.3722887201
Si            4.1168537755        4.1168537755        1.3722888605
Si            5.4891309986        5.4891309986        0.0000000000
Si            6.8614082216        6.8614082216        1.3722888605
Si            9.6059732770        4.1168533297        1.3722887201
Si            8.2336884345        5.4891312039        2.7445735627
Si            0.0000001498        8.2336885416        2.7445734556
Si            2.7445734556        8.2336885416        0.0000001498
Si            4.1168533297        9.6059732770        1.3722887201
Si            5.4891312039        8.2336884345        2.7445735627
Si            8.2336885416        8.2336885416       -0.0000001498
Si            9.6059736617        9.6059736617        1.3722883355
Si            0.0000000000        0.0000000000        5.4891309986
Si            2.7445735627        2.7445735627        5.4891307933
Si            1.3722887201        1.3722887201        6.8614086675
Si            4.1168537755        1.3722888605        4.1168537755
Si            5.4891309986        0.0000000000        5.4891309986
Si            6.8614082216        1.3722888605        6.8614082216
Si            9.6059732770        1.3722887201        4.1168533297
Si            8.2336884345        2.7445735627        5.4891312039
Si            1.3722888605        4.1168537755        4.1168537755
Si            0.0000000000        5.4891309986        5.4891309986
Si            1.3722888605        6.8614082216        6.8614082216
Si            6.8614085031        4.1168534941        4.1168534941
Si            4.1168534941        6.8614085031        4.1168534941
Si            4.1168534941        4.1168534941        6.8614085031
Si            5.4891309986        5.4891309986        5.4891309986
Si            6.8614085031        6.8614085031        6.8614085031
Si            9.6059731366        6.8614082216        4.1168537755
Si            9.6059731366        4.1168537755        6.8614082216
Si            1.3722887201        9.6059732770        4.1168533297
Si            2.7445735627        8.2336884345        5.4891312039
Si            6.8614082216        9.6059731366        4.1168537755
Si            4.1168537755        9.6059731366        6.8614082216
Si            8.2336884345        8.2336884345        5.4891307933
Si            9.6059732770        9.6059732770        6.8614086675
Si            0.0000001498        2.7445734556        8.2336885416
Si            2.7445734556        0.0000001498        8.2336885416
Si            4.1168533297        1.3722887201        9.6059732770
Si            5.4891312039        2.7445735627        8.2336884345
Si            8.2336885416       -0.0000001498        8.2336885416
Si            9.6059736617        1.3722883355        9.6059736617
Si            1.3722887201        4.1168533297        9.6059732770
Si            2.7445735627        5.4891312039        8.2336884345
Si            6.8614082216        4.1168537755        9.6059731366
Si            4.1168537755        6.8614082216        9.6059731366
Si            8.2336884345        5.4891307933        8.2336884345
Si            9.6059732770        6.8614086675        9.6059732770
Si           -0.0000001498        8.2336885416        8.2336885416
Si            1.3722883355        9.6059736617        9.6059736617
Si            5.4891307933        8.2336884345        8.2336884345
Si            6.8614086675        9.6059732770        9.6059732770



     Writing config-only to output data dir ./pwscf.save/
     NEW-OLD atomic charge density approx. for the potential
     extrapolated charge  260.11415, renormalised to  256.00000

     total cpu time spent up to now is       12.4 secs

     Self-consistent Calculation

     iteration #  1     ecut=    40.00 Ry     beta= 0.50
     Davidson diagonalization with overlap
     ethr =  1.00E-06,  avg # of iterations =  6.0

     total cpu time spent up to now is       12.6 secs

     total energy              =    -504.01188513 Ry
     estimated scf accuracy    <       0.00270527 Ry

     iteration #  2     ecut=    40.00 Ry     beta= 0.50
     Davidson diagonalization with overlap
     ethr =  1.06E-06,  avg # of iterations =  4.0

     total cpu time spent up to now is       12.8 secs

     total energy              =    -504.01738453 Ry
     estimated scf accuracy    <       0.00113915 Ry

     iteration #  3     ecut=    40.00 Ry     beta= 0.50
     Davidson diagonalization with overlap
     ethr =  4.45E-07,  avg # of iterations =  1.0

     total cpu time spent up to now is       12.9 secs

     total energy              =    -504.01721683 Ry
     estimated scf accuracy    <       0.00049490 Ry

     iteration #  4     ecut=    40.00 Ry     beta= 0.50
     Davidson diagonalization with overlap
     ethr =  1.93E-07,  avg # of iterations =  2.0

     total cpu time spent up to now is       13.0 secs

     total energy              =    -504.01726710 Ry
     estimated scf accuracy    <       0.00000980 Ry

     iteration #  5     ecut=    40.00 Ry     beta= 0.50
     Davidson diagonalization with overlap
     ethr =  3.83E-09,  avg # of iterations =  3.0

     total cpu time spent up to now is       13.2 secs

     total energy              =    -504.01727007 Ry
     estimated scf accuracy    <       0.00001125 Ry

     iteration #  6     ecut=    40.00 Ry     beta= 0.50
     Davidson diagonalization with overlap
     ethr =  3.83E-09,  avg # of iterations =  1.0

     total cpu time spent up to now is       13.3 secs

     total energy              =    -504.01726449 Ry
     estimated scf accuracy    <       0.00001352 Ry

     iteration #  7     ecut=    40.00 Ry     beta= 0.50
     Davidson diagonalization with overlap
     ethr =  3.83E-09,  avg # of iterations =  2.0

     total cpu time spent up to now is       13.5 secs

     total energy              =    -504.01726532 Ry
     estimated scf accuracy    <       0.00000324 Ry

     iteration #  8     ecut=    40.00 Ry     beta= 0.50
     Davidson diagonalization with overlap
     ethr =  1.26E-09,  avg # of iterations =  1.0

     total cpu time spent up to now is       13.6 secs

     total energy              =    -504.01726516 Ry
     estimated scf accuracy    <       0.00000188 Ry

     iteration #  9     ecut=    40.00 Ry     beta= 0.50
     Davidson diagonalization with overlap
     ethr =  7.34E-10,  avg # of iterations =  2.0

     total cpu time spent up to now is       13.7 secs

     total energy              =    -504.01726521 Ry
     estimated scf accuracy    <       0.00000071 Ry

     iteration # 10     ecut=    40.00 Ry     beta= 0.50
     Davidson diagonalization with overlap
     ethr =  2.79E-10,  avg # of iterations =  2.0

     total cpu time spent up to now is       13.9 secs

     total energy              =    -504.01726520 Ry
     estimated scf accuracy    <       0.00000047 Ry

     iteration # 11     ecut=    40.00 Ry     beta= 0.50
     Davidson diagonalization with overlap
     ethr =  1.85E-10,  avg # of iterations =  2.0

     total cpu time spent up to now is       14.0 secs

     total energy              =    -504.01726521 Ry
     estimated scf accuracy    <       0.00000023 Ry

     iteration # 12     ecut=    40.00 Ry     beta= 0.50
     Davidson diagonalization with overlap
     ethr =  9.17E-11,  avg # of iterations =  2.0

     total cpu time spent up to now is       14.1 secs

     total energy              =    -504.01726521 Ry
     estimated scf accuracy    <       0.00000013 Ry

     iteration # 13     ecut=    40.00 Ry     beta= 0.50
     Davidson diagonalization with overlap
     ethr =  4.89E-11,  avg # of iterations =  2.0

     total cpu time spent up to now is       14.3 secs

     total energy              =    -504.01726521 Ry
     estimated scf accuracy    <       0.00000005 Ry

     iteration # 14     ecut=    40.00 Ry     beta= 0.50
     Davidson diagonalization with overlap
     ethr =  1.91E-11,  avg # of iterations =  3.0

     total cpu time spent up to now is       14.4 secs

     End of self-consistent calculation

          k = 0.0000 0.0000 0.0000 ( 18537 PWs)   bands (ev):

    -5.8075  -4.7548  -4.7548  -4.7548  -4.7548  -4.7548  -4.7548  -3.8231
    -3.8231  -3.8231  -3.8231  -3.8231  -3.8231  -3.8231  -3.8231  -3.8231
    -3.8231  -3.8231  -3.8231  -3.5543  -3.5543  -3.5543  -3.5543  -1.7768
    -1.7768  -1.7768  -1.7768  -1.7768  -1.7768  -1.6263  -1.6263  -1.6263
    -1.6263  -1.6263  -1.6263  -1.6263  -1.6263  -1.6263  -1.6263  -1.6263
    -1.6263  -0.8873  -0.8873  -0.8873  -0.8873   0.5147   0.5147   0.5147
     0.5147   0.5147   0.5147   0.5147   0.5147   0.5147   0.5147   0.5147
     0.5147   2.2157   2.2157   2.2157   2.2157   2.2157   2.2157   2.2157
     2.2157   2.2157   2.2157   2.2157   2.2157   2.3037   2.3037   2.3037
     2.3037   2.3037   2.3037   2.3037   2.3037   2.3037   2.3037   2.3037
     2.3037   2.4150   2.4150   2.4150   2.4150   2.4150   2.4150   3.1719
     3.1719   3.1719   3.1719   3.1719   3.1719   4.1092   4.1092   4.1092
     4.1092   4.1092   4.1092   4.1092   4.1092   4.1092   4.1092   4.1092
     4.1092   4.6504   4.6504   4.6504   4.6504   4.6504   4.6504   4.6504
     4.6504   4.6504   4.6504   4.6504   4.6504   4.7730   4.7730   4.7730
     4.7730   4.7730   4.7730   4.7730   4.7730   5.9420   5.9420   5.9420

     highest occupied level (ev):     5.9420

!    total energy              =    -504.01726521 Ry
     estimated scf accuracy    <          3.6E-09 Ry

     The total energy is the sum of the following terms:
     one-electron contribution =     144.15466939 Ry
     hartree contribution      =      37.00898827 Ry
     xc contribution           =    -153.40559020 Ry
     ewald contribution        =    -531.77533268 Ry

     convergence has been achieved in  14 iterations

     Forces acting on atoms (cartesian axes, Ry/au):

     atom    1 type  1   force =     0.00000000    0.00000000    0.00000000
     atom    2 type  1   force =     0.00000010   -0.00000293   -0.00000293
     atom    3 type  1   force =    -0.00000293    0.00000010   -0.00000293
     atom    4 type  1   force =    -0.00000293   -0.00000293    0.00000010
     atom    5 type  1   force =    -0.00000186   -0.00000186   -0.00000186
     atom    6 type  1   force =     0.00000000    0.00000000    0.00000000
     atom    7 type  1   force =     0.00000020   -0.00000292   -0.00000292
     atom    8 type  1   force =     0.00000170   -0.00000214   -0.00000214
     atom    9 type  1   force =     0.00000293   -0.00000010   -0.00000293
     atom   10 type  1   force =     0.00000293   -0.00000293   -0.00000010
     atom   11 type  1   force =     0.00000000    0.00000000    0.00000000
     atom   12 type  1   force =    -0.00000292    0.00000020   -0.00000292
     atom   13 type  1   force =    -0.00000214    0.00000170   -0.00000214
     atom   14 type  1   force =    -0.00000203   -0.00000203   -0.00000214
     atom   15 type  1   force =     0.00000000    0.00000000    0.00000000
     atom   16 type  1   force =     0.00000203    0.00000203   -0.00000214
     atom   17 type  1   force =     0.00000214   -0.00000170   -0.00000214
     atom   18 type  1   force =     0.00000292   -0.00000020   -0.00000292
     atom   19 type  1   force =    -0.00000010    0.00000293   -0.00000293
     atom   20 type  1   force =    -0.00000293    0.00000293   -0.00000010
     atom   21 type  1   force =    -0.00000170    0.00000214   -0.00000214
     atom   22 type  1   force =    -0.00000020    0.00000292   -0.00000292
     atom   23 type  1   force =     0.00000293    0.00000293    0.00000010
     atom   24 type  1   force =     0.00000186    0.00000186   -0.00000186
     atom   25 type  1   force =     0.00000000    0.00000000    0.00000000
     atom   26 type  1   force =    -0.00000292   -0.00000292    0.00000020
     atom   27 type  1   force =    -0.00000214   -0.00000214    0.00000170
     atom   28 type  1   force =    -0.00000203   -0.00000214   -0.00000203
     atom   29 type  1   force =     0.00000000    0.00000000    0.00000000
     atom   30 type  1   force =     0.00000203   -0.00000214    0.00000203
     atom   31 type  1   force =     0.00000214   -0.00000214   -0.00000170
     atom   32 type  1   force =     0.00000292   -0.00000292   -0.00000020
     atom   33 type  1   force =    -0.00000214   -0.00000203   -0.00000203
     atom   34 type  1   force =     0.00000000    0.00000000    0.00000000
     atom   35 type  1   force =    -0.00000214    0.00000203    0.00000203
     atom   36 type  1   force =     0.00000167   -0.00000167   -0.00000167
     atom   37 type  1   force =    -0.00000167    0.00000167   -0.00000167
     atom   38 type  1   force =    -0.00000167   -0.00000167    0.00000167
     atom   39 type  1   force =     0.00000000    0.00000000    0.00000000
     atom   40 type  1   force =     0.00000167    0.00000167    0.00000167
     atom   41 type  1   force =     0.00000214    0.00000203   -0.00000203
     atom   42 type  1   force =     0.00000214   -0.00000203    0.00000203
     atom   43 type  1   force =    -0.00000214    0.00000214   -0.00000170
     atom   44 type  1   force =    -0.00000292    0.00000292   -0.00000020
     atom   45 type  1   force =     0.00000203    0.00000214   -0.00000203
     atom   46 type  1   force =    -0.00000203    0.00000214    0.00000203
     atom   47 type  1   force =     0.00000292    0.00000292    0.00000020
     atom   48 type  1   force =     0.00000214    0.00000214    0.00000170
     atom   49 type  1   force =    -0.00000010   -0.00000293    0.00000293
     atom   50 type  1   force =    -0.00000293   -0.00000010    0.00000293
     atom   51 type  1   force =    -0.00000170   -0.00000214    0.00000214
     atom   52 type  1   force =    -0.00000020   -0.00000292    0.00000292
     atom   53 type  1   force =     0.00000293    0.00000010    0.00000293
     atom   54 type  1   force =     0.00000186   -0.00000186    0.00000186
     atom   55 type  1   force =    -0.00000214   -0.00000170    0.00000214
     atom   56 type  1   force =    -0.00000292   -0.00000020    0.00000292
     atom   57 type  1   force =     0.00000203   -0.00000203    0.00000214
     atom   58 type  1   force =    -0.00000203    0.00000203    0.00000214
     atom   59 type  1   force =     0.00000292    0.00000020    0.00000292
     atom   60 type  1   force =     0.00000214    0.00000170    0.00000214
     atom   61 type  1   force =     0.00000010    0.00000293    0.00000293
     atom   62 type  1   force =    -0.00000186    0.00000186    0.00000186
     atom   63 type  1   force =     0.00000020    0.00000292    0.00000292
     atom   64 type  1   force =     0.00000170    0.00000214    0.00000214

     Total force =     0.000028     Total SCF correction =     0.000121
     SCF correction compared to forces is large: reduce conv_thr to get better values


     Computing stress (Cartesian axis) and pressure

          total   stress  (Ry/bohr**3)                   (kbar)     P=        0.79
   0.00000536   0.00000000   0.00000000            0.79        0.00        0.00
   0.00000000   0.00000536   0.00000000            0.00        0.79        0.00
   0.00000000   0.00000000   0.00000536            0.00        0.00        0.79

     Energy error            =      7.9E-03 Ry
     Gradient error          =      2.9E-06 Ry/Bohr
     Cell gradient error     =      7.9E-01 kbar

     number of scf cycles    =   3
     number of bfgs steps    =   2

     enthalpy           old  =    -504.0093448678 Ry
     enthalpy           new  =    -504.0172652150 Ry

     CASE: enthalpy          _new < enthalpy          _old

     new trust radius        =       0.0054564402 bohr
     new conv_thr            =       0.0000000100 Ry

     new unit-cell volume =   8936.62412 a.u.^3 (  1324.27107 Ang^3 )
     density =      2.25390 g/cm^3

CELL_PARAMETERS (angstrom)
  10.981431669   0.000000000   0.000000000
   0.000000000  10.981431669   0.000000000
   0.000000000   0.000000000  10.981431669

ATOMIC_POSITIONS (angstrom)
Si            0.0000000000        0.0000000000        0.0000000000
Si           -0.0000000950        2.7453644406        2.7453644406
Si            2.7453644406       -0.0000000950        2.7453644406
Si            2.7453644406        2.7453644406       -0.0000000950
Si            1.3726836407        1.3726836407        1.3726836407
Si            5.4907158345        0.0000000000        0.0000000000
Si            5.4907157223        2.7453645582        2.7453645582
Si            6.8633905305        1.3726838734        1.3726838734
Si            8.2360672284        0.0000000950        2.7453644406
Si            8.2360672284        2.7453644406        0.0000000950
Si            0.0000000000        5.4907158345        0.0000000000
Si            2.7453645582        5.4907157223        2.7453645582
Si            1.3726838734        6.8633905305        1.3726838734
Si            4.1180414130        4.1180414130        1.3726840226
Si            5.4907158345        5.4907158345        0.0000000000
Si            6.8633902561        6.8633902561        1.3726840226
Si            9.6087477956        4.1180411385        1.3726838734
Si            8.2360671108        5.4907159467        2.7453645582
Si            0.0000000950        8.2360672284        2.7453644406
Si            2.7453644406        8.2360672284        0.0000000950
Si            4.1180411385        9.6087477956        1.3726838734
Si            5.4907159467        8.2360671108        2.7453645582
Si            8.2360672284        8.2360672284       -0.0000000950
Si            9.6087480283        9.6087480283        1.3726836407
Si            0.0000000000        0.0000000000        5.4907158345
Si            2.7453645582        2.7453645582        5.4907157223
Si            1.3726838734        1.3726838734        6.8633905305
Si            4.1180414130        1.3726840226        4.1180414130
Si            5.4907158345        0.0000000000        5.4907158345
Si            6.8633902561        1.3726840226        6.8633902561
Si            9.6087477956        1.3726838734        4.1180411385
Si            8.2360671108        2.7453645582        5.4907159467
Si            1.3726840226        4.1180414130        4.1180414130
Si            0.0000000000        5.4907158345        5.4907158345
Si            1.3726840226        6.8633902561        6.8633902561
Si            6.8633903081        4.1180413609        4.1180413609
Si            4.1180413609        6.8633903081        4.1180413609
Si            4.1180413609        4.1180413609        6.8633903081
Si            5.4907158345        5.4907158345        5.4907158345
Si            6.8633903081        6.8633903081        6.8633903081
Si            9.6087476465        6.8633902561        4.1180414130
Si            9.6087476465        4.1180414130        6.8633902561
Si            1.3726838734        9.6087477956        4.1180411385
Si            2.7453645582        8.2360671108        5.4907159467
Si            6.8633902561        9.6087476465        4.1180414130
Si            4.1180414130        9.6087476465        6.8633902561
Si            8.2360671108        8.2360671108        5.4907157223
Si            9.6087477956        9.6087477956        6.8633905305
Si            0.0000000950        2.7453644406        8.2360672284
Si            2.7453644406        0.0000000950        8.2360672284
Si            4.1180411385        1.3726838734        9.6087477956
Si            5.4907159467        2.7453645582        8.2360671108
Si            8.2360672284       -0.0000000950        8.2360672284
Si            9.6087480283        1.3726836407        9.6087480283
Si            1.3726838734        4.1180411385        9.6087477956
Si            2.7453645582        5.4907159467        8.2360671108
Si            6.8633902561        4.1180414130        9.6087476465
Si            4.1180414130        6.8633902561        9.6087476465
Si            8.2360671108        5.4907157223        8.2360671108
Si            9.6087477956        6.8633905305        9.6087477956
Si           -0.0000000950        8.2360672284        8.2360672284
Si            1.3726836407        9.6087480283        9.6087480283
Si            5.4907157223        8.2360671108        8.2360671108
Si            6.8633905305        9.6087477956        9.6087477956



     Writing config-only to output data dir ./pwscf.save/
     NEW-OLD atomic charge density approx. for the potential
     extrapolated charge  256.22158, renormalised to  256.00000

     total cpu time spent up to now is       16.3 secs

     Self-consistent Calculation

     iteration #  1     ecut=    40.00 Ry     beta= 0.50
     Davidson diagonalization with overlap
     ethr =  1.00E-06,  avg # of iterations =  1.0

     Threshold (ethr) on eigenvalues was too large:
     Diagonalizing with lowered threshold

     Davidson diagonalization with overlap
     ethr =  3.33E-09,  avg # of iterations =  5.0

     total cpu time spent up to now is       16.6 secs

     total energy              =    -504.01727083 Ry
     estimated scf accuracy    <       0.00000828 Ry

     iteration #  2     ecut=    40.00 Ry     beta= 0.50
     Davidson diagonalization with overlap
     ethr =  3.23E-09,  avg # of iterations =  4.0

     total cpu time spent up to now is       16.8 secs

     total energy              =    -504.01728679 Ry
     estimated scf accuracy    <       0.00000337 Ry

     iteration #  3     ecut=    40.00 Ry     beta= 0.50
     Davidson diagonalization with overlap
     ethr =  1.31E-09,  avg # of iterations =  1.0

     total cpu time spent up to now is       16.9 secs

     total energy              =    -504.01728657 Ry
     estimated scf accuracy    <       0.00000138 Ry

     iteration #  4     ecut=    40.00 Ry     beta= 0.50
     Davidson diagonalization with overlap
     ethr =  5.40E-10,  avg # of iterations =  1.0

     total cpu time spent up to now is       17.0 secs

     total energy              =    -504.01728646 Ry
     estimated scf accuracy    <       0.00000038 Ry

     iteration #  5     ecut=    40.00 Ry     beta= 0.50
     Davidson diagonalization with overlap
     ethr =  1.49E-10,  avg # of iterations =  2.0

     total cpu time spent up to now is       17.2 secs

     total energy              =    -504.01728650 Ry
     estimated scf accuracy    <       0.00000004 Ry

     iteration #  6     ecut=    40.00 Ry     beta= 0.50
     Davidson diagonalization with overlap
     ethr =  1.45E-11,  avg # of iterations =  3.0

     total cpu time spent up to now is       17.3 secs

     total energy              =    -504.01728651 Ry
     estimated scf accuracy    <       0.00000001 Ry

     iteration #  7     ecut=    40.00 Ry     beta= 0.50
     Davidson diagonalization with overlap
     ethr =  5.06E-12,  avg # of iterations =  1.0

     total cpu time spent up to now is       17.4 secs

     End of self-consistent calculation

          k = 0.0000 0.0000 0.0000 ( 18537 PWs)   bands (ev):

    -5.8105  -4.7586  -4.7586  -4.7586  -4.7586  -4.7586  -4.7586  -3.8277
    -3.8277  -3.8277  -3.8277  -3.8277  -3.8277  -3.8277  -3.8277  -3.8277
    -3.8277  -3.8277  -3.8277  -3.5595  -3.5595  -3.5595  -3.5595  -1.7829
    -1.7829  -1.7829  -1.7829  -1.7829  -1.7829  -1.6327  -1.6327  -1.6327
    -1.6327  -1.6327  -1.6327  -1.6327  -1.6327  -1.6327  -1.6327  -1.6327
    -1.6327  -0.8922  -0.8922  -0.8922  -0.8922   0.5074   0.5074   0.5074
     0.5074   0.5074   0.5074   0.5074   0.5074   0.5074   0.5074   0.5074
     0.5074   2.2105   2.2105   2.2105   2.2105   2.2105   2.2105   2.2105
     2.2105   2.2105   2.2105   2.2105   2.2105   2.2981   2.2981   2.2981
     2.2981   2.2981   2.2981   2.2981   2.2981   2.2981   2.2981   2.2981
     2.2981   2.4060   2.4060   2.4060   2.4060   2.4060   2.4060   3.1654
     3.1654   3.1654   3.1654   3.1654   3.1654   4.1020   4.1020   4.1020
     4.1020   4.1020   4.1020   4.1020   4.1020   4.1020   4.1020   4.1020
     4.1020   4.6426   4.6426   4.6426   4.6426   4.6426   4.6426   4.6426
     4.6426   4.6426   4.6426   4.6426   4.6426   4.7649   4.7649   4.7649
     4.7649   4.7649   4.7649   4.7649   4.7649   5.9333   5.9333   5.9333

     highest occupied level (ev):     5.9333

!    total energy              =    -504.01728650 Ry
     estimated scf accuracy    <          8.6E-09 Ry

     The total energy is the sum of the following terms:
     one-electron contribution =     143.94861385 Ry
     hartree contribution      =      37.03279194 Ry
     xc contribution           =    -153.37685082 Ry
     ewald contribution        =    -531.62184147 Ry

     convergence has been achieved in   7 iterations

     Forces acting on atoms (cartesian axes, Ry/au):

     atom    1 type  1   force =     0.00000000    0.00000000    0.00000000
     atom    2 type  1   force =     0.00000014   -0.00000138   -0.00000138
     atom    3 type  1   force =    -0.00000138    0.00000014   -0.00000138
     atom    4 type  1   force =    -0.00000138   -0.00000138    0.00000014
     atom    5 type  1   force =    -0.00000097   -0.00000097   -0.00000097
     atom    6 type  1   force =     0.00000000    0.00000000    0.00000000
     atom    7 type  1   force =     0.00000011   -0.00000144   -0.00000144
     atom    8 type  1   force =     0.00000078   -0.00000107   -0.00000107
     atom    9 type  1   force =     0.00000138   -0.00000014   -0.00000138
     atom   10 type  1   force =     0.00000138   -0.00000138   -0.00000014
     atom   11 type  1   force =     0.00000000    0.00000000    0.00000000
     atom   12 type  1   force =    -0.00000144    0.00000011   -0.00000144
     atom   13 type  1   force =    -0.00000107    0.00000078   -0.00000107
     atom   14 type  1   force =    -0.00000103   -0.00000103   -0.00000120
     atom   15 type  1   force =     0.00000000    0.00000000    0.00000000
     atom   16 type  1   force =     0.00000103    0.00000103   -0.00000120
     atom   17 type  1   force =     0.00000107   -0.00000078   -0.00000107
     atom   18 type  1   force =     0.00000144   -0.00000011   -0.00000144
     atom   19 type  1   force =    -0.00000014    0.00000138   -0.00000138
     atom   20 type  1   force =    -0.00000138    0.00000138   -0.00000014
     atom   21 type  1   force =    -0.00000078    0.00000107   -0.00000107
     atom   22 type  1   force =    -0.00000011    0.00000144   -0.00000144
     atom   23 type  1   force =     0.00000138    0.00000138    0.00000014
     atom   24 type  1   force =     0.00000097    0.00000097   -0.00000097
     atom   25 type  1   force =     0.00000000    0.00000000    0.00000000
     atom   26 type  1   force =    -0.00000144   -0.00000144    0.00000011
     atom   27 type  1   force =    -0.00000107   -0.00000107    0.00000078
     atom   28 type  1   force =    -0.00000103   -0.00000120   -0.00000103
     atom   29 type  1   force =     0.00000000    0.00000000    0.00000000
     atom   30 type  1   force =     0.00000103   -0.00000120    0.00000103
     atom   31 type  1   force =     0.00000107   -0.00000107   -0.00000078
     atom   32 type  1   force =     0.00000144   -0.00000144   -0.00000011
     atom   33 type  1   force =    -0.00000120   -0.00000103   -0.00000103
     atom   34 type  1   force =     0.00000000    0.00000000    0.00000000
     atom   35 type  1   force =    -0.00000120    0.00000103    0.00000103
     atom   36 type  1   force =     0.00000095   -0.00000095   -0.00000095
     atom   37 type  1   force =    -0.00000095    0.00000095   -0.00000095
     atom   38 type  1   force =    -0.00000095   -0.00000095    0.00000095
     atom   39 type  1   force =     0.00000000    0.00000000    0.00000000
     atom   40 type  1   force =     0.00000095    0.00000095    0.00000095
     atom   41 type  1   force =     0.00000120    0.00000103   -0.00000103
     atom   42 type  1   force =     0.00000120   -0.00000103    0.00000103
     atom   43 type  1   force =    -0.00000107    0.00000107   -0.00000078
     atom   44 type  1   force =    -0.00000144    0.00000144   -0.00000011
     atom   45 type  1   force =     0.00000103    0.00000120   -0.00000103
     atom   46 type  1   force =    -0.00000103    0.00000120    0.00000103
     atom   47 type  1   force =     0.00000144    0.00000144    0.00000011
     atom   48 type  1   force =     0.00000107    0.00000107    0.00000078
     atom   49 type  1   force =    -0.00000014   -0.00000138    0.00000138
     atom   50 type  1   force =    -0.00000138   -0.00000014    0.00000138
     atom   51 type  1   force =    -0.00000078   -0.00000107    0.00000107
     atom   52 type  1   force =    -0.00000011   -0.00000144    0.00000144
     atom   53 type  1   force =     0.00000138    0.00000014    0.00000138
     atom   54 type  1   force =     0.00000097   -0.00000097    0.00000097
     atom   55 type  1   force =    -0.00000107   -0.00000078    0.00000107
     atom   56 type  1   force =    -0.00000144   -0.00000011    0.00000144
     atom   57 type  1   force =     0.00000103   -0.00000103    0.00000120
     atom   58 type  1   force =    -0.00000103    0.00000103    0.00000120
     atom   59 type  1   force =     0.00000144    0.00000011    0.00000144
     atom   60 type  1   force =     0.00000107    0.00000078    0.00000107
     atom   61 type  1   force =     0.00000014    0.00000138    0.00000138
     atom   62 type  1   force =    -0.00000097    0.00000097    0.00000097
     atom   63 type  1   force =     0.00000011    0.00000144    0.00000144
     atom   64 type  1   force =     0.00000078    0.00000107    0.00000107

     Total force =     0.000014     Total SCF correction =     0.000163
     SCF correction compared to forces is large: reduce conv_thr to get better values


     Computing stress (Cartesian axis) and pressure

          total   stress  (Ry/bohr**3)                   (kbar)     P=        0.02
   0.00000013   0.00000000   0.00000000            0.02        0.00        0.00
   0.00000000   0.00000013   0.00000000            0.00        0.02        0.00
   0.00000000   0.00000000   0.00000013            0.00        0.00        0.02

     Energy error            =      2.1E-05 Ry
     Gradient error          =      1.4E-06 Ry/Bohr
     Cell gradient error     =      1.8E-02 kbar

     bfgs converged in   4 scf cycles and   3 bfgs steps
     (criteria: energy <  1.0E-04 Ry, force <  1.0E-03 Ry/Bohr, cell <  5.0E-01 kbar)

     End of BFGS Geometry Optimization

     Final enthalpy           =    -504.0172865002 Ry

     File ./pwscf.bfgs deleted, as requested
Begin final coordinates
     new unit-cell volume =   8936.62412 a.u.^3 (  1324.27107 Ang^3 )
     density =      2.25390 g/cm^3

CELL_PARAMETERS (angstrom)
  10.981431669   0.000000000   0.000000000
   0.000000000  10.981431669   0.000000000
   0.000000000   0.000000000  10.981431669

ATOMIC_POSITIONS (angstrom)
Si            0.0000000000        0.0000000000        0.0000000000
Si           -0.0000000950        2.7453644406        2.7453644406
Si            2.7453644406       -0.0000000950        2.7453644406
Si            2.7453644406        2.7453644406       -0.0000000950
Si            1.3726836407        1.3726836407        1.3726836407
Si            5.4907158345        0.0000000000        0.0000000000
Si            5.4907157223        2.7453645582        2.7453645582
Si            6.8633905305        1.3726838734        1.3726838734
Si            8.2360672284        0.0000000950        2.7453644406
Si            8.2360672284        2.7453644406        0.0000000950
Si            0.0000000000        5.4907158345        0.0000000000
Si            2.7453645582        5.4907157223        2.7453645582
Si            1.3726838734        6.8633905305        1.3726838734
Si            4.1180414130        4.1180414130        1.3726840226
Si            5.4907158345        5.4907158345        0.0000000000
Si            6.8633902561        6.8633902561        1.3726840226
Si            9.6087477956        4.1180411385        1.3726838734
Si            8.2360671108        5.4907159467        2.7453645582
Si            0.0000000950        8.2360672284        2.7453644406
Si            2.7453644406        8.2360672284        0.0000000950
Si            4.1180411385        9.6087477956        1.3726838734
Si            5.4907159467        8.2360671108        2.7453645582
Si            8.2360672284        8.2360672284       -0.0000000950
Si            9.6087480283        9.6087480283        1.3726836407
Si            0.0000000000        0.0000000000        5.4907158345
Si            2.7453645582        2.7453645582        5.4907157223
Si            1.3726838734        1.3726838734        6.8633905305
Si            4.1180414130        1.3726840226        4.1180414130
Si            5.4907158345        0.0000000000        5.4907158345
Si            6.8633902561        1.3726840226        6.8633902561
Si            9.6087477956        1.3726838734        4.1180411385
Si            8.2360671108        2.7453645582        5.4907159467
Si            1.3726840226        4.1180414130        4.1180414130
Si            0.0000000000        5.4907158345        5.4907158345
Si            1.3726840226        6.8633902561        6.8633902561
Si            6.8633903081        4.1180413609        4.1180413609
Si            4.1180413609        6.8633903081        4.1180413609
Si            4.1180413609        4.1180413609        6.8633903081
Si            5.4907158345        5.4907158345        5.4907158345
Si            6.8633903081        6.8633903081        6.8633903081
Si            9.6087476465        6.8633902561        4.1180414130
Si            9.6087476465        4.1180414130        6.8633902561
Si            1.3726838734        9.6087477956        4.1180411385
Si            2.7453645582        8.2360671108        5.4907159467
Si            6.8633902561        9.6087476465        4.1180414130
Si            4.1180414130        9.6087476465        6.8633902561
Si            8.2360671108        8.2360671108        5.4907157223
Si            9.6087477956        9.6087477956        6.8633905305
Si            0.0000000950        2.7453644406        8.2360672284
Si            2.7453644406        0.0000000950        8.2360672284
Si            4.1180411385        1.3726838734        9.6087477956
Si            5.4907159467        2.7453645582        8.2360671108
Si            8.2360672284       -0.0000000950        8.2360672284
Si            9.6087480283        1.3726836407        9.6087480283
Si            1.3726838734        4.1180411385        9.6087477956
Si            2.7453645582        5.4907159467        8.2360671108
Si            6.8633902561        4.1180414130        9.6087476465
Si            4.1180414130        6.8633902561        9.6087476465
Si            8.2360671108        5.4907157223        8.2360671108
Si            9.6087477956        6.8633905305        9.6087477956
Si           -0.0000000950        8.2360672284        8.2360672284
Si            1.3726836407        9.6087480283        9.6087480283
Si            5.4907157223        8.2360671108        8.2360671108
Si            6.8633905305        9.6087477956        9.6087477956
End final coordinates



     Writing config-only to output data dir ./pwscf.save/

     Final scf calculation at the relaxed structure.
     The G-vectors are recalculated for the final unit cell
     Results may differ from those at the preceding step.
 
     Parallelization info
     --------------------
     sticks:   dense  smooth     PW     G-vecs:    dense   smooth      PW
     Min        2743    2743    718               152673   152673   20421
     Max        2746    2746    723               152674   152674   20422
     Sum        5489    5489   1441               305347   305347   40843
 
     Using Slab Decomposition
 


     bravais-lattice index     =            0
     lattice parameter (alat)  =      20.5251  a.u.
     unit-cell volume          =    8936.6241 (a.u.)^3
     number of atoms/cell      =           64
     number of atomic types    =            1
     number of electrons       =       256.00
     number of Kohn-Sham states=          128
     kinetic-energy cutoff     =      40.0000  Ry
     charge density cutoff     =     160.0000  Ry
     scf convergence threshold =      1.0E-08
     mixing beta               =       0.5000
     number of iterations used =            8  plain     mixing
     press convergence thresh. =      5.0E-01
     Exchange-correlation= PBE
                           (   1   4   3   4   0   0   0)

     GPU acceleration is ACTIVE.
     GPU-aware MPI enabled

     Message from routine print_cuda_info:
     High GPU oversubscription detected. Are you sure this is what you want?

     celldm(1)=  20.525071  celldm(2)=   0.000000  celldm(3)=   0.000000
     celldm(4)=   0.000000  celldm(5)=   0.000000  celldm(6)=   0.000000

     crystal axes: (cart. coord. in units of alat)
               a(1) = (   1.011051   0.000000   0.000000 )  
               a(2) = (   0.000000   1.011051   0.000000 )  
               a(3) = (   0.000000   0.000000   1.011051 )  

     reciprocal axes: (cart. coord. in units 2 pi/alat)
               b(1) = (  0.989070  0.000000  0.000000 )  
               b(2) = (  0.000000  0.989070  0.000000 )  
               b(3) = (  0.000000  0.000000  0.989070 )  


     PseudoPot. # 1 for Si read from file:
     /home/ppiaggi/pseudos/Si_ONCV_PBE_sr.upf
     MD5 check sum: 8553c464762ac42b85b1eed164b4d029
     Pseudo is Norm-conserving, Zval =  4.0
     Generated using ONCVPSP code by D. R. Hamann
     Using radial grid of 1510 points,  4 beta functions with: 
                l(1) =   0
                l(2) =   0
                l(3) =   1
                l(4) =   1

     atomic species   valence    mass     pseudopotential
        Si             4.00    28.08550     Si( 1.00)

     24 Sym. Ops. (no inversion) found



   Cartesian axes

     site n.     atom                  positions (alat units)
         1           Si  tau(   1) = (   0.0000000   0.0000000   0.0000000  )
         2           Si  tau(   2) = (  -0.0000000   0.2527634   0.2527634  )
         3           Si  tau(   3) = (   0.2527634  -0.0000000   0.2527634  )
         4           Si  tau(   4) = (   0.2527634   0.2527634  -0.0000000  )
         5           Si  tau(   5) = (   0.1263818   0.1263818   0.1263818  )
         6           Si  tau(   6) = (   0.5055256   0.0000000   0.0000000  )
         7           Si  tau(   7) = (   0.5055256   0.2527634   0.2527634  )
         8           Si  tau(   8) = (   0.6319066   0.1263819   0.1263819  )
         9           Si  tau(   9) = (   0.7582878   0.0000000   0.2527634  )
        10           Si  tau(  10) = (   0.7582878   0.2527634   0.0000000  )
        11           Si  tau(  11) = (   0.0000000   0.5055256   0.0000000  )
        12           Si  tau(  12) = (   0.2527634   0.5055256   0.2527634  )
        13           Si  tau(  13) = (   0.1263819   0.6319066   0.1263819  )
        14           Si  tau(  14) = (   0.3791446   0.3791446   0.1263819  )
        15           Si  tau(  15) = (   0.5055256   0.5055256   0.0000000  )
        16           Si  tau(  16) = (   0.6319066   0.6319066   0.1263819  )
        17           Si  tau(  17) = (   0.8846694   0.3791446   0.1263819  )
        18           Si  tau(  18) = (   0.7582878   0.5055256   0.2527634  )
        19           Si  tau(  19) = (   0.0000000   0.7582878   0.2527634  )
        20           Si  tau(  20) = (   0.2527634   0.7582878   0.0000000  )
        21           Si  tau(  21) = (   0.3791446   0.8846694   0.1263819  )
        22           Si  tau(  22) = (   0.5055256   0.7582878   0.2527634  )
        23           Si  tau(  23) = (   0.7582878   0.7582878  -0.0000000  )
        24           Si  tau(  24) = (   0.8846694   0.8846694   0.1263818  )
        25           Si  tau(  25) = (   0.0000000   0.0000000   0.5055256  )
        26           Si  tau(  26) = (   0.2527634   0.2527634   0.5055256  )
        27           Si  tau(  27) = (   0.1263819   0.1263819   0.6319066  )
        28           Si  tau(  28) = (   0.3791446   0.1263819   0.3791446  )
        29           Si  tau(  29) = (   0.5055256   0.0000000   0.5055256  )
        30           Si  tau(  30) = (   0.6319066   0.1263819   0.6319066  )
        31           Si  tau(  31) = (   0.8846694   0.1263819   0.3791446  )
        32           Si  tau(  32) = (   0.7582878   0.2527634   0.5055256  )
        33           Si  tau(  33) = (   0.1263819   0.3791446   0.3791446  )
        34           Si  tau(  34) = (   0.0000000   0.5055256   0.5055256  )
        35           Si  tau(  35) = (   0.1263819   0.6319066   0.6319066  )
        36           Si  tau(  36) = (   0.6319066   0.3791446   0.3791446  )
        37           Si  tau(  37) = (   0.3791446   0.6319066   0.3791446  )
        38           Si  tau(  38) = (   0.3791446   0.3791446   0.6319066  )
        39           Si  tau(  39) = (   0.5055256   0.5055256   0.5055256  )
        40           Si  tau(  40) = (   0.6319066   0.6319066   0.6319066  )
        41           Si  tau(  41) = (   0.8846693   0.6319066   0.3791446  )
        42           Si  tau(  42) = (   0.8846693   0.3791446   0.6319066  )
        43           Si  tau(  43) = (   0.1263819   0.8846694   0.3791446  )
        44           Si  tau(  44) = (   0.2527634   0.7582878   0.5055256  )
        45           Si  tau(  45) = (   0.6319066   0.8846693   0.3791446  )
        46           Si  tau(  46) = (   0.3791446   0.8846693   0.6319066  )
        47           Si  tau(  47) = (   0.7582878   0.7582878   0.5055256  )
        48           Si  tau(  48) = (   0.8846694   0.8846694   0.6319066  )
        49           Si  tau(  49) = (   0.0000000   0.2527634   0.7582878  )
        50           Si  tau(  50) = (   0.2527634   0.0000000   0.7582878  )
        51           Si  tau(  51) = (   0.3791446   0.1263819   0.8846694  )
        52           Si  tau(  52) = (   0.5055256   0.2527634   0.7582878  )
        53           Si  tau(  53) = (   0.7582878  -0.0000000   0.7582878  )
        54           Si  tau(  54) = (   0.8846694   0.1263818   0.8846694  )
        55           Si  tau(  55) = (   0.1263819   0.3791446   0.8846694  )
        56           Si  tau(  56) = (   0.2527634   0.5055256   0.7582878  )
        57           Si  tau(  57) = (   0.6319066   0.3791446   0.8846693  )
        58           Si  tau(  58) = (   0.3791446   0.6319066   0.8846693  )
        59           Si  tau(  59) = (   0.7582878   0.5055256   0.7582878  )
        60           Si  tau(  60) = (   0.8846694   0.6319066   0.8846694  )
        61           Si  tau(  61) = (  -0.0000000   0.7582878   0.7582878  )
        62           Si  tau(  62) = (   0.1263818   0.8846694   0.8846694  )
        63           Si  tau(  63) = (   0.5055256   0.7582878   0.7582878  )
        64           Si  tau(  64) = (   0.6319066   0.8846694   0.8846694  )

     number of k points=     1
                       cart. coord. in units 2pi/alat
        k(    1) = (   0.0000000   0.0000000   0.0000000), wk =   2.0000000

     Dense  grid:   152674 G-vectors     FFT dimensions: (  90,  90,  90)

     Estimated max dynamical RAM per process >     227.68 MB

     Estimated total dynamical RAM >     873.45 MB

     Initial potential from superposition of free atoms

     starting charge     255.9608, renormalised to     256.0000
     Starting wfcs are  256 randomized atomic wfcs

     total cpu time spent up to now is       18.9 secs

     Self-consistent Calculation

     iteration #  1     ecut=    40.00 Ry     beta= 0.50
     Davidson diagonalization with overlap
     ethr =  1.00E-06,  avg # of iterations = 10.0

     total cpu time spent up to now is       19.2 secs

     total energy              =    -504.01344804 Ry
     estimated scf accuracy    <       1.95145725 Ry

     iteration #  2     ecut=    40.00 Ry     beta= 0.50
     Davidson diagonalization with overlap
     ethr =  7.62E-04,  avg # of iterations =  1.0

     total cpu time spent up to now is       19.3 secs

     total energy              =    -503.99454504 Ry
     estimated scf accuracy    <       0.35041904 Ry

     iteration #  3     ecut=    40.00 Ry     beta= 0.50
     Davidson diagonalization with overlap
     ethr =  1.37E-04,  avg # of iterations =  1.0

     total cpu time spent up to now is       19.5 secs

     total energy              =    -504.01583840 Ry
     estimated scf accuracy    <       0.00497729 Ry

     iteration #  4     ecut=    40.00 Ry     beta= 0.50
     Davidson diagonalization with overlap
     ethr =  1.94E-06,  avg # of iterations =  4.0

     total cpu time spent up to now is       19.6 secs

     total energy              =    -504.01848394 Ry
     estimated scf accuracy    <       0.00006125 Ry

     iteration #  5     ecut=    40.00 Ry     beta= 0.50
     Davidson diagonalization with overlap
     ethr =  2.39E-08,  avg # of iterations =  7.0

     total cpu time spent up to now is       19.8 secs

     total energy              =    -504.01859518 Ry
     estimated scf accuracy    <       0.00001254 Ry

     iteration #  6     ecut=    40.00 Ry     beta= 0.50
     Davidson diagonalization with overlap
     ethr =  4.90E-09,  avg # of iterations =  2.0

     total cpu time spent up to now is       20.0 secs

     total energy              =    -504.01859889 Ry
     estimated scf accuracy    <       0.00000258 Ry

     iteration #  7     ecut=    40.00 Ry     beta= 0.50
     Davidson diagonalization with overlap
     ethr =  1.01E-09,  avg # of iterations =  6.0

     total cpu time spent up to now is       20.1 secs

     total energy              =    -504.01859868 Ry
     estimated scf accuracy    <       0.00000348 Ry

     iteration #  8     ecut=    40.00 Ry     beta= 0.50
     Davidson diagonalization with overlap
     ethr =  1.01E-09,  avg # of iterations =  2.0

     total cpu time spent up to now is       20.3 secs

     total energy              =    -504.01859860 Ry
     estimated scf accuracy    <       0.00000051 Ry

     iteration #  9     ecut=    40.00 Ry     beta= 0.50
     Davidson diagonalization with overlap
     ethr =  2.01E-10,  avg # of iterations =  5.0

     total cpu time spent up to now is       20.4 secs

     total energy              =    -504.01859867 Ry
     estimated scf accuracy    <       0.00000004 Ry

     iteration # 10     ecut=    40.00 Ry     beta= 0.50
     Davidson diagonalization with overlap
     ethr =  1.53E-11,  avg # of iterations =  6.0

     total cpu time spent up to now is       20.6 secs

     End of self-consistent calculation

          k = 0.0000 0.0000 0.0000 ( 19081 PWs)   bands (ev):

    -5.8105  -4.7586  -4.7586  -4.7586  -4.7586  -4.7586  -4.7586  -3.8277
    -3.8277  -3.8277  -3.8277  -3.8277  -3.8277  -3.8277  -3.8277  -3.8277
    -3.8277  -3.8277  -3.8277  -3.5595  -3.5595  -3.5595  -3.5594  -1.7830
    -1.7830  -1.7830  -1.7830  -1.7830  -1.7830  -1.6327  -1.6327  -1.6327
    -1.6327  -1.6327  -1.6327  -1.6327  -1.6327  -1.6327  -1.6327  -1.6327
    -1.6327  -0.8922  -0.8922  -0.8922  -0.8922   0.5073   0.5073   0.5073
     0.5073   0.5073   0.5073   0.5074   0.5074   0.5074   0.5074   0.5074
     0.5074   2.2104   2.2104   2.2104   2.2104   2.2104   2.2104   2.2104
     2.2104   2.2104   2.2104   2.2104   2.2104   2.2981   2.2981   2.2981
     2.2981   2.2981   2.2981   2.2981   2.2981   2.2981   2.2981   2.2981
     2.2981   2.4059   2.4059   2.4059   2.4059   2.4059   2.4059   3.1654
     3.1654   3.1654   3.1654   3.1654   3.1654   4.1019   4.1020   4.1020
     4.1020   4.1020   4.1020   4.1020   4.1020   4.1020   4.1020   4.1020
     4.1020   4.6425   4.6425   4.6425   4.6425   4.6425   4.6425   4.6425
     4.6425   4.6425   4.6425   4.6425   4.6425   4.7647   4.7647   4.7647
     4.7647   4.7647   4.7647   4.7647   4.7647   5.9325   5.9325   5.9325

     highest occupied level (ev):     5.9325

!    total energy              =    -504.01859868 Ry
     estimated scf accuracy    <          3.4E-09 Ry

     The total energy is the sum of the following terms:
     one-electron contribution =     143.94663743 Ry
     hartree contribution      =      37.03400556 Ry
     xc contribution           =    -153.37740020 Ry
     ewald contribution        =    -531.62184147 Ry

     convergence has been achieved in  10 iterations

     Forces acting on atoms (cartesian axes, Ry/au):

     atom    1 type  1   force =     0.00000000    0.00000000    0.00000000
     atom    2 type  1   force =     0.00000010   -0.00000124   -0.00000124
     atom    3 type  1   force =    -0.00000124    0.00000010   -0.00000124
     atom    4 type  1   force =    -0.00000124   -0.00000124    0.00000010
     atom    5 type  1   force =    -0.00000087   -0.00000087   -0.00000087
     atom    6 type  1   force =     0.00000000    0.00000000    0.00000000
     atom    7 type  1   force =     0.00000002   -0.00000157   -0.00000157
     atom    8 type  1   force =     0.00000067   -0.00000123   -0.00000123
     atom    9 type  1   force =     0.00000124   -0.00000010   -0.00000124
     atom   10 type  1   force =     0.00000124   -0.00000124   -0.00000010
     atom   11 type  1   force =     0.00000000    0.00000000    0.00000000
     atom   12 type  1   force =    -0.00000157    0.00000002   -0.00000157
     atom   13 type  1   force =    -0.00000123    0.00000067   -0.00000123
     atom   14 type  1   force =    -0.00000102   -0.00000102   -0.00000127
     atom   15 type  1   force =     0.00000000    0.00000000    0.00000000
     atom   16 type  1   force =     0.00000102    0.00000102   -0.00000127
     atom   17 type  1   force =     0.00000123   -0.00000067   -0.00000123
     atom   18 type  1   force =     0.00000157   -0.00000002   -0.00000157
     atom   19 type  1   force =    -0.00000010    0.00000124   -0.00000124
     atom   20 type  1   force =    -0.00000124    0.00000124   -0.00000010
     atom   21 type  1   force =    -0.00000067    0.00000123   -0.00000123
     atom   22 type  1   force =    -0.00000002    0.00000157   -0.00000157
     atom   23 type  1   force =     0.00000124    0.00000124    0.00000010
     atom   24 type  1   force =     0.00000087    0.00000087   -0.00000087
     atom   25 type  1   force =     0.00000000    0.00000000    0.00000000
     atom   26 type  1   force =    -0.00000157   -0.00000157    0.00000002
     atom   27 type  1   force =    -0.00000123   -0.00000123    0.00000067
     atom   28 type  1   force =    -0.00000102   -0.00000127   -0.00000102
     atom   29 type  1   force =     0.00000000    0.00000000    0.00000000
     atom   30 type  1   force =     0.00000102   -0.00000127    0.00000102
     atom   31 type  1   force =     0.00000123   -0.00000123   -0.00000067
     atom   32 type  1   force =     0.00000157   -0.00000157   -0.00000002
     atom   33 type  1   force =    -0.00000127   -0.00000102   -0.00000102
     atom   34 type  1   force =     0.00000000    0.00000000    0.00000000
     atom   35 type  1   force =    -0.00000127    0.00000102    0.00000102
     atom   36 type  1   force =     0.00000103   -0.00000103   -0.00000103
     atom   37 type  1   force =    -0.00000103    0.00000103   -0.00000103
     atom   38 type  1   force =    -0.00000103   -0.00000103    0.00000103
     atom   39 type  1   force =     0.00000000    0.00000000    0.00000000
     atom   40 type  1   force =     0.00000103    0.00000103    0.00000103
     atom   41 type  1   force =     0.00000127    0.00000102   -0.00000102
     atom   42 type  1   force =     0.00000127   -0.00000102    0.00000102
     atom   43 type  1   force =    -0.00000123    0.00000123   -0.00000067
     atom   44 type  1   force =    -0.00000157    0.00000157   -0.00000002
     atom   45 type  1   force =     0.00000102    0.00000127   -0.00000102
     atom   46 type  1   force =    -0.00000102    0.00000127    0.00000102
     atom   47 type  1   force =     0.00000157    0.00000157    0.00000002
     atom   48 type  1   force =     0.00000123    0.00000123    0.00000067
     atom   49 type  1   force =    -0.00000010   -0.00000124    0.00000124
     atom   50 type  1   force =    -0.00000124   -0.00000010    0.00000124
     atom   51 type  1   force =    -0.00000067   -0.00000123    0.00000123
     atom   52 type  1   force =    -0.00000002   -0.00000157    0.00000157
     atom   53 type  1   force =     0.00000124    0.00000010    0.00000124
     atom   54 type  1   force =     0.00000087   -0.00000087    0.00000087
     atom   55 type  1   force =    -0.00000123   -0.00000067    0.00000123
     atom   56 type  1   force =    -0.00000157   -0.00000002    0.00000157
     atom   57 type  1   force =     0.00000102   -0.00000102    0.00000127
     atom   58 type  1   force =    -0.00000102    0.00000102    0.00000127
     atom   59 type  1   force =     0.00000157    0.00000002    0.00000157
     atom   60 type  1   force =     0.00000123    0.00000067    0.00000123
     atom   61 type  1   force =     0.00000010    0.00000124    0.00000124
     atom   62 type  1   force =    -0.00000087    0.00000087    0.00000087
     atom   63 type  1   force =     0.00000002    0.00000157    0.00000157
     atom   64 type  1   force =     0.00000067    0.00000123    0.00000123

     Total force =     0.000014     Total SCF correction =     0.000051
     SCF correction compared to forces is large: reduce conv_thr to get better values


     Computing stress (Cartesian axis) and pressure

          total   stress  (Ry/bohr**3)                   (kbar)     P=        0.03
   0.00000022   0.00000000   0.00000000            0.03        0.00        0.00
   0.00000000   0.00000022   0.00000000            0.00        0.03        0.00
   0.00000000   0.00000000   0.00000022            0.00        0.00        0.03


     Writing all to output data dir ./pwscf.save/
 
     init_run     :      2.85s CPU      6.96s WALL (       2 calls)
     electrons    :      6.97s CPU      7.56s WALL (       5 calls)
     update_pot   :      4.50s CPU      4.53s WALL (       3 calls)
     forces       :      0.32s CPU      0.36s WALL (       5 calls)
     stress       :      1.06s CPU      1.14s WALL (       5 calls)

     Called by init_run:
     wfcinit      :      0.65s CPU      4.48s WALL (       2 calls)
                                        4.48s GPU  (       2 calls)
     potinit      :      1.36s CPU      1.48s WALL (       2 calls)
     hinit0       :      0.77s CPU      0.80s WALL (       2 calls)

     Called by electrons:
     c_bands      :      3.65s CPU      3.87s WALL (      50 calls)
     sum_band     :      1.60s CPU      1.77s WALL (      50 calls)
     v_of_rho     :      0.83s CPU      1.01s WALL (      53 calls)
     mix_rho      :      0.64s CPU      0.72s WALL (      50 calls)

     Called by c_bands:
     init_us_2    :      0.18s CPU      0.19s WALL (     102 calls)
     init_us_2:gp :      0.18s CPU      0.19s WALL (     102 calls)
     regterg      :      2.98s CPU      3.17s WALL (      50 calls)

     Called by *egterg:
     rdiaghg      :      0.70s CPU      1.52s WALL (     185 calls)
                                        1.49s GPU  (     185 calls)
     h_psi        :      2.42s CPU      5.58s WALL (     192 calls)
                                        5.57s GPU  (     192 calls)
     g_psi        :      0.00s CPU      0.01s WALL (     140 calls)
                                        0.01s GPU  (     140 calls)

     Called by h_psi:
     h_psi:calbec :      0.64s CPU      3.59s WALL (     192 calls)
                                        3.59s GPU  (     192 calls)
     vloc_psi     :      1.65s CPU      1.85s WALL (     192 calls)
                                        1.84s GPU  (     192 calls)
     add_vuspsi   :      0.07s CPU      0.11s WALL (     192 calls)
                                        0.11s GPU  (     192 calls)

     General routines
     calbec       :      0.67s CPU      3.63s WALL (     217 calls)
     fft          :      1.33s CPU      1.57s WALL (     459 calls)
                                        0.21s GPU  (     298 calls)
     ffts         :      0.36s CPU      0.39s WALL (      50 calls)
     fftw         :      1.76s CPU      2.21s WALL (    4438 calls)
                                        1.89s GPU  (    4438 calls)
 
     Parallel routines
 
     PWSCF        :     15.99s CPU     20.96s WALL

 
   This run was terminated on:  14:31:24   8May2023            

=------------------------------------------------------------------------------=
   JOB DONE.
=------------------------------------------------------------------------------=
Warning: ieee_divide_by_zero is signaling
Warning: ieee_inexact is signaling
FORTRAN STOP
Warning: ieee_inexact is signaling
FORTRAN STOP
Warning: ieee_inexact is signaling
FORTRAN STOP
Warning: ieee_inexact is signaling
FORTRAN STOP
