ITEM: TIMESTEP
0
ITEM: NUMBER OF ATOMS
64
ITEM: BOX BOUNDS pp pp pp
1.0697786119049013e-01 1.0754422138809469e+01
1.0697786119049013e-01 1.0754422138809469e+01
1.0697786119049013e-01 1.0754422138809469e+01
ITEM: ATOMS id type xs ys zs
40 1 0.0137327 0.0645813 0.240759
37 1 0.221885 0.16991 0.239719
15 1 0.28078 0.314744 0.0127121
6 1 0.533459 0.267413 0.298547
46 1 0.441678 0.0904527 0.220411
18 1 0.970335 0.289461 0.317281
11 1 0.760724 0.167358 0.03352
34 1 0.759824 0.182037 0.295663
30 1 0.184501 0.561541 0.203138
9 1 0.619915 0.341668 0.0983256
64 1 0.361058 0.427417 0.205424
10 1 0.85806 0.632896 0.256086
23 1 0.972669 0.429277 0.148193
20 1 0.750329 0.509448 0.0397552
27 1 0.118969 0.992321 0.0200296
61 1 0.304045 0.732026 0.313776
14 1 0.0183033 0.8174 0.271626
62 1 0.0156453 0.797435 0.0105829
21 1 0.629853 0.670057 0.244151
31 1 0.449038 0.806731 0.156226
44 1 0.647088 0.972547 0.139978
51 1 0.42323 0.032623 0.456021
13 1 0.400082 0.272022 0.503049
2 1 0.676693 0.10917 0.551665
59 1 0.99536 0.129683 0.557628
22 1 0.0851784 0.354397 0.643857
36 1 0.230092 0.333635 0.389411
29 1 0.124512 0.539649 0.475865
7 1 0.47902 0.572003 0.387575
25 1 0.433021 0.519516 0.664502
58 1 0.621814 0.391216 0.480766
50 1 0.901694 0.574229 0.459643
26 1 0.833231 0.351028 0.52845
16 1 0.681327 0.631526 0.526761
1 1 0.22866 0.937382 0.3708
57 1 0.139025 0.966194 0.56178
55 1 0.53311 0.851621 0.540118
53 1 0.377684 0.692746 0.554707
3 1 0.669259 0.864736 0.356236
12 1 0.839277 0.994147 0.425153
54 1 0.955161 0.80185 0.525178
56 1 0.78797 0.821672 0.663765
48 1 0.0185006 0.100874 0.826984
63 1 0.25739 0.0863322 0.763292
38 1 0.315728 0.310447 0.700232
4 1 0.371829 0.0995963 0.975407
35 1 0.560044 0.253282 0.73984
42 1 0.580493 0.0921643 0.881193
28 1 0.796825 0.0505184 0.764981
60 1 0.899417 0.306368 0.959422
43 1 0.250189 0.611781 0.999383
32 1 0.0992153 0.42747 0.879987
5 1 0.0359846 0.64214 0.844816
45 1 0.471931 0.369587 0.929434
17 1 0.449515 0.581 0.896328
49 1 0.765138 0.349395 0.759637
19 1 0.670898 0.563186 0.721022
41 1 0.292093 0.843361 0.987063
39 1 0.155458 0.733815 0.666724
8 1 0.340373 0.880856 0.771422
52 1 0.554922 0.882529 0.771327
24 1 0.58773 0.712145 0.967403
47 1 0.829662 0.909603 0.953206
33 1 0.801597 0.674699 0.869961
ITEM: TIMESTEP
5000
ITEM: NUMBER OF ATOMS
64
ITEM: BOX BOUNDS pp pp pp
1.0863255573622421e-01 1.0752767444263732e+01
1.0863255573622421e-01 1.0752767444263732e+01
1.0863255573622421e-01 1.0752767444263732e+01
ITEM: ATOMS id type xs ys zs
31 1 0.184288 0.181829 0.0783881
61 1 0.286026 0.0283981 0.180943
21 1 0.488628 0.133444 0.27012
26 1 0.955862 0.0359196 0.240673
20 1 0.713914 0.175484 0.198355
62 1 0.953142 0.138469 0.0453553
45 1 0.130799 0.395691 0.13719
30 1 0.130785 0.625935 0.127562
42 1 0.305013 0.655388 0.0160124
4 1 0.625645 0.41444 0.158104
7 1 0.41398 0.352716 0.137799
59 1 0.33464 0.446473 0.320999
24 1 0.542457 0.64185 0.0743322
60 1 0.87522 0.362231 0.0659868
10 1 0.852906 0.606014 0.104225
43 1 0.841254 0.45279 0.331041
39 1 0.219359 0.724401 0.317878
14 1 0.166364 0.933616 0.323353
15 1 0.429356 0.694256 0.271897
33 1 0.364336 0.879674 0.0332148
35 1 0.580829 0.953813 0.129046
50 1 0.866594 0.912021 0.030131
17 1 0.741682 0.801179 0.209249
12 1 0.0655512 0.200372 0.430535
29 1 0.0501533 0.327293 0.650783
19 1 0.320307 0.175459 0.452206
23 1 0.451614 0.0542646 0.583388
32 1 0.74072 0.12179 0.597528
28 1 0.848635 0.221812 0.390881
2 1 0.971167 0.0254929 0.576752
52 1 0.0676051 0.455289 0.390482
56 1 0.161941 0.63439 0.515369
53 1 0.627737 0.562821 0.356634
51 1 0.418443 0.371531 0.52819
54 1 0.609229 0.48669 0.590488
6 1 0.913375 0.60494 0.57859
55 1 0.812625 0.398221 0.612975
63 1 0.201662 0.967419 0.553061
3 1 0.564048 0.790351 0.444155
1 1 0.617037 0.992891 0.419293
58 1 0.471054 0.824874 0.642777
38 1 0.863013 0.900669 0.417929
37 1 0.968749 0.697619 0.334572
8 1 0.765629 0.746703 0.57298
57 1 0.188279 0.132293 0.727281
25 1 0.0291762 0.0528251 0.857039
41 1 0.356248 0.191095 0.888419
34 1 0.541417 0.207722 0.71827
44 1 0.653882 0.32264 0.910412
36 1 0.689862 0.104218 0.939325
13 1 0.820999 0.0126839 0.786783
64 1 0.0507919 0.361171 0.882379
16 1 0.267993 0.437378 0.670895
48 1 0.276797 0.405641 0.927795
5 1 0.0508385 0.595229 0.786696
9 1 0.53402 0.500195 0.803613
49 1 0.340183 0.634644 0.78388
22 1 0.838305 0.494754 0.822658
27 1 0.173086 0.87993 0.882146
18 1 0.222039 0.79815 0.676926
40 1 0.0074815 0.736467 0.95619
46 1 0.471813 0.974327 0.863606
11 1 0.723341 0.669946 0.915223
47 1 0.6823 0.840685 0.776939
ITEM: TIMESTEP
10000
ITEM: NUMBER OF ATOMS
64
ITEM: BOX BOUNDS pp pp pp
1.0797696409529234e-01 1.0753423035904614e+01
1.0797696409529234e-01 1.0753423035904614e+01
1.0797696409529234e-01 1.0753423035904614e+01
ITEM: ATOMS id type xs ys zs
34 1 0.102661 0.0135964 0.072197
31 1 0.179456 0.0235294 0.311793
11 1 0.331638 0.0870825 0.0218711
37 1 0.519851 0.223753 0.114079
12 1 0.524489 0.01741 0.32396
22 1 0.344176 0.172353 0.312354
48 1 0.71501 0.0796524 0.236152
41 1 0.728534 0.000893682 0.0341399
20 1 0.737878 0.316334 0.328094
42 1 0.319096 0.417067 0.218886
4 1 0.0912551 0.521678 0.136897
43 1 0.605164 0.477193 0.170868
49 1 0.399546 0.496775 0.0449847
44 1 0.935521 0.34977 0.131692
57 1 0.796594 0.473822 0.052519
60 1 0.166941 0.757901 0.209089
64 1 0.282101 0.709306 0.00468925
36 1 0.421233 0.799587 0.262052
53 1 0.615929 0.689027 0.24109
13 1 0.632408 0.78038 0.0225408
19 1 0.940892 0.860293 0.0479906
21 1 0.776223 0.839403 0.26842
24 1 0.950954 0.668373 0.262005
16 1 0.0151391 0.265851 0.33951
35 1 0.229209 0.275681 0.472459
29 1 0.198233 0.142628 0.656742
17 1 0.497813 0.295449 0.609982
2 1 0.361501 0.00712999 0.62552
40 1 0.547489 0.0829923 0.544418
26 1 0.947661 0.0432364 0.345369
5 1 0.827745 0.170421 0.52965
15 1 0.228445 0.577753 0.373758
7 1 0.0523706 0.455825 0.480003
61 1 0.517751 0.364142 0.39917
55 1 0.344366 0.641367 0.646468
23 1 0.487069 0.589633 0.420914
3 1 0.837958 0.524857 0.398879
59 1 0.734542 0.374601 0.597859
52 1 0.0790465 0.734244 0.498505
38 1 0.286155 0.860675 0.471179
6 1 0.947147 0.910066 0.536432
56 1 0.688435 0.679176 0.514147
47 1 0.702991 0.890967 0.500162
62 1 0.33176 0.219193 0.818008
33 1 0.0271224 0.234169 0.990474
9 1 0.55672 0.175092 0.87141
46 1 0.958701 0.102893 0.684927
27 1 0.926504 0.31427 0.790827
32 1 0.112008 0.406187 0.709041
8 1 0.0720442 0.605227 0.774578
45 1 0.228488 0.379766 0.946795
58 1 0.344172 0.436652 0.690156
18 1 0.51989 0.467256 0.86606
39 1 0.961059 0.627172 0.977564
54 1 0.723775 0.342752 0.867672
1 1 0.233888 0.779095 0.796744
14 1 0.132647 0.995783 0.854772
30 1 0.666548 0.989796 0.759008
51 1 0.491912 0.864683 0.772137
63 1 0.435551 0.875853 0.99199
28 1 0.56001 0.672345 0.714956
50 1 0.883952 0.727017 0.670981
25 1 0.887695 0.912344 0.822926
10 1 0.729166 0.669496 0.857377
ITEM: TIMESTEP
15000
ITEM: NUMBER OF ATOMS
64
ITEM: BOX BOUNDS pp pp pp
8.6765822927079128e-02 1.0774634177072768e+01
8.6765822927079128e-02 1.0774634177072768e+01
8.6765822927079128e-02 1.0774634177072768e+01
ITEM: ATOMS id type xs ys zs
38 1 0.174367 0.0435972 0.0879726
41 1 0.160012 0.0893573 0.312004
63 1 0.342018 0.213561 0.0098467
62 1 0.407438 0.068144 0.213015
57 1 0.910421 0.0615415 0.242825
47 1 0.725624 0.236853 0.135384
29 1 0.943758 0.147883 0.0426306
39 1 0.200804 0.391741 0.0596241
36 1 0.218084 0.525447 0.247183
31 1 0.541172 0.569534 0.311274
56 1 0.387668 0.657144 0.100688
2 1 0.997512 0.358707 0.0827856
20 1 0.713024 0.455683 0.036168
52 1 0.956907 0.405857 0.305971
7 1 0.722052 0.423807 0.285805
6 1 0.801153 0.649405 0.199865
4 1 0.0183582 0.738167 0.0770861
40 1 0.243339 0.802263 0.0576543
46 1 0.477768 0.850642 0.212945
34 1 0.695567 0.9599 0.169956
60 1 0.971132 0.833944 0.293138
23 1 0.158102 0.31514 0.390475
50 1 0.548362 0.229066 0.333488
30 1 0.488508 0.100575 0.588351
13 1 0.840264 0.190721 0.389585
51 1 0.999928 0.114918 0.587386
48 1 0.677762 0.236004 0.542343
18 1 0.0745055 0.385861 0.596148
49 1 0.29883 0.663327 0.60872
19 1 0.0655247 0.625721 0.606307
14 1 0.0218368 0.609947 0.363711
35 1 0.394406 0.370748 0.370796
17 1 0.387414 0.448535 0.583726
59 1 0.641988 0.46707 0.511505
26 1 0.794132 0.637243 0.470043
21 1 0.243165 0.728791 0.409478
1 1 0.262723 0.984284 0.648506
15 1 0.0986538 0.928504 0.498651
43 1 0.532901 0.765169 0.44921
5 1 0.374907 0.961546 0.424421
25 1 0.554735 0.715842 0.654189
22 1 0.73115 0.866577 0.394967
58 1 0.798834 0.953398 0.586863
28 1 0.158799 0.100136 0.818076
27 1 0.25191 0.324476 0.787329
12 1 0.00561427 0.294783 0.821721
3 1 0.554254 0.0778845 0.979641
11 1 0.489075 0.222932 0.767982
33 1 0.824407 0.173778 0.724826
44 1 0.773726 0.00660642 0.882345
45 1 0.301123 0.53024 0.907073
32 1 0.127883 0.582132 0.833949
42 1 0.56976 0.64519 0.980199
24 1 0.491053 0.514549 0.791199
9 1 0.668387 0.354505 0.829619
10 1 0.837079 0.465505 0.696747
37 1 0.926506 0.557424 0.948598
16 1 0.27725 0.809616 0.785129
8 1 0.00332681 0.924275 0.920509
54 1 0.50758 0.878317 0.890796
53 1 0.6122 0.925154 0.697157
64 1 0.746766 0.785177 0.993486
61 1 0.941975 0.813597 0.703879
55 1 0.766742 0.690474 0.764948
ITEM: TIMESTEP
20000
ITEM: NUMBER OF ATOMS
64
ITEM: BOX BOUNDS pp pp pp
1.3508779506420954e-01 1.0726312204935660e+01
1.3508779506420954e-01 1.0726312204935660e+01
1.3508779506420954e-01 1.0726312204935660e+01
ITEM: ATOMS id type xs ys zs
51 1 0.0377484 0.16836 0.300139
52 1 0.0473132 0.0197985 0.130961
43 1 0.423556 0.264645 0.00136565
9 1 0.440725 0.246723 0.248787
40 1 0.740574 0.072036 0.0533703
60 1 0.752398 0.322663 0.142093
34 1 0.811711 0.0620852 0.286489
11 1 0.130315 0.519476 0.287549
46 1 0.325237 0.503987 0.0992545
6 1 0.629833 0.551172 0.198091
50 1 0.959145 0.376548 0.144493
15 1 0.881833 0.64203 0.199679
22 1 0.23993 0.955721 0.300391
28 1 0.16438 0.694601 0.111711
53 1 0.0184578 0.80686 0.287202
21 1 0.298021 0.893249 0.0321401
49 1 0.352429 0.720535 0.283498
14 1 0.475298 0.968458 0.221709
64 1 0.644083 0.834822 0.103066
26 1 0.462644 0.691659 0.0466371
31 1 0.771454 0.851625 0.291503
63 1 0.24504 0.200598 0.361807
47 1 0.162671 0.305235 0.548904
38 1 0.040678 0.0180984 0.65958
29 1 0.426128 0.141034 0.548388
44 1 0.555986 0.00690745 0.434967
39 1 0.647602 0.204639 0.347305
3 1 0.949363 0.183305 0.542673
30 1 0.710675 0.294539 0.552217
24 1 0.747976 0.0113002 0.566936
7 1 0.426846 0.477981 0.339155
58 1 0.345741 0.432662 0.595575
25 1 0.597248 0.515371 0.505089
59 1 0.794439 0.542878 0.411994
61 1 0.998819 0.455421 0.473693
17 1 0.174177 0.678861 0.488982
62 1 0.261846 0.910209 0.506745
42 1 0.582967 0.753667 0.398679
41 1 0.433187 0.803593 0.580338
36 1 0.994457 0.843576 0.531594
48 1 0.80011 0.753549 0.559765
18 1 0.123135 0.29687 0.843422
20 1 0.222615 0.126306 0.973676
16 1 0.247374 0.105322 0.699937
2 1 0.507841 0.0319646 0.977367
4 1 0.614604 0.18685 0.722816
1 1 0.403882 0.324346 0.775719
32 1 0.737488 0.278541 0.877639
55 1 0.953461 0.192022 0.986444
23 1 0.265931 0.642881 0.717131
56 1 0.209929 0.500583 0.897448
27 1 0.601492 0.512652 0.752902
12 1 0.58977 0.440469 0.989167
10 1 0.998562 0.526125 0.977979
35 1 0.826583 0.575005 0.741904
5 1 0.916023 0.352534 0.729424
13 1 0.0389666 0.730516 0.7444
19 1 0.0259955 0.860194 0.94204
8 1 0.24544 0.883049 0.816567
45 1 0.518038 0.983803 0.746192
54 1 0.498056 0.688906 0.79437
57 1 0.870918 0.98336 0.838049
37 1 0.833024 0.713834 0.96981
33 1 0.680061 0.822308 0.778973
ITEM: TIMESTEP
25000
ITEM: NUMBER OF ATOMS
64
ITEM: BOX BOUNDS pp pp pp
1.0901353083082199e-01 1.0752386469169096e+01
1.0901353083082199e-01 1.0752386469169096e+01
1.0901353083082199e-01 1.0752386469169096e+01
ITEM: ATOMS id type xs ys zs
13 1 0.198496 0.238317 0.0393679
56 1 0.319613 0.0975944 0.226132
20 1 0.554907 0.106801 0.219002
17 1 0.630021 0.321143 0.15316
4 1 0.418009 0.246108 0.00763302
7 1 0.863027 0.212169 0.100724
28 1 0.0110327 0.373482 0.172374
46 1 0.318895 0.475516 0.0935891
22 1 0.13506 0.609134 0.103247
27 1 0.236524 0.382637 0.282608
23 1 0.0368575 0.620239 0.313695
47 1 0.545348 0.600298 0.0927409
59 1 0.49659 0.504051 0.327909
44 1 0.779702 0.500558 0.272707
42 1 0.156178 0.911027 0.155024
24 1 0.341777 0.758507 0.0746868
5 1 0.620582 0.820237 0.0136575
64 1 0.343082 0.837056 0.319786
62 1 0.541552 0.848781 0.256606
3 1 0.883101 0.813734 0.331822
48 1 0.995527 0.999699 0.276244
37 1 0.752099 0.977999 0.165846
8 1 0.859565 0.696093 0.123693
2 1 0.172588 0.0270329 0.480656
19 1 0.043521 0.215674 0.560262
25 1 0.32676 0.0128489 0.649039
43 1 0.592472 0.306339 0.405866
33 1 0.357531 0.216125 0.438939
9 1 0.505948 0.0178862 0.461226
52 1 0.892419 0.24286 0.367446
30 1 0.718179 0.151305 0.490391
1 1 0.204464 0.506945 0.477958
6 1 0.457962 0.425401 0.601648
40 1 0.648939 0.565789 0.607451
58 1 0.831388 0.451994 0.636105
18 1 0.955074 0.45668 0.456966
50 1 0.132163 0.806289 0.442388
63 1 0.664339 0.684984 0.404237
29 1 0.581839 0.865491 0.585522
16 1 0.390414 0.676921 0.498131
61 1 0.828674 0.889166 0.552203
51 1 0.161068 0.014309 0.927884
41 1 0.199383 0.328909 0.680235
55 1 0.515656 0.0471303 0.942084
26 1 0.401092 0.212286 0.715221
15 1 0.663393 0.0414337 0.747297
14 1 0.679114 0.273799 0.70855
12 1 0.916709 0.0884758 0.677575
36 1 0.837212 0.317711 0.87944
53 1 0.947607 0.110354 0.889957
11 1 0.143486 0.419986 0.872744
21 1 0.26951 0.623862 0.862033
31 1 0.437377 0.478587 0.845792
49 1 0.660389 0.497948 0.957018
34 1 0.926467 0.512202 0.973347
60 1 0.936475 0.598972 0.737085
38 1 0.022677 0.780176 0.951444
39 1 0.148055 0.671871 0.668363
32 1 0.0920381 0.914636 0.706108
54 1 0.633982 0.682836 0.802122
10 1 0.354512 0.900701 0.851993
45 1 0.452928 0.766981 0.728904
35 1 0.847601 0.923084 0.928368
57 1 0.84328 0.781757 0.725638
ITEM: TIMESTEP
30000
ITEM: NUMBER OF ATOMS
64
ITEM: BOX BOUNDS pp pp pp
1.1815708889245258e-01 1.0743242911107540e+01
1.1815708889245258e-01 1.0743242911107540e+01
1.1815708889245258e-01 1.0743242911107540e+01
ITEM: ATOMS id type xs ys zs
42 1 0.241259 0.257454 0.153292
45 1 0.284228 0.0172257 0.105318
51 1 0.0135405 0.153102 0.217742
3 1 0.396255 0.0520606 0.316437
50 1 0.57806 0.0710446 0.15114
58 1 0.748941 0.187858 0.247822
19 1 0.180207 0.58434 0.0215998
43 1 0.130598 0.456379 0.285165
25 1 0.589942 0.50058 0.321969
57 1 0.558414 0.391854 0.117739
64 1 0.802666 0.370909 0.0819095
44 1 0.939862 0.553325 0.168577
53 1 0.715181 0.63477 0.168748
20 1 0.0962668 0.928537 0.166659
12 1 0.365624 0.669864 0.110731
17 1 0.783399 0.946935 0.0395086
35 1 0.68426 0.868365 0.228566
24 1 0.935897 0.771602 0.0517894
32 1 0.153416 0.0730706 0.434318
28 1 0.306635 0.268126 0.549167
39 1 0.312492 0.0338607 0.646336
5 1 0.018056 0.288871 0.437232
7 1 0.60048 0.254792 0.396891
2 1 0.361445 0.275393 0.347631
14 1 0.63644 0.125574 0.567007
38 1 0.863314 0.127743 0.525185
61 1 0.0818032 0.354452 0.644602
55 1 0.135278 0.563537 0.659996
41 1 0.379244 0.547604 0.355366
49 1 0.353207 0.537597 0.568453
62 1 0.690079 0.432749 0.553008
48 1 0.897753 0.612638 0.611653
22 1 0.837617 0.391653 0.352809
34 1 0.945696 0.663936 0.388585
1 1 0.3177 0.764784 0.358562
31 1 0.0969362 0.835779 0.354915
6 1 0.308625 0.751901 0.591914
26 1 0.0814726 0.835443 0.594269
11 1 0.496626 0.935348 0.61054
40 1 0.517626 0.875637 0.399109
33 1 0.653192 0.690419 0.470997
16 1 0.852653 0.975558 0.34245
13 1 0.803031 0.839741 0.549717
18 1 0.0784791 0.302757 0.864984
37 1 0.0210224 0.0274894 0.701324
27 1 0.13023 0.0837655 0.898839
54 1 0.372473 0.156588 0.848948
60 1 0.554705 0.197642 0.987655
59 1 0.496906 0.268193 0.68149
47 1 0.71894 0.178604 0.814343
15 1 0.889572 0.161415 0.996374
30 1 0.297483 0.382683 0.960588
9 1 0.52125 0.520684 0.694064
36 1 0.472751 0.533167 0.956619
23 1 0.854492 0.358545 0.706473
63 1 0.690163 0.606549 0.936939
46 1 0.898232 0.481322 0.876113
56 1 0.254857 0.884883 0.837598
4 1 0.118945 0.706052 0.820851
52 1 0.615535 0.807956 0.918043
21 1 0.587754 0.768955 0.689149
8 1 0.405312 0.865176 0.985594
10 1 0.807933 0.952497 0.747639
29 1 0.899776 0.741584 0.828844
ITEM: TIMESTEP
35000
ITEM: NUMBER OF ATOMS
64
ITEM: BOX BOUNDS pp pp pp
7.1955832265130582e-02 1.0789444167734830e+01
7.1955832265130582e-02 1.0789444167734830e+01
7.1955832265130582e-02 1.0789444167734830e+01
ITEM: ATOMS id type xs ys zs
29 1 0.179443 0.0199001 0.0692932
57 1 0.257514 0.228072 0.163931
43 1 0.657438 0.0818504 0.0553163
16 1 0.704696 0.217139 0.235105
62 1 0.930604 0.125007 0.236146
27 1 0.137771 0.372306 0.0417164
59 1 0.0600263 0.649656 0.0641079
24 1 0.299368 0.562636 0.0777793
33 1 0.149492 0.64648 0.31514
7 1 0.444181 0.385111 0.155993
12 1 0.612373 0.631181 0.238364
53 1 0.578128 0.584224 0.00983945
11 1 0.400254 0.629579 0.296634
38 1 0.839711 0.58364 0.0437628
2 1 0.72015 0.419141 0.192105
5 1 0.980697 0.405436 0.187122
3 1 0.331196 0.853476 0.168021
4 1 0.553851 0.906063 0.132051
42 1 0.75557 0.796591 0.197349
58 1 0.99714 0.89403 0.128028
56 1 0.099958 0.2368 0.375942
49 1 0.257233 0.248889 0.532142
37 1 0.100427 0.0237147 0.552716
52 1 0.463382 0.290702 0.380734
19 1 0.58582 0.116981 0.430989
14 1 0.66037 0.204535 0.645116
31 1 0.39544 0.06288 0.512017
40 1 0.903874 0.0432823 0.458777
15 1 0.82774 0.26963 0.498756
22 1 0.224311 0.475922 0.557464
26 1 0.0428862 0.463558 0.411566
9 1 0.442679 0.467352 0.483324
28 1 0.652359 0.543799 0.648658
64 1 0.914395 0.583443 0.533923
54 1 0.754358 0.4751 0.439411
35 1 0.0419775 0.817089 0.3503
45 1 0.0328326 0.798125 0.629749
1 1 0.258286 0.898951 0.408618
25 1 0.380033 0.738991 0.515292
47 1 0.585521 0.869972 0.382429
46 1 0.598362 0.756596 0.606417
17 1 0.827711 0.808233 0.457717
10 1 0.716124 0.959627 0.650906
20 1 0.0329854 0.163425 0.966509
23 1 0.105082 0.0926681 0.773399
63 1 0.420473 0.145907 0.984302
30 1 0.50377 0.0289051 0.723736
32 1 0.577955 0.306811 0.973975
18 1 0.337622 0.191108 0.770831
51 1 0.858109 0.0297931 0.96541
48 1 0.970047 0.262002 0.66714
61 1 0.822216 0.254425 0.820257
41 1 0.187775 0.398984 0.798599
21 1 0.5295 0.372722 0.750763
55 1 0.380002 0.54505 0.835076
44 1 0.998225 0.509658 0.740074
8 1 0.796017 0.479234 0.837314
50 1 0.318706 0.776496 0.958536
36 1 0.239723 0.680671 0.671113
13 1 0.123283 0.890711 0.8967
34 1 0.454752 0.813426 0.787218
60 1 0.629545 0.782444 0.947425
6 1 0.815511 0.86863 0.824535
39 1 0.975247 0.720157 0.854212
ITEM: TIMESTEP
40000
ITEM: NUMBER OF ATOMS
64
ITEM: BOX BOUNDS pp pp pp
1.2002346978746026e-01 1.0741376530212587e+01
1.2002346978746026e-01 1.0741376530212587e+01
1.2002346978746026e-01 1.0741376530212587e+01
ITEM: ATOMS id type xs ys zs
33 1 0.118953 0.155784 0.205385
20 1 0.253542 0.184356 0.0181424
19 1 0.482688 0.167832 0.0227688
57 1 0.486444 0.30949 0.193164
61 1 0.803007 0.137194 0.278876
47 1 0.834557 0.089183 0.0434374
53 1 0.300041 0.467362 4.30634e-05
2 1 0.137839 0.547538 0.281665
32 1 0.581441 0.572819 0.0302604
8 1 0.376399 0.494007 0.2365
12 1 0.696334 0.342349 0.268832
45 1 0.98454 0.381188 0.228161
52 1 0.840809 0.553503 0.321075
18 1 0.752842 0.424858 0.0550457
60 1 0.931158 0.630877 0.0945884
17 1 0.145657 0.717696 0.138456
25 1 0.327785 0.939224 0.126507
7 1 0.0541408 0.991792 0.087541
4 1 0.433031 0.726661 0.188499
15 1 0.567308 0.888703 0.285532
3 1 0.554908 0.968456 0.050355
26 1 0.702066 0.773308 0.0623639
58 1 0.783535 0.759959 0.324218
62 1 0.980981 0.860969 0.259868
13 1 0.231221 0.313398 0.419815
35 1 0.271278 0.0442989 0.349246
11 1 0.166868 0.0915063 0.591513
50 1 0.433591 0.207203 0.361648
16 1 0.647598 0.0962482 0.452934
28 1 0.414541 0.0537737 0.634306
64 1 0.459562 0.260177 0.622277
55 1 0.98874 0.0942468 0.395923
48 1 0.808709 0.281366 0.608449
38 1 0.98207 0.299916 0.451214
6 1 0.00496171 0.56017 0.509173
40 1 0.328405 0.607776 0.615402
30 1 0.179947 0.382737 0.630717
24 1 0.431727 0.470838 0.460644
41 1 0.645967 0.39999 0.491695
54 1 0.754696 0.603773 0.579776
49 1 0.280541 0.722869 0.420242
59 1 0.120104 0.868064 0.490155
10 1 0.422352 0.890146 0.456903
42 1 0.695521 0.808279 0.522167
39 1 0.835539 0.994233 0.6015
14 1 0.956695 0.775951 0.621666
5 1 0.133328 0.269697 0.834546
23 1 0.267313 0.00892303 0.844676
1 1 0.672533 0.196788 0.782596
63 1 0.988925 0.0928893 0.752802
31 1 0.850519 0.292882 0.90993
46 1 0.143284 0.661744 0.78676
9 1 0.0468268 0.464702 0.982434
27 1 0.552039 0.346565 0.886254
44 1 0.395081 0.439706 0.780976
34 1 0.632326 0.605418 0.818363
37 1 0.953177 0.453136 0.734609
56 1 0.860913 0.655322 0.852603
36 1 0.296753 0.680959 0.967291
29 1 0.0550642 0.884431 0.838145
43 1 0.449875 0.869561 0.868919
21 1 0.517233 0.724442 0.674266
51 1 0.628785 0.988331 0.737408
22 1 0.797612 0.911354 0.876665
ITEM: TIMESTEP
45000
ITEM: NUMBER OF ATOMS
64
ITEM: BOX BOUNDS pp pp pp
9.6695577553110645e-02 1.0764704422446945e+01
9.6695577553110645e-02 1.0764704422446945e+01
9.6695577553110645e-02 1.0764704422446945e+01
ITEM: ATOMS id type xs ys zs
62 1 0.306923 0.0740849 0.305428
36 1 0.0348858 0.115698 0.0946737
18 1 0.106207 0.309375 0.202391
49 1 0.236049 0.0145657 0.00566207
13 1 0.33968 0.231574 0.10922
29 1 0.591158 0.305016 0.0441267
32 1 0.534521 0.0861481 0.230037
23 1 0.758708 0.168234 0.146539
5 1 0.869733 0.301711 0.265475
25 1 0.308156 0.426837 0.00745522
55 1 0.0350916 0.544738 0.18807
11 1 0.330976 0.430949 0.311698
45 1 0.505206 0.488868 0.163708
38 1 0.707966 0.465438 0.275209
53 1 0.251782 0.842592 0.218335
60 1 0.0678747 0.819959 0.0545366
34 1 0.454821 0.72552 0.144672
50 1 0.481644 0.94109 0.0616373
19 1 0.69705 0.900024 0.251866
20 1 0.676142 0.712126 0.0432521
33 1 0.934359 0.948245 0.195361
17 1 0.869465 0.697216 0.167884
35 1 0.108879 0.190141 0.400401
14 1 0.202423 0.161566 0.63632
1 1 0.575491 0.118671 0.47718
31 1 0.408222 0.270024 0.448624
21 1 0.381922 0.021014 0.602465
15 1 0.798766 0.23948 0.492214
51 1 0.195032 0.609742 0.351091
28 1 0.131006 0.589195 0.655016
63 1 0.167835 0.379052 0.663784
41 1 0.627877 0.40027 0.505379
27 1 0.438411 0.571449 0.461805
7 1 0.782058 0.645411 0.369346
37 1 0.993688 0.355187 0.505735
40 1 0.972023 0.586088 0.474233
47 1 0.695102 0.584595 0.610129
24 1 0.0900315 0.814438 0.543763
10 1 0.0169544 0.996261 0.409412
4 1 0.293895 0.846546 0.44479
42 1 0.545704 0.736662 0.361198
64 1 0.5808 0.871042 0.538028
56 1 0.337728 0.700064 0.605031
48 1 0.796682 0.986618 0.45551
12 1 0.851449 0.789241 0.604758
57 1 0.295485 0.186923 0.869184
22 1 0.00224959 0.136029 0.857612
8 1 0.509313 0.0273725 0.800819
44 1 0.584293 0.265419 0.824905
54 1 0.800062 0.0642446 0.913474
3 1 0.793786 0.23895 0.725105
46 1 0.0931553 0.367185 0.868509
43 1 0.104186 0.600098 0.991459
2 1 0.429359 0.370344 0.674467
26 1 0.42717 0.547574 0.833287
59 1 0.6344 0.522452 0.918932
61 1 0.794685 0.484267 0.777044
16 1 0.973353 0.623431 0.827567
52 1 0.318423 0.700279 0.977802
9 1 0.31048 0.881881 0.812737
6 1 0.116053 0.97172 0.719968
39 1 0.662918 0.888531 0.903252
58 1 0.56473 0.73762 0.753466
30 1 0.927749 0.831833 0.864857
ITEM: TIMESTEP
50000
ITEM: NUMBER OF ATOMS
64
ITEM: BOX BOUNDS pp pp pp
1.0594551280643039e-01 1.0755454487193569e+01
1.0594551280643039e-01 1.0755454487193569e+01
1.0594551280643039e-01 1.0755454487193569e+01
ITEM: ATOMS id type xs ys zs
39 1 0.180796 0.0164605 0.0801172
49 1 0.125512 0.218508 0.0292316
4 1 0.384512 0.016346 0.141201
44 1 0.480109 0.226297 0.14538
8 1 0.838325 0.0599479 0.0186183
33 1 0.728927 0.209757 0.16447
7 1 0.983607 0.127212 0.213855
31 1 0.742261 0.00952912 0.301132
20 1 0.0589333 0.417813 0.141614
19 1 0.107033 0.648014 0.0757475
51 1 0.206462 0.369901 0.307992
38 1 0.540547 0.542145 0.187724
30 1 0.357308 0.403827 0.138304
23 1 0.842978 0.368964 0.302737
43 1 0.693931 0.413054 0.0367341
52 1 0.183865 0.691753 0.279072
25 1 0.162562 0.921102 0.331646
1 1 0.565269 0.923857 0.246334
64 1 0.683436 0.749093 0.161102
17 1 0.89856 0.874702 0.199011
11 1 0.167405 0.169437 0.4018
24 1 0.162567 0.248316 0.618348
2 1 0.391767 0.134372 0.385463
54 1 0.403975 0.0716356 0.621976
12 1 0.62545 0.128708 0.492729
15 1 0.921263 0.107917 0.453926
21 1 0.101518 0.532548 0.450684
34 1 0.237688 0.542705 0.632739
32 1 0.36443 0.578103 0.391022
60 1 0.48272 0.599022 0.624814
3 1 0.440997 0.368265 0.428865
56 1 0.355467 0.345862 0.626541
18 1 0.748009 0.586691 0.347719
42 1 0.963465 0.367974 0.514858
59 1 0.667374 0.354986 0.463767
45 1 0.723945 0.584301 0.572463
36 1 0.299097 0.877289 0.498057
9 1 0.0839343 0.815309 0.5804
47 1 0.612119 0.87189 0.613492
61 1 0.484303 0.774872 0.411256
27 1 0.950169 0.728633 0.371769
35 1 0.833469 0.861504 0.519607
14 1 0.107604 0.0416945 0.715004
41 1 0.405823 0.196843 0.925553
50 1 0.580925 0.130171 0.757075
5 1 0.973107 0.208998 0.85107
63 1 0.680957 0.332633 0.820163
40 1 0.10043 0.418771 0.791791
10 1 0.284393 0.41787 0.919789
58 1 0.294969 0.644752 0.948875
48 1 0.480977 0.439763 0.800897
16 1 0.532645 0.629434 0.950279
37 1 0.833402 0.41976 0.682151
29 1 0.905734 0.665687 0.749065
57 1 0.923723 0.472533 0.954464
28 1 0.172019 0.701686 0.766692
6 1 0.289695 0.989933 0.844099
53 1 0.0414517 0.865744 0.9294
26 1 0.490115 0.884306 0.97414
62 1 0.403826 0.802041 0.714011
13 1 0.875577 0.708892 0.992618
55 1 0.690578 0.960812 0.87663
22 1 0.684696 0.73988 0.78519
46 1 0.893516 0.928091 0.744623
ITEM: TIMESTEP
55000
ITEM: NUMBER OF ATOMS
64
ITEM: BOX BOUNDS pp pp pp
1.1693325821917266e-01 1.0744466741780787e+01
1.1693325821917266e-01 1.0744466741780787e+01
1.1693325821917266e-01 1.0744466741780787e+01
ITEM: ATOMS id type xs ys zs
14 1 0.260524 0.113016 0.0768838
44 1 0.130832 0.210287 0.218197
3 1 0.427411 0.14527 0.219418
35 1 0.680433 0.194737 0.112312
5 1 0.921304 0.236929 0.114476
39 1 0.228032 0.65976 0.0740799
9 1 0.362843 0.370052 0.309339
60 1 0.456058 0.639829 0.0997942
38 1 0.503278 0.425344 0.149846
52 1 0.962821 0.439384 0.174072
1 1 0.746518 0.432764 0.238908
51 1 0.715688 0.616748 0.299506
19 1 0.162108 0.902167 0.0340171
23 1 0.0337522 0.987144 0.271641
56 1 0.149966 0.667934 0.31328
31 1 0.625157 0.963965 0.171507
45 1 0.429898 0.874186 0.0667559
42 1 0.903258 0.749006 0.323521
43 1 0.70344 0.738428 0.0656894
20 1 0.965571 0.769954 0.105514
64 1 0.863083 0.974346 0.0760328
53 1 0.04566 0.184058 0.469837
48 1 0.244603 0.165066 0.580482
33 1 0.578708 0.144643 0.378895
29 1 0.39674 0.328579 0.524712
26 1 0.543644 0.0883161 0.59475
27 1 0.897087 0.031882 0.529864
40 1 0.14161 0.456344 0.344629
49 1 0.180437 0.459827 0.568229
32 1 0.385438 0.610097 0.393669
54 1 0.603403 0.429192 0.654553
2 1 0.686473 0.344617 0.430083
30 1 0.911565 0.34705 0.499474
46 1 0.667464 0.621063 0.529789
22 1 0.930081 0.61891 0.511534
4 1 0.154461 0.88167 0.440712
59 1 0.277493 0.701016 0.570717
50 1 0.51925 0.791833 0.333956
11 1 0.349435 0.992898 0.427924
36 1 0.6069 0.855012 0.530439
61 1 0.994305 0.820827 0.632755
21 1 0.774096 0.945096 0.358522
6 1 0.220082 0.222961 0.851152
58 1 0.316344 0.0185789 0.723131
17 1 0.577329 0.192576 0.909933
8 1 0.74024 0.0827798 0.704907
15 1 0.995804 0.217151 0.896641
34 1 0.8733 0.300757 0.697505
41 1 0.108618 0.442669 0.945497
10 1 0.12195 0.595938 0.742451
55 1 0.405198 0.334238 0.929045
28 1 0.375522 0.47303 0.74271
63 1 0.53407 0.630537 0.855778
18 1 0.940095 0.574671 0.99714
13 1 0.715573 0.508975 0.989497
12 1 0.863766 0.573759 0.762481
37 1 0.708504 0.350544 0.828279
57 1 0.310296 0.709471 0.855668
7 1 0.1452 0.874879 0.798822
24 1 0.507225 0.982552 0.859117
25 1 0.446933 0.805999 0.668226
47 1 0.925362 0.985234 0.86883
62 1 0.778916 0.805069 0.686058
16 1 0.701072 0.847302 0.884715
ITEM: TIMESTEP
60000
ITEM: NUMBER OF ATOMS
64
ITEM: BOX BOUNDS pp pp pp
1.0050317924246688e-01 1.0760896820757537e+01
1.0050317924246688e-01 1.0760896820757537e+01
1.0050317924246688e-01 1.0760896820757537e+01
ITEM: ATOMS id type xs ys zs
30 1 0.156942 0.103554 0.261923
3 1 0.35156 0.286807 0.0734836
31 1 0.395997 0.0690851 0.211494
5 1 0.572207 0.170123 0.0257707
20 1 0.745352 0.32371 0.159799
8 1 0.964742 0.0938138 0.129022
9 1 0.996197 0.310244 0.0763056
28 1 0.0396901 0.350093 0.296766
52 1 0.0742246 0.542086 0.0118469
24 1 0.277292 0.382489 0.259592
33 1 0.205193 0.595779 0.259113
60 1 0.619182 0.632311 0.262998
45 1 0.433365 0.574792 0.12688
23 1 0.790605 0.53858 0.136552
57 1 0.982027 0.62226 0.238075
35 1 0.294164 0.871587 0.313373
51 1 0.109994 0.841465 0.133796
41 1 0.292043 0.709848 0.031001
58 1 0.447722 0.907198 0.0241672
59 1 0.87395 0.857724 0.0899986
53 1 0.745544 0.959575 0.281147
18 1 0.205004 0.237322 0.477164
36 1 0.543441 0.150397 0.37848
26 1 0.874536 0.126315 0.348483
6 1 0.729032 0.297026 0.366185
19 1 0.974064 0.218247 0.541349
38 1 0.168311 0.459588 0.558584
29 1 0.291349 0.660061 0.44225
25 1 0.405537 0.436985 0.646678
44 1 0.636198 0.519996 0.472271
40 1 0.445319 0.344395 0.422367
54 1 0.965968 0.550957 0.475083
14 1 0.819494 0.37119 0.59611
21 1 0.785756 0.650433 0.627972
56 1 0.0936772 0.967911 0.470106
62 1 0.178507 0.764399 0.572727
1 1 0.558143 0.975446 0.523816
64 1 0.505174 0.835797 0.362739
49 1 0.489002 0.681126 0.549308
10 1 0.766157 0.858381 0.53942
17 1 0.912848 0.814996 0.367491
32 1 0.931858 0.970945 0.646349
7 1 0.332461 0.269417 0.738256
55 1 0.0709041 0.26356 0.785386
2 1 0.177704 0.179343 0.968659
13 1 0.201964 0.0558051 0.684799
61 1 0.448017 0.0809421 0.864314
27 1 0.622885 0.105898 0.731528
47 1 0.863445 0.283041 0.860197
34 1 0.828972 0.0877363 0.809586
37 1 0.154155 0.48572 0.810142
16 1 0.0272706 0.653833 0.727595
22 1 0.449494 0.439208 0.92992
12 1 0.652574 0.408455 0.917172
48 1 0.630558 0.34651 0.673087
39 1 0.344665 0.601167 0.803641
46 1 0.718896 0.610488 0.834817
4 1 0.208118 0.951558 0.953386
11 1 0.304744 0.837433 0.763875
42 1 0.0274644 0.875465 0.826627
50 1 0.514123 0.833543 0.706429
63 1 0.584684 0.781655 0.898324
15 1 0.897985 0.695148 0.956299
43 1 0.723776 0.977953 0.985822
ITEM: TIMESTEP
65000
ITEM: NUMBER OF ATOMS
64
ITEM: BOX BOUNDS pp pp pp
1.1401310529359154e-01 1.0747386894706363e+01
1.1401310529359154e-01 1.0747386894706363e+01
1.1401310529359154e-01 1.0747386894706363e+01
ITEM: ATOMS id type xs ys zs
23 1 0.210369 0.283771 0.111792
20 1 0.121556 0.296454 0.319629
8 1 0.0415311 0.0819241 0.131064
64 1 0.516759 0.0639088 0.211308