LAMMPS (23 Jun 2022)
OMP_NUM_THREADS environment is not set. Defaulting to 1 thread. (src/comm.cpp:98)
  using 1 OpenMP thread(s) per MPI task
echo both

# Define some variables
variable	temperature equal 1700.
variable	tempDamp equal 0.1 # approx 0.1 ps
variable	pressure equal 10000.
variable	pressureDamp equal 1.0
variable	seed equal 74581

# Setup
units		metal
atom_style	full

# Initial configuration
# Cubic diamond lattice
lattice 	diamond 5.4307
Lattice spacing in x,y,z = 5.4307 5.4307 5.4307
region          myreg block 0 2 0 2 0 2
create_box      1 myreg
Created orthogonal box = (0 0 0) to (10.8614 10.8614 10.8614)
  1 by 1 by 1 MPI processor grid
create_atoms 	1 random 64 12345 myreg overlap 0.4 maxtry 500
Created 64 atoms
  using lattice units in orthogonal box = (0 0 0) to (10.8614 10.8614 10.8614)
  create_atoms CPU = 0.001 seconds
variable 	mass equal 28.0855
mass            1 ${mass}
mass            1 28.0855

# More setup options
variable	out_freq equal 500
variable	out_freq2 equal 5000
neigh_modify    delay 10 every 1
pair_style 	sw
pair_coeff 	* * Si.sw Si
Reading sw potential file Si.sw with DATE: 2007-06-11
timestep	0.002
thermo          ${out_freq}
thermo          500
thermo_style 	custom step temp pe press lx
restart 	${out_freq} Restart.lmp Restart2.lmp
restart 	500 Restart.lmp Restart2.lmp

# Perform minimization
minimize 1.0e-2 1.0e-3 100 1000
WARNING: Using 'neigh_modify every 1 delay 0 check yes' setting during minimization (src/min.cpp:187)
Neighbor list info ...
  update every 1 steps, delay 0 steps, check yes
  max neighbors/atom: 2000, page size: 100000
  master list distance cutoff = 5.77118
  ghost atom cutoff = 5.77118
  binsize = 2.88559, bins = 4 4 4
  1 neighbor lists, perpetual/occasional/extra = 1 0 0
  (1) pair sw, perpetual
      attributes: full, newton on
      pair build: full/bin
      stencil: full/bin/3d
      bin: standard
Per MPI rank memory allocation (min/avg/max) = 7.141 | 7.141 | 7.141 Mbytes
   Step          Temp          PotEng         Press            Lx      
         0   0             -169.1764       198360.21      10.8614      
        10   0             -236.97934     -75937.196      10.8614      
Loop time of 0.00432854 on 1 procs for 10 steps with 64 atoms

67.1% CPU use with 1 MPI tasks x 1 OpenMP threads

Minimization stats:
  Stopping criterion = energy tolerance
  Energy initial, next-to-last, final = 
     -169.176402825968  -234.742633325965  -236.979344783917
  Force two-norm initial, final = 47.138491 4.5033468
  Force max component initial, final = 13.139347 0.9964586
  Final line search alpha, max atom move = 0.082494863 0.082202715
  Iterations, force evaluations = 10 10

MPI task timing breakdown:
Section |  min time  |  avg time  |  max time  |%varavg| %total
---------------------------------------------------------------
Pair    | 0.0027598  | 0.0027598  | 0.0027598  |   0.0 | 63.76
Bond    | 2.655e-06  | 2.655e-06  | 2.655e-06  |   0.0 |  0.06
Neigh   | 0.00015272 | 0.00015272 | 0.00015272 |   0.0 |  3.53
Comm    | 3.3886e-05 | 3.3886e-05 | 3.3886e-05 |   0.0 |  0.78
Output  | 0          | 0          | 0          |   0.0 |  0.00
Modify  | 0          | 0          | 0          |   0.0 |  0.00
Other   |            | 0.00138    |            |       | 31.87

Nlocal:             64 ave          64 max          64 min
Histogram: 1 0 0 0 0 0 0 0 0 0
Nghost:            494 ave         494 max         494 min
Histogram: 1 0 0 0 0 0 0 0 0 0
Neighs:              0 ave           0 max           0 min
Histogram: 1 0 0 0 0 0 0 0 0 0
FullNghs:         2532 ave        2532 max        2532 min
Histogram: 1 0 0 0 0 0 0 0 0 0

Total # of neighbors = 2532
Ave neighs/atom = 39.5625
Ave special neighs/atom = 0
Neighbor list builds = 1
Dangerous builds = 0

# NVT equilibration

fix             1 all nve
fix             2 all temp/csvr ${temperature} ${temperature} ${tempDamp} ${seed}
fix             2 all temp/csvr 1700 ${temperature} ${tempDamp} ${seed}
fix             2 all temp/csvr 1700 1700 ${tempDamp} ${seed}
fix             2 all temp/csvr 1700 1700 0.1 ${seed}
fix             2 all temp/csvr 1700 1700 0.1 74581

velocity        all create ${temperature} ${seed} dist gaussian
velocity        all create 1700 ${seed} dist gaussian
velocity        all create 1700 74581 dist gaussian
run             25000
Per MPI rank memory allocation (min/avg/max) = 6.016 | 6.016 | 6.016 Mbytes
   Step          Temp          PotEng         Press            Lx      
        10   1700          -236.97934     -64396.931      10.8614      
       500   1563.2258     -237.72582     -29023.992      10.8614      
      1000   1682.6216     -241.70513     -45626.899      10.8614      
      1500   1618.5236     -240.06598     -46060.603      10.8614      
      2000   1871.7581     -240.73674     -26076.773      10.8614      
      2500   1673.3531     -240.84089     -24231.881      10.8614      
      3000   1746.9668     -242.30663     -22637.152      10.8614      
      3500   1759.0315     -241.7117      -61052.437      10.8614      
      4000   1715.6063     -239.14661     -29866.447      10.8614      
      4500   1447.8119     -237.07018     -29489.995      10.8614      
      5000   1752.2307     -241.44257     -42032.992      10.8614      
      5500   1842.5387     -239.60668     -14964.115      10.8614      
      6000   1558.0228     -240.38847     -32695.258      10.8614      
      6500   1892.8537     -238.34455     -35134.628      10.8614      
      7000   1416.9723     -240.31484     -52812.254      10.8614      
      7500   1658.0838     -241.34654     -51576.763      10.8614      
      8000   2023.6467     -240.20645     -38948.895      10.8614      
      8500   1705.1548     -240.52747     -31443.421      10.8614      
      9000   1588.6549     -241.87912     -8387.8941      10.8614      
      9500   1695.8957     -240.68859     -41192.976      10.8614      
     10000   2062.5668     -240.53515     -32003.503      10.8614      
     10500   1707.2779     -240.22584     -52516.262      10.8614      
     11000   1542.7659     -240.99764     -23098.732      10.8614      
     11500   1470.7088     -241.46183     -39024.255      10.8614      
     12000   1535.1085     -238.41121     -40422.858      10.8614      
     12500   1579.5482     -241.88714     -14871.738      10.8614      
     13000   1825.184      -239.33104     -17460.994      10.8614      
     13500   2291.5241     -237.53736     -42898.132      10.8614      
     14000   1716.7655     -238.62837     -47303.138      10.8614      
     14500   1595.2061     -238.82862     -17046.879      10.8614      
     15000   1762.7015     -239.72951     -33438.401      10.8614      
     15500   1476.4561     -241.8364      -20458.627      10.8614      
     16000   1874.0812     -243.41307     -21821.135      10.8614      
     16500   1537.6697     -241.88033     -12960.064      10.8614      
     17000   1789.1552     -237.67883     -16437.756      10.8614      
     17500   1829.382      -237.1744      -4238.5617      10.8614      
     18000   1765.0943     -242.43931     -38727.554      10.8614      
     18500   1689.0801     -245.14606     -52749.888      10.8614      
     19000   1438.0306     -239.72017     -35871.055      10.8614      
     19500   1889.8157     -240.71226     -22633.231      10.8614      
     20000   1738.8746     -241.66928     -21237.705      10.8614      
     20500   1487.8913     -238.51389     -36571.399      10.8614      
     21000   1984.4009     -238.49601     -30060.268      10.8614      
     21500   1753.541      -237.6583      -58039.323      10.8614      
     22000   1865.6256     -236.57075     -50888.404      10.8614      
     22500   1945.9405     -236.77094     -16192.71       10.8614      
     23000   1494.4142     -242.55287     -44995.465      10.8614      
     23500   1727.8919     -241.28064     -39767.672      10.8614      
     24000   1720.4556     -242.44948     -9600.2697      10.8614      
     24500   1883.8172     -241.84065     -27023.194      10.8614      
     25000   1709.6379     -239.71228     -30437.399      10.8614      
     25010   1799.9026     -239.46699     -23019.736      10.8614      
Loop time of 5.82811 on 1 procs for 25000 steps with 64 atoms

Performance: 741.235 ns/day, 0.032 hours/ns, 4289.556 timesteps/s
98.7% CPU use with 1 MPI tasks x 1 OpenMP threads

MPI task timing breakdown:
Section |  min time  |  avg time  |  max time  |%varavg| %total
---------------------------------------------------------------
Pair    | 5.5551     | 5.5551     | 5.5551     |   0.0 | 95.32
Bond    | 0.0054291  | 0.0054291  | 0.0054291  |   0.0 |  0.09
Neigh   | 0.11609    | 0.11609    | 0.11609    |   0.0 |  1.99
Comm    | 0.061722   | 0.061722   | 0.061722   |   0.0 |  1.06
Output  | 0.02797    | 0.02797    | 0.02797    |   0.0 |  0.48
Modify  | 0.039793   | 0.039793   | 0.039793   |   0.0 |  0.68
Other   |            | 0.02197    |            |       |  0.38

Nlocal:             64 ave          64 max          64 min
Histogram: 1 0 0 0 0 0 0 0 0 0
Nghost:            496 ave         496 max         496 min
Histogram: 1 0 0 0 0 0 0 0 0 0
Neighs:              0 ave           0 max           0 min
Histogram: 1 0 0 0 0 0 0 0 0 0
FullNghs:         2514 ave        2514 max        2514 min
Histogram: 1 0 0 0 0 0 0 0 0 0

Total # of neighbors = 2514
Ave neighs/atom = 39.28125
Ave special neighs/atom = 0
Neighbor list builds = 780
Dangerous builds = 0

unfix           1
unfix           2

# NPT equilibration
fix             1 all nph iso ${pressure} ${pressure} ${pressureDamp}
fix             1 all nph iso 10000 ${pressure} ${pressureDamp}
fix             1 all nph iso 10000 10000 ${pressureDamp}
fix             1 all nph iso 10000 10000 1
fix             2 all temp/csvr ${temperature} ${temperature} ${tempDamp} ${seed}
fix             2 all temp/csvr 1700 ${temperature} ${tempDamp} ${seed}
fix             2 all temp/csvr 1700 1700 ${tempDamp} ${seed}
fix             2 all temp/csvr 1700 1700 0.1 ${seed}
fix             2 all temp/csvr 1700 1700 0.1 74581

velocity        all create ${temperature} ${seed} dist gaussian
velocity        all create 1700 ${seed} dist gaussian
velocity        all create 1700 74581 dist gaussian
run             50000
Per MPI rank memory allocation (min/avg/max) = 6.017 | 6.017 | 6.017 Mbytes
   Step          Temp          PotEng         Press            Lx      
     25010   1700          -239.46699     -23697.914      10.8614      
     25500   1658.679      -241.09224      24274.317      10.673287    
     26000   1708.4269     -242.6349       7529.705       10.588997    
     26500   1668.0058     -243.26025      9753.4577      10.62971     
     27000   1809.0937     -242.28476      28226.012      10.517525    
     27500   1470.05       -241.64095      19469.866      10.56391     
     28000   1719.6401     -243.36225      21907.523      10.58585     
     28500   1376.7925     -239.03582      6453.644       10.660774    
     29000   1732.5066     -239.73796      30410.856      10.578574    
     29500   1780.4629     -241.73405      3352.7932      10.612302    
     30000   1722.6164     -243.02267     -8569.1402      10.609838    
     30500   2073.192      -241.58564      9938.492       10.591889    
     31000   1642.4496     -242.24098      35200.498      10.624991    
     31500   1867.7662     -240.11485      26229.481      10.597853    
     32000   1625.3622     -243.02469     -1608.0469      10.561271    
     32500   1752.7888     -243.90535      12896.14       10.620532    
     33000   1852.9782     -239.68468     -29782.867      10.595823    
     33500   1719.0811     -242.31811      592.68234      10.567414    
     34000   1734.6481     -243.43308      7397.8903      10.641348    
     34500   1866.6782     -241.85762     -10433.395      10.613488    
     35000   1995.2744     -241.17089      20228.297      10.575917    
     35500   1710.4373     -242.02536     -4629.0799      10.5855      
     36000   1702.7563     -245.33177     -9783.2813      10.688976    
     36500   1509.4267     -243.06379     -5490.0543      10.591126    
     37000   1799.5062     -240.37598      76522.877      10.570015    
     37500   1699.6544     -242.78483     -8535.0952      10.651255    
     38000   1974.1907     -241.71754     -30260.233      10.690501    
     38500   1908.422      -236.97924     -23557.199      10.702       
     39000   1682.2112     -241.12535      35063.234      10.570624    
     39500   1464.272      -239.58505      9106.2054      10.645446    
     40000   1614.6277     -242.18237      772.24616      10.591421    
     40500   1385.4969     -244.27815     -17145.787      10.646412    
     41000   1889.2925     -241.21516     -1792.668       10.690015    
     41500   1473.9705     -241.50388      11546.426      10.669441    
     42000   2171.3991     -242.0983       25230.767      10.624775    
     42500   1940.215      -239.93236      28026.114      10.576905    
     43000   1702.0503     -242.17903      40189.434      10.571521    
     43500   1586.4894     -242.09507     -18648.478      10.689632    
     44000   1880.3826     -244.98007     -3536.7877      10.610761    
     44500   1647.8337     -239.6501      -25433.825      10.671054    
     45000   1719.8789     -242.03805     -1311.6839      10.657302    
     45500   1377.0952     -238.72092     -11726.916      10.625418    
     46000   1810.854      -239.71902      12160.474      10.628081    
     46500   1991.6309     -241.93143      41663.554      10.558801    
     47000   1944.6742     -239.48507     -6674.3636      10.654019    
     47500   1995.2597     -240.03197     -3602.8244      10.629661    
     48000   1596.2974     -242.74931      27246.447      10.581049    
     48500   1851.5294     -241.56738      36351.026      10.56855     
     49000   1595.072      -242.50046      7111.5432      10.59589     
     49500   1849.6425     -240.38349      35811.615      10.569046    
     50000   1625.5853     -242.17188      8539.3187      10.605122    
     50500   1833.8703     -242.32976     -2470.1236      10.618513    
     51000   1780.8768     -243.80296      50345.523      10.522587    
     51500   1792.5106     -242.16693      21063.448      10.589021    
     52000   1678.0051     -242.31321     -17660.029      10.622297    
     52500   1370.9155     -241.92726      26203.332      10.63726     
     53000   1661.9738     -241.68267     -1632.1058      10.656339    
     53500   1754.8406     -241.51358      43700.781      10.537865    
     54000   1834.6213     -241.86464      49005.404      10.56437     
     54500   1645.2782     -239.54531     -10148.675      10.603883    
     55000   1365.2795     -241.47433      48721.534      10.584809    
     55500   1814.5668     -240.30534      33163.264      10.58054     
     56000   2026.6958     -243.4877       14821.859      10.547742    
     56500   1461.5007     -240.37389     -14630.783      10.676875    
     57000   1908.05       -239.54341      11419.375      10.603015    
     57500   1649.9655     -240.40917     -13448.482      10.648922    
     58000   1575.3798     -240.73968      1974.3252      10.604212    
     58500   1350.0697     -241.54506      645.32399      10.613284    
     59000   1652.7878     -241.02063     -6539.5156      10.63878     
     59500   1459.1234     -240.10959      25048.984      10.620676    
     60000   1729.3667     -242.37752      12062.068      10.66688     
     60500   1407.8455     -242.9358       1609.4678      10.603845    
     61000   1547.913      -242.42788      35354.319      10.559045    
     61500   1552.3316     -239.92645     -23938.314      10.634271    
     62000   1758.2922     -242.92029      6849.68        10.555634    
     62500   1649.2881     -243.99097      26522.329      10.478453    
     63000   1966.838      -239.30013      49436.831      10.568898    
     63500   1988.3055     -242.96037      4581.3983      10.589132    
     64000   1862.5678     -242.23338      45174.214      10.612965    
     64500   1614.1497     -241.56958      20549.975      10.628321    
     65000   1683.4298     -241.9786       17650.211      10.565335    
     65500   1612.232      -242.78436     -21339.437      10.701312    
     66000   1549.7602     -240.37612      10876.961      10.629538    
     66500   2032.9254     -241.45358      18964.213      10.630532    
     67000   1873.3806     -245.21742     -17914.885      10.717331    
     67500   1726.273      -242.02273      9285.4181      10.648378    
     68000   1832.3811     -242.55604      22109.502      10.620349    
     68500   1663.4471     -242.50245      3971.1266      10.649598    
     69000   1800.1465     -239.2569       37792.216      10.563742    
     69500   1528.4662     -240.39571     -3659.6738      10.714564    
     70000   1682.2606     -242.85946      85389.379      10.505107    
     70500   1576.0395     -239.98132      39514.214      10.554377    
     71000   1923.3006     -240.97184      19137.313      10.555756    
     71500   1605.6529     -239.71448      46666.055      10.620314    
     72000   1609.0789     -239.90584      14056.563      10.564405    
     72500   1780.8417     -241.0226       12324.853      10.582424    
     73000   2036.1522     -241.79366      20849.212      10.621436    
     73500   1713.265      -241.26984      24056.807      10.561254    
     74000   1848.8642     -243.55026     -23216.602      10.720747    
     74500   1585.0463     -238.71916     -5769.6165      10.665233    
     75000   1682.2994     -242.62852      50025.391      10.551769    
     75010   1534.15       -241.5731       17091.125      10.576999    
Loop time of 14.7814 on 1 procs for 50000 steps with 64 atoms

Performance: 584.520 ns/day, 0.041 hours/ns, 3382.640 timesteps/s
98.9% CPU use with 1 MPI tasks x 1 OpenMP threads

MPI task timing breakdown:
Section |  min time  |  avg time  |  max time  |%varavg| %total
---------------------------------------------------------------
Pair    | 14.11      | 14.11      | 14.11      |   0.0 | 95.46
Bond    | 0.011386   | 0.011386   | 0.011386   |   0.0 |  0.08
Neigh   | 0.25084    | 0.25084    | 0.25084    |   0.0 |  1.70
Comm    | 0.1283     | 0.1283     | 0.1283     |   0.0 |  0.87
Output  | 0.054294   | 0.054294   | 0.054294   |   0.0 |  0.37
Modify  | 0.1788     | 0.1788     | 0.1788     |   0.0 |  1.21
Other   |            | 0.04741    |            |       |  0.32

Nlocal:             64 ave          64 max          64 min
Histogram: 1 0 0 0 0 0 0 0 0 0
Nghost:            544 ave         544 max         544 min
Histogram: 1 0 0 0 0 0 0 0 0 0
Neighs:              0 ave           0 max           0 min
Histogram: 1 0 0 0 0 0 0 0 0 0
FullNghs:         2760 ave        2760 max        2760 min
Histogram: 1 0 0 0 0 0 0 0 0 0

Total # of neighbors = 2760
Ave neighs/atom = 43.125
Ave special neighs/atom = 0
Neighbor list builds = 1639
Dangerous builds = 0

unfix           1
unfix           2


# Dump trajectories in dump and dcd format
dump            myDump all atom ${out_freq2} si.lammps-dump-text
dump            myDump all atom 5000 si.lammps-dump-text

reset_timestep 	0
# NPT production

fix             1 all nph iso ${pressure} ${pressure} ${pressureDamp}
fix             1 all nph iso 10000 ${pressure} ${pressureDamp}
fix             1 all nph iso 10000 10000 ${pressureDamp}
fix             1 all nph iso 10000 10000 1
fix             2 all temp/csvr ${temperature} ${temperature} ${tempDamp} ${seed}
fix             2 all temp/csvr 1700 ${temperature} ${tempDamp} ${seed}
fix             2 all temp/csvr 1700 1700 ${tempDamp} ${seed}
fix             2 all temp/csvr 1700 1700 0.1 ${seed}
fix             2 all temp/csvr 1700 1700 0.1 74581

velocity        all create ${temperature} ${seed} dist gaussian
velocity        all create 1700 ${seed} dist gaussian
velocity        all create 1700 74581 dist gaussian
run             500000
Per MPI rank memory allocation (min/avg/max) = 7.019 | 7.019 | 7.019 Mbytes
   Step          Temp          PotEng         Press            Lx      
         0   1700          -241.5731       18310.261      10.576999    
       500   1546.9011     -241.53251     -8271.6498      10.583725    
      1000   1729.0989     -241.91848     -6435.6873      10.631117    
      1500   1508.5949     -242.34837      34829.989      10.622584    
      2000   1671.761      -243.05308      14552.168      10.614877    
      2500   1681.3706     -243.70829      23795.712      10.652581    
      3000   1533.4296     -241.56436      40250.191      10.565796    
      3500   1605.2321     -242.95661      18313.665      10.613961    
      4000   1657.1913     -239.72053      13993.724      10.606993    
      4500   1529.0949     -241.67514      11997.279      10.664575    
      5000   1423.4836     -243.10934     -35559.296      10.655251    
      5500   1662.3258     -238.19144      30380.584      10.556934    
      6000   1501.8825     -243.12886     -4391.9128      10.620854    
      6500   2175.2387     -241.31171      10404.404      10.596592    
      7000   1469.3532     -241.25368      11729.729      10.529828    
      7500   1864.2818     -242.67928      9422.4175      10.621053    
      8000   1702.5089     -238.37292      19177.223      10.611963    
      8500   1524.2279     -240.48598      28998.571      10.56906     
      9000   1770.7803     -244.07847      2396.8783      10.588541    
      9500   1543.5862     -240.37349      26306.698      10.611639    
     10000   1920.239      -241.34128     -31570.457      10.667164    
     10500   1634.2178     -242.35182      32553.362      10.589353    
     11000   1589.794      -242.68805      14470.643      10.642366    
     11500   1597.1097     -243.30575      7949.5895      10.515249    
     12000   1701.3939     -239.7577       11161.61       10.576803    
     12500   1589.1898     -241.60848     -15663.947      10.572444    
     13000   1825.2701     -240.15242      7722.4279      10.56768     
     13500   2225.204      -239.96482      9971.2601      10.63371     
     14000   1345.525      -239.33769     -34979.036      10.689576    
     14500   1677.8728     -240.99043      13241.321      10.683922    
     15000   1651.2424     -242.75446      25303.007      10.59072     
     15500   1249.9521     -243.29079     -6165.8069      10.602804    
     16000   1729.1801     -240.92604      13558.457      10.595839    
     16500   1544.6845     -242.21136      8401.7989      10.658787    
     17000   1638.5712     -237.33328      32128.283      10.589176    
     17500   1785.6782     -239.70298      10629.271      10.562388    
     18000   1817.0909     -242.36979     -7756.1978      10.622857    
     18500   1908.3775     -243.17468      25413.09       10.640495    
     19000   1365.7136     -240.75265      3140.7888      10.729438    
     19500   1536.973      -239.64096      24179.006      10.579337    
     20000   1707.5897     -242.81117      22920.029      10.566611    
     20500   1623.1954     -240.9431      -12331.165      10.6618      
     21000   1891.0561     -241.03093     -2684.8698      10.644358    
     21500   1722.2792     -240.64107     -5763.6394      10.611299    
     22000   2140.658      -242.2237       21584.715      10.569345    
     22500   2001.3172     -240.17715      26840.461      10.618531    
     23000   1503.929      -243.2668       26475.147      10.606702    
     23500   1755.9644     -241.33275     -24053.613      10.609991    
     24000   1791.962      -244.34147      2514.756       10.648854    
     24500   1769.211      -241.99152      62300.668      10.629898    
     25000   1580.8665     -240.27928      35641.538      10.597246    
     25500   1838.247      -243.5152      -26023.529      10.748214    
     26000   1577.2776     -240.31095      19066.923      10.606547    
     26500   1814.5443     -244.26207     -7075.648       10.594439    
     27000   1673.6166     -243.25792     -900.51087      10.671258    
     27500   1546.2539     -244.77969      30055.322      10.607381    
     28000   1846.8098     -241.18763      25487.513      10.625934    
     28500   1984.2301     -241.29924      32857.111      10.641795    
     29000   1631.7682     -239.91337      7811.3124      10.631224    
     29500   1874.9669     -244.32561      31130.693      10.608131    
     30000   1473.8662     -241.69812     -33246.511      10.614569    
     30500   1616.5779     -240.04991      6060.9065      10.608252    
     31000   1424.4067     -239.13982      7934.2986      10.626506    
     31500   1439.6262     -239.22847     -22380.697      10.679009    
     32000   1832.5246     -239.7192       9332.0496      10.702027    
     32500   1710.5245     -240.43694      8443.0029      10.702872    
     33000   1747.252      -241.80242      12644.882      10.573788    
     33500   1480.4194     -243.59312      8545.0071      10.559761    
     34000   1556.5782     -238.67402      1778.6507      10.765818    
     34500   1947.8752     -243.71082      23315.066      10.524635    
     35000   1992.0177     -243.85527      13630.874      10.618263    
     35500   1530.2174     -243.8502       11733.927      10.545998    
     36000   1504.7281     -242.59669      7751.4848      10.618582    
     36500   1679.7974     -240.86412      2378.7973      10.674855    
     37000   1487.2624     -240.32394      5236.9992      10.697323    
     37500   1665.2356     -241.79936      26020.001      10.577988    
     38000   1892.8352     -241.96678      1778.5625      10.568343    
     38500   1900.4576     -242.11563      19192.215      10.578163    
     39000   1932.6847     -242.86435     -5102.6915      10.624905    
     39500   1749.6841     -242.03042      13248.623      10.578874    
     40000   1652.0117     -241.4869       2654.7957      10.564559    
     40500   1607.6622     -242.0981       17358.027      10.572698    
     41000   1427.0879     -240.64583      9355.1746      10.622541    
     41500   1824.4808     -238.44674      3975.6277      10.603317    
     42000   1835.2328     -242.39179      13317.319      10.63786     
     42500   1562.2894     -240.41035      17670.008      10.688685    
     43000   1741.643      -241.01138      24902.319      10.580066    
     43500   1607.3915     -243.06078     -5691.8113      10.620317    
     44000   1644.1829     -238.1376       4009.3811      10.697936    
     44500   1679.8615     -240.88216     -10060.862      10.655451    
     45000   1290.5013     -240.3839       33132.528      10.559384    
     45500   1738.8552     -241.16752      22353.58       10.5682      
     46000   1795.1179     -239.59441      47445.667      10.530923    
     46500   1869.2693     -241.15895      11062.488      10.61715     
     47000   1909.9599     -243.89612      9884.6467      10.668946    
     47500   1831.6498     -241.84681      9038.0077      10.629677    
     48000   1953.4946     -241.77559      68890.105      10.554204    
     48500   1542.8282     -239.55816      28677.923      10.598391    
     49000   1627.3635     -241.50881      10627.76       10.578274    
     49500   1853.2259     -240.03869      2520.2634      10.583708    
     50000   1706.2927     -242.1434       17812.059      10.613877    
     50500   1707.3645     -239.76429     -2827.5396      10.647517    
     51000   1464.1868     -239.90499      39737.697      10.570746    
     51500   1679.3302     -241.90811     -14508.114      10.70678     
     52000   1877.1748     -240.88332      39768.503      10.541573    
     52500   1979.0203     -241.77129      6791.3204      10.596631    
     53000   1615.7232     -242.34423      22952.305      10.577393    
     53500   1479.4138     -242.28819      9902.4461      10.637111    
     54000   1776.0652     -244.8694      -12471.034      10.598092    
     54500   1852.0997     -243.36417      30618.807      10.586598    
     55000   1881.533      -241.21157      20707.669      10.6014      
     55500   1419.0027     -239.95161      18561.616      10.630276    
     56000   1734.9452     -241.2762      -1154.1483      10.562059    
     56500   1879.4005     -239.50039     -22469.79       10.692422    
     57000   1656.9395     -241.27881      3440.263       10.653535    
     57500   1515.2236     -242.70304     -12007.324      10.63205     
     58000   2024.2354     -243.3119       3028.3987      10.617735    
     58500   1984.7968     -241.4742       11837.889      10.591948    
     59000   1853.0616     -242.77004      4258.6347      10.65643     
     59500   1533.8522     -239.47142      52784.479      10.549199    
     60000   1730.9387     -241.39234     -19270.557      10.657663    
     60500   1354.7079     -242.88903     -1644.9172      10.665344    
     61000   1796.0134     -242.49456      34552.063      10.574544    
     61500   1611.1388     -242.64571     -9335.8145      10.663253    
     62000   1806.8834     -240.81405      50636.868      10.530449    
     62500   1844.9768     -243.14626      30909.352      10.527899    
     63000   1491.3917     -244.81283     -33376.346      10.675403    
     63500   1539.8743     -241.61648      25388.114      10.62108     
     64000   1302.4375     -238.00802      6818.5736      10.702131    
     64500   1664.7987     -242.34945      4790.6029      10.678617    
     65000   1547.6606     -240.39801      46835.018      10.631314    
     65500   1693.5836     -241.57528      12155.844      10.624051    
     66000   2010.9664     -243.51702      12337.859      10.640211    
     66500   1508.4136     -244.0389      -17164.172      10.661137    
     67000   1466.015      -243.61607     -11971.391      10.580366    
     67500   1641.2508     -242.57001     -7611.7503      10.584628    
     68000   2073.2937     -239.3979       28634.019      10.572796    
     68500   1704.4035     -238.68646     -2982.1884      10.625044    
     69000   1707.4871     -242.3248      -24307.723      10.616695    
     69500   2139.2602     -241.84823     -5640.1486      10.605343    
     70000   1422.2098     -240.59253      45395.556      10.539868    
     70500   1799.5757     -243.56282      7610.3774      10.605948    
     71000   1550.2761     -242.06539      9542.72        10.592423    
     71500   2109.6049     -242.23198      23782.886      10.622478    
     72000   1505.8339     -244.31873     -6666.3213      10.613535    
     72500   1746.7952     -243.24425     -9316.0427      10.655326    
     73000   1666.4293     -237.9419       10449.947      10.599339    
     73500   1974.8718     -241.24057     -25327.91       10.652353    
     74000   1642.5192     -244.25652      38447.863      10.6322      
     74500   1751.1995     -240.0642       54095.102      10.605668    
     75000   1571.5111     -240.17168     -12046.747      10.670645    
     75500   1571.6297     -244.28581     -7847.9474      10.655014    
     76000   1667.5997     -242.48654     -11498.483      10.725688    
     76500   1695.3544     -241.49276      686.6905       10.627452    
     77000   1987.4673     -243.21135     -26530.484      10.598761    
     77500   1653.7709     -239.28105      24239.672      10.603309    
     78000   1508.5176     -242.05338      28952.478      10.566147    
     78500   1706.1162     -241.53454      61087.869      10.523342    
     79000   1999.6656     -243.3517       16092.861      10.643466    
     79500   1818.1661     -241.46551      893.68132      10.618249    
     80000   1938.1044     -238.90117     -12680.585      10.64932     
     80500   1383.3415     -241.1441       23779.655      10.523897    
     81000   1617.6171     -239.54347      1361.6531      10.595907    
     81500   1713.0664     -239.87107      37921.306      10.547142    
     82000   1568.1368     -242.7161       13524.016      10.624119    
     82500   1881.9803     -239.59242      7063.4205      10.585027    
     83000   1929.4306     -241.76862      20560.615      10.556359    
     83500   1641.6887     -239.38475     -40445.353      10.689783    
     84000   1716.2615     -239.10165      3189.4095      10.689112    
     84500   1670.6384     -243.3058      -7317.6326      10.659856    
     85000   1711.3371     -244.16573      14950.957      10.573823    
     85500   1455.1622     -240.24702     -17052.138      10.610707    
     86000   1751.7884     -242.81493      17503.975      10.571126    
     86500   1539.5645     -244.71488      44804.775      10.498465    
     87000   1593.4622     -240.37643     -651.27656      10.608785    
     87500   1608.5882     -242.30279      17632.644      10.614534    
     88000   1766.5799     -241.66962      60253.997      10.510594    
     88500   1847.8858     -240.45346     -4193.8874      10.562685    
     89000   1831.9084     -242.327       -5479.356       10.670932    
     89500   1632.5228     -242.89623     -25666.973      10.632171    
     90000   1770.8988     -240.85361      5733.955       10.622488    
     90500   1918.2239     -238.71118      22881.14       10.573489    
     91000   1886.5195     -239.24548     -9981.564       10.663806    
     91500   1328.976      -245.06826      23262.084      10.593599    
     92000   1513.6127     -242.08294      2203.0112      10.66069     
     92500   1515.7146     -240.10426      4110.4932      10.640721    
     93000   1875.2887     -239.93547     -13527.32       10.719793    
     93500   1842.9007     -242.0175       42563.109      10.599643    
     94000   1688.5        -241.02396     -5997.8084      10.698195    
     94500   1703.5974     -241.95605     -27302.277      10.6777      
     95000   1890.9327     -240.90611      25274.495      10.607843    
     95500   1838.7154     -240.651        35879.965      10.578627    
     96000   1856.6409     -243.67587      1362.717       10.623985    
     96500   1767.9959     -241.57736      87.286008      10.65167     
     97000   1799.0536     -241.72773      29230.961      10.574254    
     97500   1574.5985     -240.5397      -40424.059      10.601765    
     98000   1641.3665     -242.41586      16097.78       10.607734    
     98500   1853.4861     -241.96453     -17583.596      10.647439    
     99000   1678.502      -242.58294      43604.923      10.516246    
     99500   1810.072      -239.71533     -19021.272      10.716131    
    100000   2066.7085     -241.46904      29901.773      10.551278    
    100500   1687.27       -241.47728     -22232.814      10.703268    
    101000   1359.8644     -242.32343     -15526.666      10.718805    
    101500   1690.2815     -242.5888       14057.204      10.610748    
    102000   1405.1265     -242.74062      7691.6805      10.631344    
    102500   1617.8381     -242.59717      57044.461      10.601759    
    103000   1512.3822     -239.5166       23321.031      10.606613    
    103500   1933.2439     -244.2416      -648.48583      10.576565    
    104000   1676.7536     -242.95726      7088.6748      10.607153    
    104500   1557.8669     -241.82521     -7185.8939      10.619782    
    105000   1650.1413     -241.38495      29632.963      10.604794    
    105500   1554.3829     -242.34517      1210.9504      10.68511     
    106000   1525.3527     -243.91115      14419.197      10.581842    
    106500   1539.4296     -243.29224      58990.684      10.633123    
    107000   1867.3216     -240.15101      47191.737      10.614745    
    107500   1776.0648     -242.73711     -3234.3728      10.675099    
    108000   1726.706      -241.45434     -11445.668      10.664126    
    108500   1707.107      -240.54205     -7145.8772      10.706519    
    109000   1741.1689     -241.25282      7962.3816      10.642999    
    109500   1284.2236     -243.22929      12028.075      10.574791    
    110000   1694.9962     -242.60298     -1371.0534      10.577789    
    110500   1873.689      -242.08387      36185.089      10.591571    
    111000   1633.4995     -243.99784      3402.1087      10.618587    
    111500   1475.1032     -239.81923      3431.2549      10.590112    
    112000   1817.1606     -240.537        36104.284      10.566444    
    112500   1942.7998     -240.32172      24031.702      10.560542    
    113000   1746.8456     -244.14698      23414.489      10.634873    
    113500   1649.6229     -241.13557     -30189.598      10.668522    
    114000   1912.8677     -238.02952     -3444.3376      10.703218    
    114500   1745.3679     -240.17553      12421.917      10.663905    
    115000   1557.9667     -241.61079      5317.7156      10.639627    
    115500   1993.2099     -241.19436     -12121.418      10.617965    
    116000   1636.8483     -242.39078      1355.5849      10.589067    
    116500   1634.0306     -243.07597      22492.417      10.603       
    117000   1691.3358     -240.86804      46829.491      10.615068    
    117500   1344.4176     -244.22409      8920.4315      10.616898    
    118000   1763.8136     -242.47361     -37717.45       10.684831    
    118500   1655.2413     -242.2691      -19777.843      10.568536    
    119000   1696.5472     -238.18712      677.86483      10.675443    
    119500   1569.9614     -240.69806     -26617.232      10.602748    
    120000   1662.1318     -239.97248      27647.985      10.572625    
    120500   1579.8178     -239.9903      -33532.214      10.685368    
    121000   1869.513      -242.88284      24801.55       10.567452    
    121500   1833.1991     -239.87819     -33917.494      10.645624    
    122000   1740.3608     -243.06946      30132.547      10.67784     
    122500   1781.0839     -237.86891      56772.679      10.622086    
    123000   1713.5003     -242.41061      24069.713      10.629212    
    123500   1578.4368     -245.52815      31300.386      10.575134    
    124000   1544.2471     -240.88834      23494.764      10.603119    
    124500   1441.1866     -240.75486      30898.507      10.549878    
    125000   1647.7228     -242.55599      9088.0824      10.59463     
    125500   1595.168      -243.10614      19788.189      10.533588    
    126000   1779.508      -240.64697     -9567.23        10.595255    
    126500   1919.4402     -243.38292     -11989.065      10.617743    
    127000   1588.377      -240.42769      34551.057      10.589745    
    127500   1339.0247     -240.8105      -21660.992      10.662875    
    128000   1539.4983     -242.47544     -2190.9665      10.560227    
    128500   1813.3023     -240.65923      3315.2274      10.617468    
    129000   1842.1325     -240.42143      41180.368      10.541147    
    129500   1640.5773     -241.59244      9189.0598      10.612338    
    130000   1769.3002     -243.15572      12266.483      10.56575     
    130500   1664.8443     -243.6045       40116.017      10.62535     
    131000   1824.7373     -238.95476      40652.047      10.660983    
    131500   1578.9156     -240.92159     -296.58266      10.670389    
    132000   1754.3847     -244.16584     -10612.36       10.617662    
    132500   1736.1553     -242.5973       28927.574      10.510774    
    133000   1720.4703     -241.5653       11823.486      10.51825     
    133500   1648.0557     -242.56684      27830.325      10.577028    
    134000   1817.7789     -241.67231      25138.113      10.588848    
    134500   1231.2726     -239.33164      58018.111      10.545075    
    135000   1712.7209     -241.42839     -12291.921      10.647247    
    135500   1656.2258     -243.96268     -29898.393      10.680963    
    136000   1524.3253     -242.46968     -3495.4847      10.66018     
    136500   1724.6962     -240.4816       17378.71       10.589289    
    137000   1443.7416     -245.0669      -32289.863      10.68767     
    137500   1539.0753     -240.83891      10364.592      10.621963    
    138000   1674.5761     -242.25361     -23297.393      10.669196    
    138500   1695.6736     -242.73891      19620.885      10.572408    
    139000   1780.7339     -240.98413     -6379.2368      10.570583    
    139500   1819.1711     -242.91815      26276.509      10.57462     
    140000   1581.7015     -239.33336     -4690.6461      10.608952    
    140500   1840.4345     -241.48844      9917.7566      10.66148     
    141000   1701.4164     -241.848        11152.461      10.569812    
    141500   1367.7816     -240.22104     -4110.225       10.670505    
    142000   1657.3748     -241.89529     -12108.741      10.632715    
    142500   1596.5032     -238.53459      30718.972      10.598085    
    143000   1867.6697     -242.99061      29627.594      10.632658    
    143500   1590.3551     -241.92783      10367.35       10.662033    
    144000   1625.5412     -238.04653      26160.363      10.675064    
    144500   1663.6996     -238.72357      8792.419       10.595837    
    145000   1915.6095     -241.16233      68889.694      10.496949    
    145500   1598.4022     -239.55197      51716.887      10.515029    
    146000   1756.5761     -238.76457      19807.367      10.603557    
    146500   1904.6177     -243.16819      18157.838      10.548375    
    147000   1890.0358     -243.50156      33442.066      10.543296    
    147500   1608.8136     -241.8887       30856.57       10.589674    
    148000   1686.9855     -240.69023      64492.258      10.562165    
    148500   1493.5916     -241.13309     -15998.247      10.669875    
    149000   1608.0149     -238.615        20267.652      10.653737    
    149500   1712.4375     -243.58732      3951.406       10.606321    
    150000   1884.6401     -240.04965      10613.833      10.597197    
    150500   1682.8292     -243.31873      7951.0049      10.584451    
    151000   1813.9622     -242.98109      31999.289      10.610911    
    151500   1599.9895     -243.14238      19488.18       10.606938    
    152000   2055.9779     -241.90284      63849.399      10.592297    
    152500   1435.615      -237.00845     -18244.607      10.75186     
    153000   1846.0316     -243.33799      10412.742      10.596211    
    153500   1984.9672     -241.93221      25196.33       10.606117    
    154000   1969.0836     -244.21726      803.37101      10.592896    
    154500   1493.2693     -242.61701      14566.457      10.557774    
    155000   1498.7486     -246.46817      21034.172      10.647574    
    155500   1328.5453     -239.2993       10289.635      10.652575    
    156000   1438.5278     -238.86096     -35270.948      10.644748    
    156500   1527.726      -240.79089     -8383.9597      10.630192    
    157000   1829.5127     -242.7431       34197.5        10.567496    
    157500   1537.5409     -239.88093      51416.353      10.577994    
    158000   1881.8919     -240.13345     -1569.9483      10.62331     
    158500   1802.6481     -242.98085      18678.5        10.543411    
    159000   1579.6654     -243.66431     -4398.6799      10.617692    
    159500   1761.8372     -240.80404      18524.227      10.614825    
    160000   1755.4209     -243.19893     -26801.705      10.652194    
    160500   1435.0016     -243.16558     -10080.429      10.572793    
    161000   1821.2638     -239.76049     -2003.0373      10.730532    
    161500   1698.8322     -243.22669      14177.154      10.697787    
    162000   1711.5302     -242.17866     -548.26482      10.644607    
    162500   1608.7165     -241.65341      15445.552      10.608725    
    163000   1755.4839     -243.83415      16625.227      10.592889    
    163500   1678.1634     -240.26897     -16141.513      10.713575    
    164000   1941.6522     -244.23889     -14099.574      10.607998    
    164500   1663.6912     -244.2168      -21174.076      10.601048    
    165000   1721.9257     -244.36406      6701.1483      10.576102    
    165500   1910.7182     -243.09507      70.774547      10.617353    
    166000   1870.3203     -243.59705     -763.97642      10.628293    
    166500   1818.5279     -240.14079      7930.7831      10.726005    
    167000   1836.6394     -241.62825     -9720.1553      10.619658    
    167500   1662.5096     -240.53219     -6093.3937      10.697926    
    168000   1730.739      -237.90775      67844.583      10.535633    
    168500   1653.1902     -239.14277     -23427.304      10.592309    
    169000   1484.0672     -240.17594     -2176.3627      10.637426    
    169500   1860.1608     -241.07892      34183.05       10.585353    
    170000   1685.2137     -240.14628      23648.657      10.719643    
    170500   1762.7158     -241.28952     -16899.784      10.71217     
    171000   1690.0031     -239.74457      11317.462      10.619982    
    171500   1671.2374     -239.92224      30747.702      10.585202    
    172000   1729.555      -242.58238     -15742.782      10.610628    
    172500   2034.0263     -240.13964      52797.231      10.56159     
    173000   1307.7677     -242.57989      17455.016      10.595202    
    173500   1582.6417     -240.03799      13933.396      10.56295     
    174000   1679.4205     -238.55637      6832.2284      10.684117    
    174500   1975.4259     -243.62155      5573.2921      10.657905    
    175000   1707.1367     -243.58584      2423.3776      10.654275    
    175500   1332.7131     -236.95155     -44749.609      10.684155    
    176000   1504.3162     -240.79952      6398.2668      10.582478    
    176500   1666.4322     -241.15994      36494.502      10.614642    
    177000   1618.7842     -242.24636      7739.2729      10.676333    
    177500   1452.3534     -239.95451      52112.686      10.599988    
    178000   1556.9068     -240.33045      22455.012      10.649595    
    178500   1615.9937     -241.04554      4863.9228      10.623843    
    179000   2226.335      -240.77108      37475.584      10.638958    
    179500   1884.4609     -240.35549     -3382.1147      10.661642    
    180000   1644.6595     -240.91519      5141.49        10.640847    
    180500   1757.1033     -240.62726      37029.853      10.578331    
    181000   1374.9784     -239.58454     -27757.428      10.732273    
    181500   1755.4655     -239.98309     -143.4691       10.646048    
    182000   1578.2321     -240.18753      18841.683      10.556302    
    182500   1669.3192     -241.27943     -7479.5985      10.671155    
    183000   1580.0902     -242.14327      31787.01       10.560303    
    183500   1584.1487     -243.08707     -1630.8113      10.604574    
    184000   1458.3863     -241.99945      30498.947      10.606959    
    184500   1750.9476     -239.18215      2148.8042      10.673537    
    185000   1500.7438     -241.70361     -8792.5225      10.684288    
    185500   1634.6954     -240.633        64630.359      10.56191     
    186000   1970.6834     -240.58463     -17497.824      10.751602    
    186500   1481.386      -241.88543      36877.085      10.530659    
    187000   1662.9934     -240.90275      23369.085      10.606386    
    187500   2059.8838     -241.67551      39327.759      10.538699    
    188000   1795.1289     -240.77327     -28991.043      10.653912    
    188500   1502.6767     -240.4117       20466.245      10.651768    
    189000   1567.6665     -240.63264     -4324.964       10.668997    
    189500   1850.9147     -242.5786      -5052.2712      10.700565    
    190000   1668.083      -241.75834      20683.029      10.674505    
    190500   2021.0069     -241.82884      23486.857      10.606825    
    191000   1498.2636     -241.17463      22290.436      10.630436    
    191500   2159.8171     -242.48068      5353.97        10.681412    
    192000   1540.0468     -242.24523      8083.6451      10.5897      
    192500   1707.602      -240.19571      4650.0953      10.554938    
    193000   1910.4458     -241.64511     -6384.1393      10.598848    
    193500   1736.4182     -242.29034      3938.1453      10.608386    
    194000   1541.384      -241.57899     -1428.0826      10.579062    
    194500   1588.8646     -242.09006     -24748.599      10.648957    
    195000   1398.5035     -239.18308      29882.244      10.715626    
    195500   1818.2869     -239.99821      20410.305      10.615774    
    196000   1354.9909     -244.27861      5508.4054      10.580801    
    196500   1607.0156     -241.81007     -8301.5689      10.60828     
    197000   1724.0173     -244.68566      39221.472      10.57798     
    197500   1690.1391     -237.44295      43218.949      10.589975    
    198000   1820.6337     -240.07041     -36430.408      10.614769    
    198500   1755.8142     -243.43971      58110.542      10.545896    
    199000   1952.689      -241.06429     -3604.4792      10.649821    
    199500   1840.1217     -242.86109     -2871.0875      10.646744    
    200000   1910.0241     -240.96901      15206.338      10.685966    
    200500   1653.4073     -238.96899     -7413.7562      10.618831    
    201000   1456.169      -240.95696      15483.938      10.612427    
    201500   1893.9149     -241.87162      15386.636      10.582399    
    202000   1840.1672     -242.3213       5974.3026      10.627208    
    202500   1520.658      -237.52264     -3957.1383      10.672335    
    203000   1563.7673     -242.86157      7473.6545      10.584218    
    203500   1603.1802     -239.36537      4510.124       10.609443    
    204000   1535.4493     -240.13054     -38255.557      10.609891    
    204500   1768.292      -242.10739      7783.6077      10.57254     
    205000   1927.476      -244.54213      42670.175      10.601222    
    205500   1703.461      -243.44831     -5293.5981      10.680978    
    206000   1819.1362     -238.69869      19331.72       10.636372    
    206500   1620.7782     -241.74162      8338.1144      10.658572    
    207000   1480.9251     -239.08744     -7702.8816      10.634904    
    207500   1787.2665     -242.67443     -36937.993      10.736948    
    208000   1610.961      -243.64063      7421.0041      10.559083    
    208500   1908.671      -243.93787      25808.133      10.630157    
    209000   1519.4003     -242.77784      39295.141      10.599689    
    209500   1898.9343     -243.68744      4570.446       10.626434    
    210000   1882.5682     -242.12761      38067.889      10.58943     
    210500   1738.4265     -240.92476      13519.582      10.63596     
    211000   1524.6488     -237.32728      16666.895      10.616399    
    211500   1657.0306     -243.48079     -17776.589      10.668403    
    212000   1694.3412     -241.94334      3439.8446      10.57453     
    212500   1604.3123     -241.30973      31430.256      10.551604    
    213000   1682.5169     -241.00271     -41254.742      10.675508    
    213500   1529.9836     -241.89723      17646.672      10.554803    
    214000   1668.45       -242.74001      35064.633      10.517996    
    214500   1594.2841     -240.79245     -304.53485      10.699257    
    215000   1603.3659     -241.1649       26439.127      10.612453    
    215500   1650.4523     -240.36784     -3764.1965      10.592037    
    216000   1872.8572     -240.14161      90318.692      10.490647    
    216500   1757.0008     -239.40865     -10110.804      10.668118    
    217000   1582.073      -241.80588      4091.88        10.621474    
    217500   1618.2491     -238.94324      3949.9016      10.604032    
    218000   1713.7776     -242.83151      6596.4276      10.631875    
    218500   1681.3812     -238.77372     -4121.5976      10.641334    
    219000   1700.8231     -240.58323      17059.156      10.59694     
    219500   1634.3351     -241.29833     -14854.638      10.686031    
    220000   1422.4646     -239.61742      13997.421      10.551052    
    220500   1569.5651     -238.80219      2224.9149      10.595166    
    221000   1935.992      -238.68742      9722.8091      10.599809    
    221500   2076.0406     -241.09483     -10379.011      10.626659    
    222000   1857.9999     -244.29615      8196.624       10.579643    
    222500   1683.7247     -239.72627      36297.374      10.591439    
    223000   1887.961      -240.07241      38984.026      10.523943    
    223500   1457.1261     -237.84542     -27889.772      10.659095    
    224000   1434.6362     -240.66684     -15371.509      10.657752    
    224500   1637.3326     -239.09315     -13392.289      10.629559    
    225000   1258.1178     -243.37711     -2854.4157      10.609358    
    225500   1522.8515     -239.23387      1381.0636      10.587909    
    226000   1822.1103     -240.12795     -47044.061      10.675423    
    226500   1689.1495     -237.77285      6098.4697      10.639446    
    227000   1468.5968     -241.04246      38869.202      10.566878    
    227500   1776.9001     -240.04635     -14395.575      10.633698    
    228000   1809.0448     -242.37398      28352.801      10.577769    
    228500   1780.9244     -238.59288     -35473.088      10.688111    
    229000   1741.2413     -241.58446     -2891.7317      10.609321    
    229500   1580.7738     -241.12107     -19545.251      10.683236    
    230000   1651.9724     -239.10128      15526.798      10.610218    
    230500   2103.8344     -241.96372      41050.732      10.62142     
    231000   1601.533      -245.58644      24870.86       10.572956    
    231500   1953.8141     -240.12997      35353.153      10.577647    
    232000   1603.2336     -242.16371      3575.9602      10.608947    
    232500   1497.1644     -241.64891      10540.838      10.571924    
    233000   1753.385      -240.34984      22465.031      10.606591    
    233500   1630.0138     -240.73964     -49312.998      10.70203     
    234000   1506.8422     -244.87044      1427.8901      10.655039    
    234500   1808.1892     -240.46997      16887.387      10.628622    
    235000   1873.3771     -242.12871      21867.094      10.566573    
    235500   1360.6231     -242.01419     -1734.7201      10.634243    
    236000   1547.4569     -240.06755      20559.027      10.619642    
    236500   1836.3956     -243.01636      991.07813      10.62403     
    237000   1722.2805     -240.18478      19027.354      10.554259    
    237500   1446.9242     -241.73368     -2052.747       10.690236    
    238000   1671.9483     -242.9473       36316.517      10.558805    
    238500   1415.9732     -243.14577      37254.357      10.525798    
    239000   1655.9424     -241.60449      43692.524      10.678698    
    239500   2057.8267     -241.98273      31619.403      10.600527    
    240000   1755.9862     -241.10543      22468.119      10.523396    
    240500   1433.683      -241.52125      6962.6908      10.578417    
    241000   1718.4621     -241.67286      23907.883      10.58652     
    241500   1738.6592     -242.65715      14532.299      10.624386    
    242000   1533.1155     -238.80926      4828.2627      10.720739    
    242500   1659.551      -242.59557      7901.8893      10.588041    
    243000   1558.3262     -242.64404     -5209.3871      10.596773    
    243500   1713.1566     -241.85611      24647.734      10.596845    
    244000   1714.4538     -240.34518      17878.842      10.632701    
    244500   1596.4767     -244.04029     -21287.351      10.710391    
    245000   1672.5626     -242.47947      2698.1822      10.665918    
    245500   1637.9818     -241.98531      3457.9091      10.632672    
    246000   1618.885      -241.86625      26784.144      10.60374     
    246500   2001.9179     -242.61215      17692.283      10.665585    
    247000   1659.2425     -241.04672      10789.55       10.642495    
    247500   1937.7153     -242.22253      10800.401      10.579041    
    248000   1656.0595     -243.32379     -11600.314      10.665703    
    248500   1750.8461     -241.19605      41121.423      10.589685    
    249000   1622.3676     -238.10383     -763.7295       10.631329    
    249500   1798.737      -242.77573      35284.942      10.515953    
    250000   1638.7445     -241.34422      7513.0931      10.636066    
    250500   1865.5686     -241.20843      10342.352      10.693753    
    251000   1707.8071     -238.8063       832.2564       10.604756    
    251500   1745.7224     -241.99192      23625.475      10.570766    
    252000   1506.2934     -240.21527      2635.2257      10.606265    
    252500   1581.6394     -238.7608       39475.715      10.588002    
    253000   1541.0388     -241.06274     -15996.965      10.612417    
    253500   1547.4296     -245.78942     -10434.295      10.614319    
    254000   1839.723      -238.71834      18975.291      10.59932     
    254500   1771.5114     -239.76684     -14214.192      10.718169    
    255000   1731.7821     -243.7603       45268.904      10.561743    
    255500   1503.1255     -241.64264      12481.775      10.561132    
    256000   1525.5729     -240.95672      26359.147      10.562708    
    256500   1899.9128     -241.0212      -16713.639      10.569753    
    257000   1461.0385     -237.7037      -6484.8422      10.624005    
    257500   1701.0724     -242.34021      8890.8478      10.654315    
    258000   1415.0805     -243.16989     -50418.385      10.684039    
    258500   1866.658      -241.93217      21072.873      10.697945    
    259000   1903.7267     -245.1702       22913.187      10.683439    
    259500   1782.6739     -245.67326      8664.4979      10.652527    
    260000   1568.0591     -241.04276      4858.0819      10.627359    
    260500   1620.4712     -240.28659      27631.754      10.590319    
    261000   1734.0779     -242.28814     -221.20348      10.593772    
    261500   1721.597      -238.81593      33200.015      10.618107    
    262000   1863.4742     -243.87254      12631.103      10.664934    
    262500   1662.1896     -241.9807      -9066.0885      10.617927    
    263000   1802.1745     -243.38738      8685.9411      10.607327    
    263500   1953.9212     -243.85577      28740.455      10.58657     
    264000   1602.9631     -244.56906      16909.174      10.549368    
    264500   1641.1609     -239.32844      18353.26       10.548383    
    265000   1264.3335     -245.72966      8480.5566      10.628024    
    265500   1465.5867     -243.30841     -3053.6626      10.6736      
    266000   1815.8454     -241.77948      22483.408      10.636389    
    266500   1471.0528     -238.83718     -21861.382      10.664322    
    267000   1635.9911     -243.08768      36945.039      10.50495     
    267500   1574.5067     -242.09978     -17442.809      10.665243    
    268000   1712.1875     -243.20131      17202.856      10.616251    
    268500   1473.6761     -237.2186      -13279.695      10.674206    
    269000   1720.4778     -243.09127      841.16519      10.602085    
    269500   1667.8724     -242.75387      49746.175      10.546222    
    270000   1787.1047     -242.00637     -16486.754      10.65527     
    270500   1865.244      -240.72736      7884.0192      10.632003    
    271000   1335.1351     -242.1334       15532.759      10.569156    
    271500   1925.4959     -241.31649      1603.4268      10.668076    
    272000   1641.4959     -240.14406      53306.67       10.562145    
    272500   1748.4515     -240.43573     -6549.4875      10.686018    
    273000   1804.7337     -240.74439      28299.703      10.5803      
    273500   1390.7133     -240.63514      22987.763      10.625651    
    274000   1565.6736     -237.72289      46498.4        10.582336    
    274500   1796.5053     -243.60014      35351.202      10.541693    
    275000   2037.6564     -241.57929      35833.923      10.539262    
    275500   1662.9925     -241.2862      -19424.398      10.725122    
    276000   1917.8762     -238.41966     -3344.7327      10.728897    
    276500   1703.1147     -241.89305     -4919.8583      10.728206    
    277000   1429.1488     -239.77521     -14292.213      10.622785    
    277500   1485.186      -243.05714      567.40925      10.634986    
    278000   1825.7319     -240.78162      9819.8643      10.568609    
    278500   1873.6721     -241.39453     -12602.095      10.709055    
    279000   1695.0491     -245.29658      15360.317      10.561881    
    279500   1529.0809     -240.54206     -8104.848       10.614719    
    280000   1841.4024     -240.52861      3818.7281      10.572847    
    280500   1514.9309     -242.35042      23656.976      10.612829    
    281000   1739.3871     -239.91257     -4331.5155      10.608476    
    281500   1910.3719     -243.25783      43408.145      10.588382    
    282000   1519.6194     -243.61318      7309.3526      10.629394    
    282500   1523.9315     -242.76882      20337.13       10.612228    
    283000   1915.4574     -241.26731      30788.567      10.571258    
    283500   2008.8216     -236.27395      23514.133      10.639744    
    284000   1740.3683     -241.98754      19964.188      10.579565    
    284500   1777.3937     -243.31902     -11509.445      10.626731    
    285000   1607.9456     -238.98457     -3567.7787      10.639101    
    285500   1876.7187     -239.47546      5994.009       10.611663    
    286000   1604.8576     -244.29767     -1801.1843      10.594315    
    286500   1702.0191     -241.20802      2343.1479      10.598738    
    287000   1664.0084     -241.97995     -927.37109      10.625248    
    287500   1590.4788     -241.70301      22648.392      10.729726    
    288000   1937.1337     -241.96908     -8256.6337      10.684852    
    288500   1796.9789     -237.95145      11401.019      10.586016    
    289000   1661.7888     -242.11414      19199.376      10.678637    
    289500   1563.5131     -241.8695      -1984.1059      10.612143    
    290000   1946.9644     -240.70416      21769.001      10.588569    
    290500   1674.5054     -240.3989       42161.378      10.607805    
    291000   1753.4321     -239.54258      1387.7003      10.629098    
    291500   1742.3664     -240.44833     -10384.516      10.632101    
    292000   1575.9471     -241.01376      28042.378      10.593978    
    292500   1476.2082     -243.25539      5100.1116      10.577383    
    293000   1591.2862     -240.77138      50303.069      10.553957    
    293500   1554.2256     -241.12486     -35910.689      10.765221    
    294000   2047.0887     -239.26698      23195.413      10.565723    
    294500   1973.5573     -240.78743      19537.351      10.608313    
    295000   1733.2685     -242.54549     -9764.684       10.567618    
    295500   1483.1735     -240.46595     -16879.609      10.562798    
    296000   1880.2778     -240.99525      53446.257      10.567048    
    296500   1649.1507     -242.91209      19625.686      10.604586    
    297000   1607.5911     -241.35412      1968.6804      10.579113    
    297500   1891.4981     -241.48907      4554.7053      10.649355    
    298000   1896.4327     -240.28717     -23021.924      10.613595    
    298500   1418.1299     -242.43768      34678.096      10.56971     
    299000   1503.9798     -242.011       -11748.119      10.567114    
    299500   1713.853      -243.80872      3619.6689      10.562881    
    300000   1894.7524     -241.21436      49303.475      10.541507    
    300500   1820.327      -243.22025      24779.22       10.528954    
    301000   1896.8633     -241.67921     -42664.615      10.685563    
    301500   1620.7106     -236.87747      24839.709      10.688166    
    302000   1657.4176     -240.81324      54808.024      10.545983    
    302500   1910.4567     -241.56095     -20422.478      10.608278    
    303000   1669.2506     -242.92003      15671.108      10.608681    
    303500   1994.7631     -241.45155      18117.197      10.543567    
    304000   1645.8062     -240.59793      3110.7365      10.740694    
    304500   1824.7559     -241.90221      14382.581      10.623223    
    305000   1746.3846     -238.99049      5560.0473      10.63026     
    305500   1672.1224     -241.3892       17839.106      10.600363    
    306000   1573.0413     -243.7823       22110.87       10.48295     
    306500   1727.7525     -240.40593     -5160.3469      10.576664    
    307000   1720.4624     -242.02226      30725.732      10.54572     
    307500   1778.76       -242.37088     -20158.357      10.644307    
    308000   1711.3934     -241.35186      7086.3698      10.615597    
    308500   1722.7786     -236.28904      14085.072      10.636846    
    309000   1532.9089     -242.32476     -18599.479      10.683454    
    309500   1703.2901     -243.39578      5908.0103      10.624815    
    310000   1868.8118     -242.75303      59605.152      10.509673    
    310500   1704.0132     -243.38193      20873.94       10.543265    
    311000   1747.6194     -239.37251      2624.2641      10.636468    
    311500   1525.8104     -240.16091     -1349.8442      10.678877    
    312000   1583.1354     -239.96326     -26582.254      10.718172    
    312500   1875.0546     -238.65897     -8761.8352      10.632713    
    313000   1644.7638     -238.76699      17577.15       10.616177    
    313500   1357.0232     -242.8249       36003.267      10.602645    
    314000   1688.4934     -240.5393       45917.448      10.575571    
    314500   1517.7448     -238.01405     -8210.3821      10.64367     
    315000   1263.0656     -238.25452      38305.614      10.587308    
    315500   1571.3098     -241.05169      13977.084      10.561808    
    316000   1316.6832     -240.82843     -3227.566       10.59215     
    316500   1370.1469     -241.96071      42504.124      10.591868    
    317000   1403.3544     -239.41997      5906.8994      10.634053    
    317500   1743.3897     -241.68942      46536.238      10.615263    
    318000   1952.9932     -241.25538      172.7351       10.607682    
    318500   1444.7047     -242.63903      21107.166      10.619186    
    319000   2146.7053     -242.1678       10590.702      10.580841    
    319500   1637.8898     -241.26374      11974.683      10.597989    
    320000   1919.0343     -240.49374      2101.7226      10.60098     
    320500   1988.0758     -240.35283      33867.337      10.587212    
    321000   1964.1883     -240.45675     -19253.232      10.596983    
    321500   1954.6161     -245.28878     -8156.02        10.670027    
    322000   1884.4763     -238.41844     -305.32512      10.674072    
    322500   1640.6462     -241.55709     -2529.701       10.643359    
    323000   1725.4959     -241.07035     -877.97137      10.629189    
    323500   1875.3473     -236.00406      19027.582      10.606821    
    324000   1524.6153     -243.21785      38239.993      10.59468     
    324500   1575.5085     -240.87053      4421.019       10.662012    
    325000   1840.6959     -241.40207      21846.752      10.586849    
    325500   1540.4857     -243.08166      12438.831      10.593841    
    326000   1607.1142     -239.25794      40960.771      10.578248    
    326500   1700.5315     -241.89473     -7648.2238      10.653778    
    327000   1794.4444     -239.29403      42850.222      10.586675    
    327500   1345.7019     -240.95577      40162.209      10.572535    
    328000   1806.7003     -240.78994      12290.773      10.599057    
    328500   1622.0226     -245.38435      14653.524      10.677167    
    329000   1928.4104     -239.55558     -40513.98       10.727661    
    329500   1833.4603     -239.53956      35865.683      10.571489    
    330000   1932.5161     -238.37176      45640.486      10.577068    
    330500   1609.7469     -241.4535       52429.883      10.516631    
    331000   1700.015      -239.26294     -24206.111      10.635045    
    331500   1634.6742     -239.66219     -28832.343      10.578752    
    332000   1741.9934     -240.3016       17994.984      10.597944    
    332500   1804.2231     -240.9964      -12474.455      10.681688    
    333000   1636.1349     -242.09262      20726.772      10.539692    
    333500   1713.4089     -241.1789       30706.169      10.55659     
    334000   2012.3557     -240.20123     -6205.0799      10.645383    
    334500   1633.666      -239.93424     -11027.538      10.681148    
    335000   1417.2921     -244.06353      24721.219      10.536114    
    335500   2067.2846     -240.15996      35326.195      10.579159    
    336000   1666.2178     -239.31294      58209.043      10.582588    
    336500   1427.7824     -241.82147     -11381.718      10.629412    
    337000   1613.0312     -244.82841      24049.053      10.551863    
    337500   1543.1079     -240.52669      27969.935      10.580928    
    338000   1832.9621     -239.26547     -134.6717       10.642628    
    338500   1779.811      -241.35897      8095.7631      10.666262    
    339000   1361.251      -241.30267      13439.678      10.581973    
    339500   1812.8993     -239.48532      21739.282      10.568638    
    340000   1846.6347     -240.0425       1047.0524      10.626702    
    340500   1798.4968     -243.13985      15667.59       10.622621    
    341000   1535.9698     -241.35805      1627.3974      10.791328    
    341500   1893.3125     -241.15404      46782.908      10.559592    
    342000   1956.5446     -245.20325      16948.861      10.61513     
    342500   1635.9993     -244.60655      12353.996      10.627966    
    343000   1782.1547     -237.77473      22453.94       10.616135    
    343500   1574.9592     -242.90097     -18316.888      10.667992    
    344000   1378.6052     -243.00167      8966.7984      10.66537     
    344500   1886.6814     -238.35616     -10295.372      10.709357    
    345000   1593.6937     -240.90109     -12159.895      10.684245    
    345500   1854.7713     -241.60945      33914.238      10.60868     
    346000   1760.9479     -242.38446     -7316.8786      10.659259    
    346500   1909.5262     -242.08614      24961.383      10.586799    
    347000   1824.5565     -243.72715     -6680.4555      10.684466    
    347500   1451.222      -239.18927      13257.357      10.693327    
    348000   1719.2184     -241.18232     -23604.84       10.632317    
    348500   1925.4047     -239.69189      23630.365      10.558309    
    349000   1780.2735     -242.24495      9379.4334      10.706906    
    349500   1543.5367     -241.0134      -18536.281      10.69683     
    350000   1823.6729     -239.77897     -10859.293      10.625806    
    350500   1660.6071     -241.25153      27076.275      10.568243    
    351000   1970.0794     -237.83784      2137.8856      10.722419    
    351500   1579.1421     -242.3235       28576.781      10.581426    
    352000   2018.7467     -240.7335       6842.1402      10.613951    
    352500   1659.0312     -243.5454       18462.253      10.633485    
    353000   1480.7735     -241.54004      58274.339      10.556185    
    353500   1339.1248     -239.00752      14327.368      10.616313    
    354000   1881.9181     -240.35998      12050.575      10.595305    
    354500   1626.851      -239.67556     -31490.887      10.70202     
    355000   1770.8014     -242.97781      24208.81       10.527628    
    355500   1680.3295     -237.70052     -12632.969      10.657623    
    356000   2038          -243.31677      44450.252      10.612271    
    356500   1691.9165     -242.34505      10233.038      10.644511    
    357000   1738.6226     -242.51011     -8514.7771      10.553599    
    357500   1703.5019     -239.01289      28012.652      10.642744    
    358000   2131.3546     -244.88012      44263.275      10.522005    
    358500   1818.8244     -240.30723      17883.064      10.616011    
    359000   1593.5748     -242.45838      8157.4221      10.704455    
    359500   1605.3803     -239.1861       26189.699      10.653315    
    360000   1800.6479     -244.25389     -10981.402      10.651238    
    360500   1274.5908     -240.99397      8664.2252      10.607414    
    361000   1558.2969     -241.35312     -6037.4509      10.645251    
    361500   1571.1068     -239.72123      30902.42       10.590987    
    362000   1622.654      -242.62032     -46116.907      10.613342    
    362500   1463.7859     -241.64856      26850.381      10.555145    
    363000   1767.1965     -242.80188      11991.103      10.626683    
    363500   1492.1152     -242.22432      7984.4539      10.618769    
    364000   1915.1447     -239.1699      -11303.05       10.661952    
    364500   1760.0901     -243.23165      8278.786       10.579342    
    365000   1499.4613     -240.3797       3565.2383      10.598969    
    365500   1769.3974     -241.076        25784.197      10.567616    
    366000   1745.4596     -242.50179      19317.067      10.580173    
    366500   1969.9923     -243.45901     -17182.353      10.665533    
    367000   1636.2959     -241.16489     -1255.2031      10.620698    
    367500   1623.6594     -242.11393      7214.3572      10.650156    
    368000   2013.426      -239.22385      11549.269      10.651583    
    368500   1839.3097     -239.65598     -5044.3208      10.668859    
    369000   1763.5581     -242.8333       25209.255      10.584272    
    369500   1969.0284     -243.19791      14286.495      10.598874    
    370000   1638.8401     -239.93981     -20677.143      10.625808    
    370500   1685.7095     -244.327       -2924.9495      10.628822    
    371000   1891.7742     -239.44265      10999.612      10.655397    
    371500   1722.768      -240.85092     -18524.024      10.615343    
    372000   1634.4083     -241.28341      39798.554      10.608829    
    372500   1354.666      -243.06143     -19020.168      10.734023    
    373000   1678.054      -240.95248      23655.075      10.620055    
    373500   1897.5994     -243.40651      22785.837      10.612329    
    374000   1566.4024     -240.33333     -18828.613      10.650856    
    374500   1545.3551     -239.18869     -13737.939      10.647031    
    375000   1736.5842     -244.0349      -120.32137      10.596052    
    375500   1422.0837     -242.32609      26358.663      10.605213    
    376000   1715.6928     -238.70234      28286.313      10.552261    
    376500   1753.7285     -240.27818      7592.7757      10.626509    
    377000   1766.4754     -242.21103      1848.3514      10.665296    
    377500   1780.1295     -241.5419       3606.0959      10.623526    
    378000   1535.881      -241.03016     -14220.614      10.555872    
    378500   1742.8725     -244.25386      4238.9104      10.649714    
    379000   1784.9112     -243.55777      67880.747      10.497787    
    379500   1626.4336     -239.44401      21222.167      10.57855     
    380000   1591.352      -245.52598      10795.199      10.713864    
    380500   1919.5236     -240.23839     -7789.3082      10.689139    
    381000   1623.6151     -241.08979     -28441.399      10.634761    
    381500   1636.7994     -244.00229      32739.904      10.528951    
    382000   1563.0743     -242.73779      41901.639      10.532579    
    382500   1823.1782     -239.72237     -18208.584      10.624428    
    383000   1799.2524     -239.29443     -21827.337      10.679135    
    383500   1496.717      -242.65804      16825.429      10.579966    
    384000   1684.7599     -239.8826       6999.6367      10.710566    
    384500   1738.6318     -240.48961     -3832.9097      10.602384    
    385000   1742.8        -240.674       -6072.494       10.667608    
    385500   1900.0461     -240.73284      9070.6994      10.612734    
    386000   1637.1856     -239.65215     -8425.9758      10.720363    
    386500   1788.4612     -241.51919     -7788.1102      10.683405    
    387000   2017.7884     -239.83974      601.17517      10.668524    
    387500   1639.8976     -239.50626      17593.013      10.545598    
    388000   1646.5865     -240.03916      39497.219      10.581357    
    388500   1682.6876     -239.08808     -1755.3529      10.650842    
    389000   1685.2143     -242.55806     -18703.127      10.605765    
    389500   1492.8061     -240.4278       18497.628      10.640688    
    390000   1686.7207     -243.40413     -3698.2548      10.699143    
    390500   1577.3986     -241.74666      32096.536      10.591165    
    391000   2046.4718     -245.10395     -12913.652      10.630872    
    391500   1828.8754     -241.61574      39323.426      10.635173    
    392000   1858.7407     -243.1264      -2532.1378      10.637368    
    392500   1668.1299     -241.90503      14146.412      10.652643    
    393000   1919.6805     -240.95179      36979.708      10.566716    
    393500   1534.3458     -243.59835     -8261.8253      10.652584    
    394000   1584.4671     -241.82004     -267.45282      10.600449    
    394500   1755.9814     -241.79798      48669.856      10.518543    
    395000   1734.9811     -242.85133      24250.333      10.563083    
    395500   1552.3017     -241.89011      16107.589      10.595337    
    396000   1531.423      -240.36845      7967.606       10.591067    
    396500   1619.9913     -240.14351     -22401.72       10.705379    
    397000   1749.3163     -241.39652      32432.598      10.584796    
    397500   1490.3149     -241.27025      43382.538      10.581573    
    398000   1586.2513     -239.53243      1818.5247      10.679417    
    398500   1739.8396     -243.39388      8631.6473      10.672469    
    399000   1787.6708     -240.43255     -24504.832      10.639411    
    399500   1580.8253     -240.39912      10780.971      10.614888    
    400000   1685.7419     -241.31512      68139.015      10.561424    
    400500   1505.8291     -242.45978      28437.972      10.606849    
    401000   2067.6973     -240.01912     -32668.193      10.800764    
    401500   1853.0087     -243.02156      10384.039      10.594074    
    402000   1523.4516     -242.40633     -5040.968       10.633403    
    402500   1819.3573     -240.20825      44010.335      10.650404    
    403000   1839.9347     -241.19324      20839.485      10.631499    
    403500   1848.9092     -243.54394     -12738.351      10.735762    
    404000   1743.2257     -241.21457     -2099.8115      10.661324    
    404500   1595.6947     -240.35282      36982.273      10.509732    
    405000   1705.8423     -242.12591      30272.766      10.58013     
    405500   1790.706      -245.02016      21699.246      10.497596    
    406000   1381.8792     -242.24684     -9726.3022      10.748717    
    406500   1550.8222     -242.07425      13911.4        10.651176    
    407000   1461.6328     -241.65975     -25638.526      10.647024    
    407500   1729.8823     -241.66977     -10435.859      10.654583    
    408000   1743.2374     -243.11317     -8956.5049      10.610071    
    408500   1792.9205     -242.34012      25469.769      10.603357    
    409000   1557.7903     -242.56218     -15647.419      10.58763     
    409500   1401.5013     -242.58778     -3263.0678      10.602065    
    410000   1514.467      -239.63652     -6418.1325      10.612782    
    410500   1397.1387     -240.2158       28811.938      10.577405    
    411000   1528.3129     -238.11846      7685.8047      10.707322    
    411500   1803.588      -240.75126      22996.782      10.671515    
    412000   1825.7895     -242.73601     -6107.4962      10.624469    
    412500   1676.5599     -241.36721     -17189.709      10.589249    
    413000   1869.4814     -243.174        41026.022      10.532508    
    413500   1664.2551     -238.84538      50710.948      10.593092    
    414000   1525.2752     -243.18626     -6625.8493      10.616233    
    414500   1554.3432     -242.86427      27662.228      10.651303    
    415000   1733.6627     -242.86393      45309.136      10.549262    
    415500   1584.4981     -242.45872      24118.476      10.620753    
    416000   1692.506      -241.73612      38785.652      10.631294    
    416500   1363.313      -240.7204       29068.844      10.683467    
    417000   1762.47       -240.45414      23231.551      10.723828    
    417500   1745.3464     -240.92317      6979.8481      10.660182    
    418000   1648.3887     -238.03767     -45.529084      10.700542    
    418500   1786.7664     -240.54213      32235.469      10.581289    
    419000   1400.5464     -243.48035      2365.9871      10.616678    
    419500   1693.7295     -241.43431      57938.03       10.562007    
    420000   1565.8192     -236.92227      16036.712      10.635199    
    420500   1754.6871     -239.67947      40681.573      10.533266    
    421000   1780.0807     -243.60676      43179.969      10.540969    
    421500   1808.04       -243.85377      1080.9532      10.662024    
    422000   1734.9314     -240.46325      38777.052      10.543413    
    422500   2062.191      -241.92721      1752.9456      10.685916    
    423000   2109.2806     -239.15371      33011.202      10.54868     
    423500   1713.3266     -242.17611      49142.342      10.554917    
    424000   2200.2253     -242.83014      4960.6359      10.653047    
    424500   1488.7254     -240.76066     -24166.813      10.667833    
    425000   1654.3185     -243.78465      9429.5909      10.679713    
    425500   1633.8964     -239.23422     -21681.911      10.675672    
    426000   1776.4528     -244.5848       20790.011      10.600906    
    426500   1703.5901     -240.75047      12655.517      10.652795    
    427000   1764.3071     -239.23927      52966.731      10.544061    
    427500   1790.3774     -238.46697      36982.381      10.67094     
    428000   1726.3565     -240.96579      9129.7865      10.617796    
    428500   1586.8686     -243.74424      16527.335      10.592036    
    429000   1826.1554     -243.89742      4234.2962      10.685471    
    429500   1606.3234     -242.71563      943.62117      10.604502    
    430000   1463.991      -239.57781      8551.0285      10.582877    
    430500   1578.8933     -239.18809     -8901.962       10.666061    
    431000   1855.5083     -242.0835       40713.83       10.562523    
    431500   1827.7727     -240.62838      19982.138      10.609079    
    432000   1584.4715     -239.84359      21266.063      10.670134    
    432500   1917.1942     -238.20504      52247.227      10.604128    
    433000   1556.6562     -240.40171      54662.154      10.645522    
    433500   1915.9995     -240.60917     -612.42335      10.63224     
    434000   1611.2265     -242.85617      27632.659      10.593628    
    434500   1566.288      -241.13804      41372.285      10.582056    
    435000   1856.0317     -240.9929       10765.361      10.663493    
    435500   1503.9658     -242.22419      37296.176      10.57646     
    436000   1460.4937     -239.42711     -13518.937      10.646601    
    436500   1911.9075     -242.08038     -2655.3455      10.608372    
    437000   1573.5169     -240.37052      19239.967      10.595717    
    437500   1676.6499     -239.05433      34362.945      10.570935    
    438000   1841.0909     -238.51737      6156.9402      10.579606    
    438500   1454.7445     -240.33081     -6849.3889      10.601848    
    439000   1548.3391     -240.43633      22723.523      10.530372    
    439500   1449.056      -243.88814      22389.069      10.605721    
    440000   1577.0271     -243.88307      4841.4073      10.582056    
    440500   1607.3123     -241.0691       28262.34       10.575694    
    441000   1567.3491     -240.58313      17796.025      10.599668    
    441500   1747.1423     -239.61931     -17109.438      10.700027    
    442000   1683.8684     -240.40036      36042.386      10.607988    
    442500   1465.7161     -240.66405     -34637.241      10.655699    
    443000   1838.4545     -242.55103      28678.563      10.680791    
    443500   1806.0294     -241.38774     -1460.3403      10.760098    
    444000   1509.4486     -240.22735      6346.6309      10.613793    
    444500   1575.8297     -243.70256      21067.023      10.58323     
    445000   1754.2413     -239.16856     -15261.615      10.652877    
    445500   1531.6176     -241.9593      -14885.97       10.651171    
    446000   1410.9173     -239.9022       28891.153      10.626736    
    446500   1851.5997     -244.12027     -2371.9366      10.594143    
    447000   1879.8627     -238.51169      29671.56       10.592925    
    447500   1622.0377     -241.84788      39247.78       10.557399    
    448000   1656.7744     -242.63209     -19235.452      10.679311    
    448500   2260.3165     -242.27701     -26183.457      10.641584    
    449000   1961.631      -243.32292      30422.013      10.6002      
    449500   1742.8315     -241.90149     -23981.824      10.682703    
    450000   1734.2917     -240.89444      42255.239      10.572458    
    450500   1900.7027     -240.07355      16245.229      10.645331    
    451000   1875.4239     -241.81876      11292.205      10.560057    
    451500   1704.5261     -241.01816      24246.814      10.563401    
    452000   1593.9751     -242.62461     -18268.568      10.660643    
    452500   1690.0444     -241.68346      6022.0944      10.60921     
    453000   1556.2585     -240.94403      27459.77       10.573105    
    453500   1784.4053     -241.0611       30271.897      10.561338    
    454000   1403.6707     -242.97664     -1799.0142      10.591141    
    454500   1885.046      -241.21379      9054.179       10.616882    
    455000   1717.9864     -240.25092      22373.119      10.593961    
    455500   1557.9925     -240.67198     -33870.76       10.692511    
    456000   1499.4288     -240.28533      20021.887      10.541251    
    456500   1775.0178     -240.57808      5543.4567      10.666837    
    457000   1432.145      -241.73502      19830.055      10.643447    
    457500   1881.9775     -239.78537      20230.578      10.616887    
    458000   1939.3651     -240.70029      5051.2327      10.658206    
    458500   1648.4374     -241.96874      23402.551      10.539035    
    459000   1726.5168     -242.85125      25441.43       10.628949    
    459500   1630.6341     -243.16215      8389.6385      10.59074     
    460000   1506.207      -241.67828      1712.0389      10.599563    
    460500   1903.2601     -241.40672     -7619.8249      10.681019    
    461000   1809.3818     -243.8659       3639.2263      10.627107    
    461500   1726.0048     -241.0544      -24850.144      10.684367    
    462000   1593.1313     -242.67261      5709.4752      10.685584    
    462500   1870.1537     -240.26609     -6056.8452      10.628901    
    463000   2049.066      -241.69577      449.21979      10.687667    
    463500   1607.0546     -237.72345      21767.774      10.614265    
    464000   1443.9301     -241.58298     -37418.643      10.733993    
    464500   1737.249      -243.52188      39014.89       10.607255    
    465000   1624.2321     -238.93226      27173.882      10.572897    
    465500   1740.5953     -242.75032      27179.514      10.559479    
    466000   2188.6846     -241.00518      16572.755      10.678694    
    466500   2031.9843     -240.61456     -7790.67        10.647245    
    467000   1297.6396     -239.788       -471.7465       10.631835    
    467500   2179.908      -240.18058      28592.47       10.582101    
    468000   1694.0375     -241.20852      13136.22       10.57186     
    468500   1644.0185     -240.76107      36684.393      10.60185     
    469000   1647.9881     -244.34128      5064.2208      10.638193    
    469500   1594.1687     -238.82574     -6734.2345      10.652886    
    470000   1799.7001     -241.12869      34746.809      10.488162    
    470500   1682.5493     -240.09757     -24651.492      10.661589    
    471000   1808.9159     -245.52059      28398.453      10.557585    
    471500   1390.5973     -240.53993     -1675.9172      10.608268    
    472000   1888.4786     -242.83698     -1382.6557      10.664855    
    472500   1736.2399     -243.90354      50082.435      10.548011    
    473000   1983.4593     -243.13465      53506.656      10.560364    
    473500   2135.7288     -239.55125      27670.076      10.634797    
    474000   1741.9509     -240.09878     -16297.323      10.706854    
    474500   2083.9221     -240.1242       7371.5973      10.665701    
    475000   1826.9656     -239.08009     -12274.541      10.640165    
    475500   1605.6396     -242.08605      17810.703      10.615489    
    476000   1718.8298     -239.41292      16831.139      10.595919    
    476500   1522.361      -242.97767     -33561.255      10.640038    
    477000   1766.1466     -242.42832      14029.956      10.659625    
    477500   1970.0521     -242.79456      35100.262      10.605389    
    478000   1471.031      -238.66538     -3247.4916      10.63762     
    478500   1652.9335     -239.56966      5848.9997      10.552295    
    479000   1943.8795     -240.96681      18516.838      10.586018    
    479500   1770.0228     -240.79077      28202.651      10.61484     
    480000   1751.0738     -243.57561      2900.2669      10.664812    
    480500   1575.5446     -241.41643     -10753.873      10.626305    
    481000   1595.8929     -242.74467     -1508.9179      10.584427    
    481500   1566.4827     -239.9638       23114.338      10.560218    
    482000   1693.7422     -241.4056       1408.2748      10.611114    
    482500   1833.6031     -242.34747      40610.263      10.606562    
    483000   1495.7981     -242.80482     -69.92768       10.532259    
    483500   1662.9475     -240.56888     -15309.287      10.685722    
    484000   1385.711      -241.47055      2719.7396      10.634691    
    484500   1659.283      -241.45729      35125.187      10.619501    
    485000   2171.5622     -239.88356      41492.761      10.639569    
    485500   1732.4201     -244.06105     -15330.281      10.62844     
    486000   1743.0123     -242.84618     -9935.679       10.643507    
    486500   1402.3434     -240.12416     -11930.192      10.602095    
    487000   1568.4106     -240.464        36562.336      10.566714    
    487500   1500.2301     -241.69         7885.4613      10.620048    
    488000   1652.7026     -237.50605     -23889.644      10.647871    
    488500   1577.1051     -239.80792      28565.934      10.523104    
    489000   1567.9773     -239.67381      6421.7116      10.670492    
    489500   1545.4092     -240.67004      28932.146      10.602662    
    490000   1651.8232     -239.87826      17534.148      10.622784    
    490500   1643.5707     -244.19411     -20353.634      10.650905    
    491000   1539.7933     -239.20509      51624.557      10.556982    
    491500   1784.1137     -242.51956     -15881.31       10.69262     
    492000   1774.7635     -241.57449      41230.115      10.576451    
    492500   1555.4052     -240.83909     -614.81201      10.629484    
    493000   1488.131      -242.97052      648.15572      10.532717    
    493500   1702.5755     -242.12602      17065.47       10.591613    
    494000   1676.8052     -241.03812      8314.0981      10.59311     
    494500   1832.7778     -239.98311      6990.288       10.619257    
    495000   1514.5081     -241.38631     -4873.4542      10.617396    
    495500   1537.5964     -239.30648     -1831.4203      10.629281    
    496000   1833.589      -241.2489      -1571.5941      10.566897    
    496500   1393.078      -238.62506      52475.914      10.587127    
    497000   1781.6179     -242.26996     -30540.784      10.666223    
    497500   1816.0942     -243.96186      47474.636      10.552322    
    498000   1576.9596     -241.1991       27032.392      10.640326    
    498500   1583.6532     -242.33472      9105.7328      10.632767    
    499000   1695.1311     -243.92972     -14994.435      10.654122    
    499500   2082.7953     -240.64078      23434.86       10.673268    
    500000   1708.8768     -241.11266     -23648.717      10.654898    
Loop time of 147.472 on 1 procs for 500000 steps with 64 atoms

Performance: 585.875 ns/day, 0.041 hours/ns, 3390.479 timesteps/s
98.9% CPU use with 1 MPI tasks x 1 OpenMP threads

MPI task timing breakdown:
Section |  min time  |  avg time  |  max time  |%varavg| %total
---------------------------------------------------------------
Pair    | 140.79     | 140.79     | 140.79     |   0.0 | 95.47
Bond    | 0.11317    | 0.11317    | 0.11317    |   0.0 |  0.08
Neigh   | 2.4961     | 2.4961     | 2.4961     |   0.0 |  1.69
Comm    | 1.2768     | 1.2768     | 1.2768     |   0.0 |  0.87
Output  | 0.54026    | 0.54026    | 0.54026    |   0.0 |  0.37
Modify  | 1.7862     | 1.7862     | 1.7862     |   0.0 |  1.21
Other   |            | 0.4742     |            |       |  0.32

Nlocal:             64 ave          64 max          64 min
Histogram: 1 0 0 0 0 0 0 0 0 0
Nghost:            510 ave         510 max         510 min
Histogram: 1 0 0 0 0 0 0 0 0 0
Neighs:              0 ave           0 max           0 min
Histogram: 1 0 0 0 0 0 0 0 0 0
FullNghs:         2632 ave        2632 max        2632 min
Histogram: 1 0 0 0 0 0 0 0 0 0

Total # of neighbors = 2632
Ave neighs/atom = 41.125
Ave special neighs/atom = 0
Neighbor list builds = 16295
Dangerous builds = 0

unfix           1
unfix           2

write_data	data.final
System init for write_data ...
Total wall time: 0:02:48
