ITEM: TIMESTEP
0
ITEM: NUMBER OF ATOMS
64
ITEM: BOX BOUNDS pp pp pp
1.4220042886180018e-01 1.0719199571138024e+01
1.4220042886180018e-01 1.0719199571138024e+01
1.4220042886180018e-01 1.0719199571138024e+01
ITEM: ATOMS id type xs ys zs
55 1 0.206164 0.223764 0.215582
40 1 0.104367 0.0318254 0.12177
15 1 0.485365 0.0840858 0.225618
57 1 0.460018 0.0465588 0.00194054
6 1 0.416012 0.291925 0.0540243
14 1 0.954007 0.267618 0.218475
46 1 0.880996 0.115047 0.0665134
31 1 0.707067 0.00247295 0.162325
5 1 0.0426664 0.597467 0.237534
48 1 0.186354 0.389197 0.0196128
20 1 0.251484 0.541632 0.242169
43 1 0.450073 0.449907 0.213416
44 1 0.739824 0.4049 0.280292
37 1 0.940055 0.481306 0.0712199
3 1 0.699151 0.51694 0.0738813
2 1 0.0537457 0.768825 0.0811882
34 1 0.31043 0.798311 0.147004
27 1 0.116936 0.915159 0.313182
35 1 0.539986 0.823553 0.103187
18 1 0.826744 0.824816 0.0258437
47 1 0.693476 0.698502 0.235339
56 1 0.883184 0.779791 0.317512
21 1 0.127239 0.301945 0.459761
22 1 0.303208 0.105387 0.57499
51 1 0.634355 0.211624 0.356835
64 1 0.5196 0.0963185 0.527176
24 1 0.366964 0.259906 0.354447
61 1 0.770072 0.0145349 0.371132
7 1 0.965134 0.108078 0.403367
13 1 0.828159 0.26482 0.538294
63 1 0.257329 0.542551 0.471845
32 1 0.0543913 0.589962 0.573862
41 1 0.444959 0.405376 0.51985
39 1 0.650488 0.514823 0.456753
54 1 0.939001 0.456918 0.422745
9 1 0.0433265 0.970017 0.572455
42 1 0.31965 0.767577 0.548926
11 1 0.361312 0.917281 0.343518
53 1 0.642719 0.898757 0.521255
26 1 0.543269 0.741166 0.4257
12 1 0.93176 0.771775 0.538423
33 1 0.166086 0.27618 0.67135
50 1 0.185641 0.189909 0.881769
58 1 0.397011 0.310024 0.756144
25 1 0.609776 0.0597253 0.854583
8 1 0.589183 0.221118 0.698406
17 1 0.702849 0.27579 0.963448
52 1 0.959802 0.305961 0.898109
10 1 0.958949 0.154939 0.698548
30 1 0.848094 0.018535 0.85557
62 1 0.304832 0.607146 0.984051
23 1 0.218076 0.524786 0.750621
29 1 0.0748172 0.650035 0.913653
59 1 0.492981 0.485917 0.926376
4 1 0.46397 0.610259 0.680314
45 1 0.915094 0.45986 0.706428
49 1 0.816764 0.62689 0.846872
19 1 0.675788 0.458167 0.711032
38 1 0.249891 0.983905 0.951232
36 1 0.0420313 0.866981 0.827935
28 1 0.245674 0.928967 0.697122
16 1 0.567352 0.72541 0.879509
60 1 0.508689 0.885179 0.75721
1 1 0.787834 0.84082 0.698652
ITEM: TIMESTEP
5000
ITEM: NUMBER OF ATOMS
64
ITEM: BOX BOUNDS pp pp pp
1.0307460396799240e-01 1.0758325396031838e+01
1.0307460396799240e-01 1.0758325396031838e+01
1.0307460396799240e-01 1.0758325396031838e+01
ITEM: ATOMS id type xs ys zs
48 1 0.185339 0.211516 0.310229
23 1 0.385482 0.10656 0.296901
44 1 0.518144 0.0206946 0.135321
25 1 0.622113 0.305681 0.12662
9 1 0.492777 0.321268 0.323731
43 1 0.800279 0.192978 0.208373
18 1 0.997892 0.0480844 0.0855909
54 1 0.192654 0.538965 0.252199
50 1 0.184552 0.34777 0.121602
62 1 0.411581 0.507009 0.210586
37 1 0.861248 0.514499 0.280823
10 1 0.972842 0.380316 0.0965418
20 1 0.0725528 0.674774 0.138398
21 1 0.152155 0.977036 0.249347
35 1 0.238551 0.82008 0.0530544
47 1 0.438619 0.807113 0.130945
59 1 0.518675 0.669962 0.304533
31 1 0.747909 0.968311 0.12061
42 1 0.704355 0.667542 0.167759
60 1 0.91591 0.818456 0.241109
27 1 0.266474 0.238621 0.585142
14 1 0.0543048 0.1679 0.641674
7 1 0.656472 0.091548 0.353558
57 1 0.503469 0.166609 0.553423
13 1 0.956078 0.225147 0.364505
56 1 0.780007 0.196397 0.587548
46 1 0.987623 0.0095398 0.421463
41 1 0.219911 0.643556 0.503985
2 1 0.0819718 0.446756 0.427974
34 1 0.359067 0.449616 0.526812
33 1 0.624666 0.545802 0.474651
32 1 0.739685 0.362082 0.425503
51 1 0.877056 0.450937 0.618155
63 1 0.127018 0.877755 0.566768
6 1 0.30447 0.795054 0.340761
64 1 0.384356 0.950649 0.469682
8 1 0.58934 0.813603 0.507188
40 1 0.991807 0.675656 0.625289
5 1 0.790514 0.961564 0.529206
52 1 0.842371 0.679978 0.445479
45 1 0.259967 0.19436 0.951437
58 1 0.29971 0.0181405 0.732008
55 1 0.476512 0.17716 0.961521
12 1 0.507124 0.0610461 0.77015
38 1 0.895371 0.203465 0.961193
30 1 0.700636 0.268122 0.803333
36 1 0.765295 0.0216557 0.889605
61 1 0.252773 0.353697 0.778176
3 1 0.139516 0.566935 0.797667
17 1 0.537737 0.592989 0.686032
15 1 0.497428 0.374931 0.724909
26 1 0.550019 0.665 0.998332
4 1 0.446977 0.459834 0.972158
53 1 0.733926 0.472933 0.955518
29 1 0.992913 0.344798 0.773061
39 1 0.747043 0.590816 0.760267
1 1 0.982838 0.562364 0.954227
16 1 0.00398675 0.965516 0.753229
22 1 0.137008 0.984499 0.921962
24 1 0.323016 0.69472 0.876022
28 1 0.386801 0.793275 0.692292
49 1 0.599057 0.860952 0.820935
11 1 0.838224 0.761707 0.957033
19 1 0.808057 0.822614 0.703794
ITEM: TIMESTEP
10000
ITEM: NUMBER OF ATOMS
64
ITEM: BOX BOUNDS pp pp pp
9.7118081120486366e-02 1.0764281918879369e+01
9.7118081120486366e-02 1.0764281918879369e+01
9.7118081120486366e-02 1.0764281918879369e+01
ITEM: ATOMS id type xs ys zs
38 1 0.236804 0.0182637 0.0900989
53 1 0.293246 0.28738 0.140105
11 1 0.0499014 0.0451754 0.248563
20 1 0.078769 0.269222 0.109055
25 1 0.509448 0.0433571 0.0920162
43 1 0.492868 0.104829 0.328481
29 1 0.590181 0.30847 0.218408
55 1 0.751598 0.115192 0.0638673
54 1 0.194725 0.583113 0.177825
24 1 0.435821 0.494078 0.267007
9 1 0.784788 0.368306 0.125335
61 1 0.70305 0.568895 0.066188
27 1 0.952097 0.592555 0.212557
2 1 0.956235 0.345349 0.297935
31 1 0.304643 0.785277 0.124059
59 1 0.515812 0.725131 0.24156
36 1 0.634105 0.840665 0.0861102
10 1 0.859929 0.992838 0.237998
17 1 0.750895 0.673808 0.330266
57 1 0.870015 0.821533 0.0904566
14 1 0.310288 0.274371 0.393778
23 1 0.272997 0.00604693 0.555976
22 1 0.00232594 0.159202 0.639166
34 1 0.123895 0.150554 0.448483
60 1 0.466919 0.10203 0.595053
48 1 0.705081 0.104337 0.421469
13 1 0.777094 0.164299 0.639026
63 1 0.122902 0.458451 0.412692
45 1 0.140618 0.530812 0.642902
62 1 0.485076 0.588978 0.491793
41 1 0.366795 0.419712 0.566221
6 1 0.575854 0.360289 0.64886
16 1 0.768489 0.378428 0.462135
5 1 0.928405 0.410457 0.642063
44 1 0.694887 0.600076 0.538522
40 1 0.0942789 0.689236 0.434857
46 1 0.285312 0.725471 0.601017
3 1 0.187276 0.866434 0.352344
58 1 0.614419 0.920079 0.579531
32 1 0.445416 0.844058 0.425845
7 1 0.812736 0.859718 0.417529
64 1 0.931176 0.764897 0.61148
15 1 0.140602 0.234937 0.805422
30 1 0.391164 0.161532 0.812114
51 1 0.481971 0.269207 0.995854
1 1 0.664672 0.273192 0.866002
39 1 0.984806 0.130325 0.946629
19 1 0.720622 0.0462097 0.83057
47 1 0.143654 0.461471 0.985169
42 1 0.304681 0.434935 0.780524
52 1 0.627456 0.530415 0.860908
35 1 0.401967 0.513923 0.988507
50 1 0.896915 0.368614 0.87159
4 1 0.953986 0.581095 0.969346
33 1 0.797423 0.589382 0.74456
56 1 0.193604 0.985883 0.754829
18 1 0.0391526 0.911182 0.961769
12 1 0.0831262 0.702402 0.813755
26 1 0.315781 0.710604 0.909192
8 1 0.597486 0.854913 0.785173
28 1 0.467395 0.673307 0.757582
49 1 0.433968 0.940374 0.892515
37 1 0.782398 0.780657 0.874607
21 1 0.932228 0.942986 0.742644
ITEM: TIMESTEP
15000
ITEM: NUMBER OF ATOMS
64
ITEM: BOX BOUNDS pp pp pp
1.3533990064607426e-01 1.0726060099353880e+01
1.3533990064607426e-01 1.0726060099353880e+01
1.3533990064607426e-01 1.0726060099353880e+01
ITEM: ATOMS id type xs ys zs
63 1 0.159813 0.127089 0.245134
30 1 0.288504 0.253732 0.0826553
37 1 0.504544 0.058808 0.188135
15 1 0.586207 0.232086 0.0399158
55 1 0.849098 0.116321 0.155448
8 1 0.848754 0.320031 0.267949
43 1 0.985373 0.306983 0.00467871
42 1 0.15791 0.477405 0.105088
18 1 0.19291 0.395211 0.325772
4 1 0.439504 0.570699 0.132331
62 1 0.467896 0.367626 0.202502
7 1 0.685892 0.599458 0.0726796
44 1 0.766041 0.39494 0.0573859
20 1 0.958022 0.546667 0.179857
56 1 0.208003 0.856754 0.105977
61 1 0.203302 0.740645 0.332904
25 1 0.430649 0.861491 0.114241
40 1 0.635512 0.743771 0.255308
29 1 0.706454 0.979901 0.303234
3 1 0.977446 0.926488 0.190269
53 1 0.906834 0.748683 0.0533841
16 1 0.145829 0.262018 0.590998
2 1 0.0049639 0.243274 0.411698
49 1 0.375638 0.113336 0.387303
27 1 0.600496 0.117678 0.463436
34 1 0.339695 0.328088 0.475634
5 1 0.874422 0.0978107 0.504644
24 1 0.0681421 0.571901 0.396715
11 1 0.128348 0.617175 0.590837
26 1 0.28502 0.478022 0.657865
17 1 0.515555 0.442474 0.440046
45 1 0.507219 0.584826 0.628146
41 1 0.424151 0.639627 0.33752
64 1 0.892383 0.442075 0.532058
33 1 0.697659 0.338022 0.451672
50 1 0.791405 0.637202 0.596966
60 1 0.123889 0.849731 0.535037
46 1 0.341425 0.928232 0.505425
22 1 0.549427 0.804495 0.499648
12 1 0.830542 0.701596 0.386562
35 1 0.926327 0.893948 0.393841
21 1 0.720382 0.939527 0.599191
13 1 0.0695451 0.0620004 0.981329
58 1 0.217036 0.13231 0.756746
28 1 0.499024 0.306049 0.86653
38 1 0.432847 0.157836 0.668591
39 1 0.578648 0.0191063 0.788784
23 1 0.347032 0.0399756 0.958401
59 1 0.753555 0.102152 0.967213
6 1 0.890424 0.141587 0.789016
19 1 0.69833 0.236686 0.695226
51 1 0.257156 0.369079 0.868079
54 1 0.00414597 0.337079 0.745554
14 1 0.318005 0.587163 0.912866
47 1 0.581674 0.545151 0.826795
52 1 0.779058 0.441841 0.807333
9 1 0.972583 0.602899 0.791011
48 1 0.0246245 0.945283 0.706811
57 1 0.228953 0.87027 0.828772
10 1 0.106759 0.704094 0.956315
1 1 0.425969 0.808869 0.725325
32 1 0.543896 0.730713 0.91835
31 1 0.855809 0.796196 0.736238
36 1 0.745567 0.86673 0.922518
ITEM: TIMESTEP
20000
ITEM: NUMBER OF ATOMS
64
ITEM: BOX BOUNDS pp pp pp
1.4739448675731204e-01 1.0714005513242597e+01
1.4739448675731204e-01 1.0714005513242597e+01
1.4739448675731204e-01 1.0714005513242597e+01
ITEM: ATOMS id type xs ys zs
11 1 0.314243 0.254551 0.120835
17 1 0.018063 0.26223 0.253161
61 1 0.221386 0.148911 0.317405
50 1 0.118145 0.033139 0.061106
44 1 0.530262 0.180649 0.174485
9 1 0.810898 0.124811 0.262114
22 1 0.778174 0.132286 0.00744057
31 1 0.308716 0.475779 0.258835
26 1 0.188671 0.666348 0.0861533
62 1 0.0883935 0.462324 0.273982
58 1 0.153287 0.442804 0.00185722
35 1 0.62699 0.635023 0.271171
49 1 0.513449 0.470953 0.16729
10 1 0.711715 0.35178 0.259363
59 1 0.824232 0.399216 0.069349
24 1 0.945342 0.615561 0.134595
54 1 0.26012 0.875371 0.0888071
14 1 0.630163 0.77613 0.0672786
42 1 0.367527 0.948715 0.286706
52 1 0.604145 0.948091 0.220077
33 1 0.969031 0.954408 0.240006
63 1 0.872161 0.930215 0.0123239
6 1 0.835593 0.759242 0.257736
64 1 0.173018 0.253739 0.524275
25 1 0.500083 0.168225 0.413768
16 1 0.702578 0.220116 0.497965
13 1 0.907145 0.0149627 0.534224
28 1 0.953739 0.229704 0.477532
43 1 0.248843 0.560838 0.560668
4 1 0.0177229 0.530656 0.468472
36 1 0.518862 0.419189 0.602195
56 1 0.334239 0.386133 0.459594
20 1 0.675058 0.492968 0.474628
32 1 0.860593 0.423571 0.600312
57 1 0.224575 0.699395 0.361667
21 1 0.0499585 0.804313 0.656804
60 1 0.125201 0.923624 0.433598
8 1 0.290218 0.992084 0.572069
29 1 0.522729 0.960109 0.54558
38 1 0.445313 0.763433 0.374872
45 1 0.492946 0.731299 0.613616
5 1 0.949958 0.733538 0.439685
53 1 0.737379 0.721752 0.556633
48 1 0.715722 0.943837 0.430501
19 1 0.00213935 0.275325 0.98161
18 1 0.229149 0.152191 0.726137
12 1 0.0239105 0.32624 0.762375
15 1 0.364879 0.255792 0.865792
39 1 0.593449 0.22028 0.71472
55 1 0.551151 0.109879 0.951991
1 1 0.868662 0.109684 0.762735
46 1 0.113492 0.53049 0.739396
37 1 0.402204 0.623899 0.995993
30 1 0.336066 0.486687 0.809723
34 1 0.585846 0.573497 0.76698
27 1 0.754126 0.377883 0.821656
40 1 0.783816 0.601432 0.945423
3 1 0.270343 0.796507 0.696013
41 1 0.0651755 0.991787 0.824959
7 1 0.00472383 0.730306 0.899837
2 1 0.516483 0.788915 0.863914
51 1 0.351626 0.943021 0.889671
47 1 0.650098 0.940881 0.754022
23 1 0.8283 0.8022 0.754214
ITEM: TIMESTEP
25000
ITEM: NUMBER OF ATOMS
64
ITEM: BOX BOUNDS pp pp pp
1.3207701382889514e-01 1.0729322986171113e+01
1.3207701382889514e-01 1.0729322986171113e+01
1.3207701382889514e-01 1.0729322986171113e+01
ITEM: ATOMS id type xs ys zs
42 1 0.369897 0.0900924 0.158047
18 1 0.598743 0.173899 0.224916
33 1 0.975142 0.0381942 0.153583
15 1 0.983268 0.242866 0.0225116
4 1 0.85519 0.18109 0.325801
52 1 0.762914 0.244549 0.0542039
37 1 0.33006 0.459087 0.0788671
13 1 0.125716 0.415784 0.0917747
49 1 0.0181521 0.61145 0.0693857
22 1 0.0775875 0.346449 0.31933
34 1 0.385001 0.366748 0.304131
35 1 0.347887 0.656823 0.258518
3 1 0.798271 0.522392 0.0955737
46 1 0.828533 0.405569 0.306837
43 1 0.159398 0.986527 0.232882
30 1 0.190701 0.792434 0.0695487
38 1 0.638868 0.693647 0.131074
28 1 0.428315 0.76246 0.0049515
45 1 0.509062 0.903903 0.232934
16 1 0.710884 0.955934 0.299782
11 1 0.846223 0.841003 0.159853
1 1 0.953156 0.688202 0.274933
7 1 0.0635763 0.0126644 0.452306
57 1 0.28247 0.201431 0.35694
44 1 0.180494 0.183896 0.541786
63 1 0.482787 0.0523942 0.461164
51 1 0.693562 0.155676 0.51634
48 1 0.934419 0.180628 0.593644
54 1 0.308685 0.502736 0.475482
17 1 0.0476406 0.423984 0.55085
40 1 0.115306 0.642208 0.556991
31 1 0.624945 0.365178 0.386784
39 1 0.613857 0.42034 0.610066
6 1 0.573764 0.58979 0.333849
29 1 0.875581 0.556328 0.475667
41 1 0.162319 0.7489 0.361596
56 1 0.38381 0.836211 0.446758
9 1 0.664295 0.938946 0.648217
24 1 0.5086 0.673907 0.534754
19 1 0.955072 0.835246 0.588718
60 1 0.741418 0.801447 0.480501
64 1 0.32147 0.0849934 0.69011
62 1 0.0382954 0.204864 0.817394
12 1 0.246146 0.176027 0.888455
8 1 0.543054 0.103531 0.991417
14 1 0.534913 0.21501 0.696674
25 1 0.445683 0.318845 0.925479
23 1 0.752919 0.157176 0.802008
58 1 0.115484 0.423313 0.775969
5 1 0.320393 0.378579 0.694761
55 1 0.278769 0.595406 0.907601
21 1 0.434718 0.590406 0.730788
26 1 0.564355 0.593811 0.889755
20 1 0.781274 0.64051 0.684414
10 1 0.814958 0.394241 0.762947
59 1 0.678931 0.417014 0.925023
27 1 0.970507 0.600121 0.801706
36 1 0.0785932 0.9752 0.946954
53 1 0.129732 0.794861 0.770197
2 1 0.315905 0.847833 0.689865
32 1 0.484983 0.936318 0.843852
61 1 0.90523 0.969455 0.773006
47 1 0.69018 0.757396 0.819659
50 1 0.880163 0.782996 0.948012
ITEM: TIMESTEP
30000
ITEM: NUMBER OF ATOMS
64
ITEM: BOX BOUNDS pp pp pp
1.2341569336576885e-01 1.0737984306634306e+01
1.2341569336576885e-01 1.0737984306634306e+01
1.2341569336576885e-01 1.0737984306634306e+01
ITEM: ATOMS id type xs ys zs
13 1 0.259203 0.25164 0.0118572
34 1 0.229309 0.000785656 0.267644
23 1 0.0979339 0.0104871 0.0588415
27 1 0.00121175 0.199965 0.103317
53 1 0.321892 0.219876 0.243641
18 1 0.540548 0.215702 0.175772
61 1 0.857776 0.0652649 0.263898
7 1 0.770393 0.28537 0.315202
45 1 0.0965472 0.340737 0.260414
58 1 0.0408595 0.532035 0.0172445
60 1 0.227067 0.504493 0.223976
49 1 0.456978 0.572808 0.178687
8 1 0.725358 0.416511 0.114942
57 1 0.940113 0.485385 0.30045
17 1 0.812681 0.636529 0.107918
42 1 0.143909 0.721242 0.196643
20 1 0.516616 0.990724 0.281687
4 1 0.584315 0.847102 0.0910903
31 1 0.577249 0.716399 0.323248
38 1 0.356675 0.809494 0.142734
16 1 0.831187 0.749841 0.326507
30 1 0.827447 0.916603 0.095477
2 1 0.287121 0.317833 0.477428
46 1 0.221458 0.0515267 0.590947
33 1 0.0390085 0.267344 0.527242
26 1 0.0358368 0.0784263 0.405271
41 1 0.509594 0.261288 0.576047
56 1 0.478644 0.0261142 0.569752
24 1 0.67735 0.0134822 0.456786
50 1 0.738005 0.225372 0.539613
37 1 0.105258 0.650498 0.551064
11 1 0.328269 0.572824 0.479427
29 1 0.516589 0.419194 0.342609
32 1 0.537538 0.663375 0.616533
44 1 0.69757 0.538089 0.419243
39 1 0.96421 0.503732 0.530783
54 1 0.744585 0.473138 0.645664
43 1 0.0561608 0.827007 0.390583
59 1 0.286027 0.824208 0.652024
36 1 0.353799 0.808803 0.434113
21 1 0.909011 0.924987 0.58835
47 1 0.686611 0.802545 0.547766
55 1 0.287044 0.255178 0.735832
19 1 0.0626237 0.231378 0.822857
25 1 0.624877 0.0629341 0.944915
6 1 0.408111 0.130305 0.88598
12 1 0.696104 0.2463 0.8199
1 1 0.880151 0.145569 0.680821
9 1 0.290179 0.472917 0.97883
14 1 0.293153 0.527425 0.729171
15 1 0.065305 0.469767 0.779475
40 1 0.519019 0.379936 0.990137
35 1 0.534876 0.429453 0.747956
62 1 0.608072 0.659695 0.967155
3 1 0.869262 0.352743 0.938951
22 1 0.856995 0.591757 0.8255
28 1 0.108236 0.966892 0.794989
52 1 0.0421817 0.769559 0.995314
63 1 0.299875 0.896461 0.931396
5 1 0.0370291 0.756116 0.744467
10 1 0.546204 0.912799 0.782219
64 1 0.41882 0.713832 0.848852
51 1 0.749527 0.783941 0.780556
48 1 0.846673 0.965179 0.850187
ITEM: TIMESTEP
35000
ITEM: NUMBER OF ATOMS
64
ITEM: BOX BOUNDS pp pp pp
1.2156851860395435e-01 1.0739831481396108e+01
1.2156851860395435e-01 1.0739831481396108e+01
1.2156851860395435e-01 1.0739831481396108e+01
ITEM: ATOMS id type xs ys zs
40 1 0.23142 0.111027 0.0547798
24 1 0.0057979 0.161037 0.061483
19 1 0.444819 0.328381 0.244415
38 1 0.658906 0.0371702 0.0944688
50 1 0.371865 0.07328 0.233516
11 1 0.40888 0.270542 0.0106485
33 1 0.757602 0.237354 0.1682
1 1 0.931065 0.00099914 0.205278
47 1 0.190201 0.554411 0.114315
6 1 0.64015 0.465961 0.157909
62 1 0.832642 0.542726 0.0647494
13 1 0.963221 0.619434 0.282902
49 1 0.99634 0.370391 0.118053
15 1 0.277975 0.745736 0.215404
31 1 0.0745546 0.829463 0.279827
27 1 0.449549 0.893654 0.0734397
46 1 0.597956 0.985638 0.302273
42 1 0.549992 0.687497 0.063928
44 1 0.594512 0.76858 0.285056
17 1 0.958999 0.748689 0.061845
59 1 0.306944 0.230388 0.511853
10 1 0.195566 0.0256932 0.347902
9 1 0.0285966 0.159762 0.432467
48 1 0.52855 0.18681 0.432262
34 1 0.498974 0.0370639 0.58271
8 1 0.775108 0.268592 0.38895
57 1 0.817468 0.027101 0.408836
26 1 0.708907 0.246011 0.616528
2 1 0.254664 0.413708 0.340402
14 1 0.0248938 0.377387 0.361835
45 1 0.6365 0.457825 0.414133
35 1 0.411127 0.537198 0.466966
4 1 0.749794 0.636319 0.380127
53 1 0.768455 0.46691 0.634684
43 1 0.994911 0.486518 0.592248
56 1 0.21428 0.732259 0.613578
23 1 0.281446 0.933 0.529584
52 1 0.0415623 0.685474 0.512793
64 1 0.40886 0.738903 0.407748
29 1 0.490864 0.757009 0.646269
22 1 0.729903 0.720885 0.598182
54 1 0.767062 0.955829 0.633194
36 1 0.242103 0.0524501 0.72528
18 1 0.139836 0.24401 0.672625
16 1 0.42314 0.16285 0.815466
12 1 0.638399 0.320288 0.940392
5 1 0.942223 0.120867 0.681391
63 1 0.864255 0.225619 0.886622
37 1 0.676495 0.0849181 0.813069
7 1 0.0682704 0.609665 0.910636
28 1 0.254168 0.492163 0.678789
39 1 0.202163 0.344194 0.915015
25 1 0.381703 0.529848 0.95451
41 1 0.465879 0.337813 0.668804
3 1 0.479058 0.55014 0.749955
30 1 0.978014 0.410779 0.81264
61 1 0.705025 0.507532 0.826787
20 1 0.234943 0.929455 0.931724
55 1 0.00270498 0.967632 0.869589
58 1 0.253992 0.723652 0.845882
60 1 0.48896 0.909941 0.814659
32 1 0.799396 0.89992 0.967489
51 1 0.948508 0.793279 0.709764
21 1 0.67211 0.729287 0.881069
ITEM: TIMESTEP
40000
ITEM: NUMBER OF ATOMS
64
ITEM: BOX BOUNDS pp pp pp
1.4842037401966746e-01 1.0712979625980346e+01
1.4842037401966746e-01 1.0712979625980346e+01
1.4842037401966746e-01 1.0712979625980346e+01
ITEM: ATOMS id type xs ys zs
3 1 0.219383 0.313413 0.0475636
1 1 0.0409342 0.258286 0.204504
14 1 0.340382 0.16068 0.238736
47 1 0.573407 0.266963 0.210286
15 1 0.875828 0.0987044 0.0874206
60 1 0.687273 0.0244381 0.163454
37 1 0.804613 0.321635 0.0256964
6 1 0.165801 0.565494 0.282873
2 1 0.336604 0.516263 0.139524
25 1 0.590949 0.523165 0.0373188
19 1 0.865195 0.53602 0.0124056
62 1 0.795847 0.360264 0.290847
43 1 0.676979 0.569016 0.291102
26 1 0.996169 0.631486 0.162188
58 1 0.294532 0.949375 0.132777
13 1 0.0994044 0.81447 0.0352022
51 1 0.00365569 0.937528 0.232754
59 1 0.427239 0.764471 0.081377
42 1 0.461887 0.750182 0.294115
21 1 0.854127 0.734066 0.267648
33 1 0.683581 0.811616 0.13372
49 1 0.0967309 0.104273 0.358999
45 1 0.263186 0.312057 0.57399
63 1 0.0387559 0.0237888 0.614696
10 1 0.425819 0.181591 0.447688
61 1 0.636731 0.0856984 0.640586
9 1 0.958179 0.245974 0.62859
31 1 0.752676 0.204661 0.451657
39 1 0.103744 0.364653 0.387781
4 1 0.458592 0.482968 0.350116
22 1 0.581774 0.3716 0.553118
64 1 0.344136 0.516508 0.538652
8 1 0.912798 0.430913 0.50689
29 1 0.712065 0.574012 0.582731
16 1 0.285151 0.995353 0.536748
48 1 0.186361 0.68588 0.508751
41 1 0.226594 0.839593 0.33552
52 1 0.538075 0.714771 0.520532
57 1 0.549484 0.966335 0.406644
36 1 0.354636 0.813349 0.617902
34 1 0.927692 0.669114 0.475512
35 1 0.884227 0.878273 0.581645
5 1 0.805102 0.975764 0.388066
24 1 0.119963 0.102608 0.986794
53 1 0.184592 0.226388 0.785465
23 1 0.414957 0.122222 0.752828
44 1 0.412665 0.318624 0.887619
18 1 0.62641 0.00977946 0.914748
40 1 0.604693 0.217961 0.9828
27 1 0.906147 0.0288316 0.865315
55 1 0.77937 0.217546 0.767994
30 1 0.0875665 0.454592 0.727096
54 1 0.0770739 0.462382 0.951501
32 1 0.227303 0.648393 0.933215
7 1 0.472671 0.491513 0.756875
56 1 0.694631 0.458071 0.81596
28 1 0.0764045 0.707488 0.722426
50 1 0.150969 0.917602 0.772053
20 1 0.382549 0.950077 0.892866
11 1 0.389546 0.690961 0.798524
12 1 0.597568 0.737552 0.899784
17 1 0.858798 0.827147 0.936306
46 1 0.685224 0.851697 0.691886
38 1 0.846825 0.672816 0.797517
ITEM: TIMESTEP
45000
ITEM: NUMBER OF ATOMS
64
ITEM: BOX BOUNDS pp pp pp
1.5100803257379347e-01 1.0710391967426201e+01
1.5100803257379347e-01 1.0710391967426201e+01
1.5100803257379347e-01 1.0710391967426201e+01
ITEM: ATOMS id type xs ys zs
39 1 0.267003 0.115985 0.322787
31 1 0.0540842 0.259078 0.256645
32 1 0.217016 0.215714 0.0583969
27 1 0.534254 0.192824 0.0392946
6 1 0.385298 0.0373018 0.106085
7 1 0.567817 0.318939 0.273741
50 1 0.836942 0.0259413 0.0157445
21 1 0.953536 0.236779 0.0125392
35 1 0.690183 0.132624 0.231655
37 1 0.160631 0.501229 0.211481
38 1 0.214725 0.642881 0.0024395
25 1 0.341691 0.372819 0.228005
10 1 0.465687 0.461281 0.0198383
29 1 0.631343 0.58255 0.218458
36 1 0.835562 0.341443 0.210235
16 1 0.706131 0.436823 0.0302693
57 1 0.188901 0.719979 0.260373
9 1 0.00192959 0.895152 0.173192
17 1 0.487442 0.920791 0.238411
20 1 0.423136 0.707583 0.225133
5 1 0.754927 0.922526 0.320992
43 1 0.667031 0.78157 0.0682924
41 1 0.891227 0.711838 0.147469
47 1 0.0535518 0.0610527 0.402362
33 1 0.0466843 0.325592 0.539315
42 1 0.290546 0.326272 0.484671
53 1 0.146913 0.10675 0.659966
51 1 0.605908 0.120279 0.468607
22 1 0.867248 0.172735 0.523239
30 1 0.160142 0.587614 0.507529
48 1 0.549042 0.345407 0.54181
3 1 0.570289 0.635322 0.48043
14 1 0.374582 0.554649 0.422108
63 1 0.777398 0.393145 0.46495
8 1 0.805071 0.658154 0.377955
4 1 0.983088 0.513596 0.358602
24 1 0.848354 0.568269 0.629339
15 1 0.153969 0.862181 0.444842
45 1 0.395831 0.978375 0.429918
13 1 0.386215 0.788981 0.568076
1 1 0.654441 0.799915 0.648322
60 1 0.802286 0.908655 0.541039
19 1 0.979216 0.762196 0.589452
44 1 0.106988 0.0718676 0.902629
54 1 0.339774 0.258666 0.70518
56 1 0.397961 0.0283482 0.689003
61 1 0.630193 0.276691 0.825633
58 1 0.620817 0.0784013 0.702767
40 1 0.862618 0.279224 0.782276
23 1 0.866576 0.0602015 0.746242
26 1 0.0817577 0.442961 0.943555
55 1 0.292485 0.336365 0.921877
28 1 0.211855 0.610743 0.738076
62 1 0.0204343 0.432642 0.716654
34 1 0.603061 0.50027 0.697189
11 1 0.448364 0.653819 0.753203
18 1 0.889191 0.559735 0.961453
59 1 0.101974 0.840215 0.976036
49 1 0.169635 0.858662 0.713936
2 1 0.358825 0.935183 0.898446
12 1 0.437612 0.717273 0.982472
52 1 0.609048 0.974647 0.927547
46 1 0.732798 0.694983 0.853145
64 1 0.922988 0.845228 0.826568
ITEM: TIMESTEP
50000
ITEM: NUMBER OF ATOMS
64
ITEM: BOX BOUNDS pp pp pp
1.2376127959552807e-01 1.0737638720404552e+01
1.2376127959552807e-01 1.0737638720404552e+01
1.2376127959552807e-01 1.0737638720404552e+01
ITEM: ATOMS id type xs ys zs
36 1 0.15411 0.275001 0.249358
46 1 0.662737 0.0202236 0.216989
35 1 0.366587 0.232318 0.125891
9 1 0.721501 0.225758 0.252139
41 1 0.783955 0.259086 0.0523103
8 1 0.978382 0.0977357 0.232604
33 1 0.238384 0.613572 0.0956872
37 1 0.283706 0.459792 0.256198
29 1 0.541122 0.385874 0.237746
61 1 0.683287 0.534466 0.0960342
30 1 0.993279 0.379758 0.140048
24 1 0.899835 0.524296 0.309858
4 1 0.158588 0.987379 0.193812
47 1 0.104485 0.781198 0.239457
52 1 0.407406 0.996772 0.0854457
20 1 0.360353 0.807851 0.224036
54 1 0.599272 0.775194 0.109809
28 1 0.941793 0.734053 0.0815644
18 1 0.796184 0.90854 0.00871227
22 1 0.84878 0.899242 0.299394
19 1 0.746262 0.71807 0.283307
44 1 0.318924 0.0326111 0.352757
60 1 0.0670998 0.0502145 0.631016
57 1 0.127571 0.204579 0.476979
17 1 0.605077 0.164467 0.485739
55 1 0.37111 0.243304 0.515194
38 1 0.875585 0.176229 0.443336
39 1 0.0533534 0.619492 0.406694
12 1 0.243396 0.492261 0.503026
16 1 0.118909 0.362643 0.64884
40 1 0.474783 0.479011 0.470585
50 1 0.751523 0.419178 0.432237
48 1 0.868191 0.338398 0.652676
56 1 0.783223 0.622075 0.578819
31 1 0.202467 0.890903 0.501005
49 1 0.234775 0.678111 0.664015
59 1 0.532128 0.695961 0.370779
7 1 0.629939 0.835392 0.554611
3 1 0.463885 0.695635 0.660193
43 1 0.538289 0.98098 0.391559
42 1 0.39201 0.927861 0.629936
1 1 0.992837 0.748125 0.569257
58 1 0.843851 0.928273 0.524812
15 1 0.318801 0.135908 0.707014
5 1 0.163381 0.0745567 0.976297
62 1 0.170064 0.279039 0.868412
27 1 0.654648 0.0375558 0.696119
21 1 0.626328 0.127151 0.9748
6 1 0.534135 0.231301 0.769527
63 1 0.868321 0.114977 0.739815
64 1 0.914513 0.0882759 0.989403
10 1 0.0831394 0.465095 0.981749
11 1 0.0184138 0.572482 0.706726
51 1 0.367886 0.342711 0.914611
32 1 0.585862 0.597868 0.894168
2 1 0.3547 0.571875 0.895676
25 1 0.604004 0.460472 0.679421
14 1 0.907885 0.587896 0.898872
34 1 0.765494 0.403626 0.87153
13 1 0.315448 0.935065 0.867553
26 1 0.141397 0.739056 0.875472
45 1 0.557342 0.875254 0.86134
53 1 0.74646 0.726867 0.796384
23 1 0.975074 0.890004 0.79854
ITEM: TIMESTEP
55000
ITEM: NUMBER OF ATOMS
64
ITEM: BOX BOUNDS pp pp pp
1.2999990647868742e-01 1.0731400093521463e+01
1.2999990647868742e-01 1.0731400093521463e+01
1.2999990647868742e-01 1.0731400093521463e+01
ITEM: ATOMS id type xs ys zs
41 1 0.235161 0.294822 0.0317173
55 1 0.202557 0.173184 0.292191
51 1 0.367564 0.0830556 0.0961215
34 1 0.715829 0.108849 0.144625
36 1 0.962879 0.225317 0.256204
27 1 0.94785 0.181577 0.0391135
62 1 0.145885 0.639365 0.153271
32 1 0.320287 0.361571 0.304615
54 1 0.0488811 0.412941 0.0899337
52 1 0.614937 0.559492 0.017404
30 1 0.515326 0.346675 0.140539
39 1 0.499452 0.566251 0.276996
15 1 0.34408 0.501801 0.00875646
57 1 0.849854 0.583682 0.172151
28 1 0.852541 0.401631 0.327244
19 1 0.697881 0.663858 0.33036
58 1 0.233973 0.920491 0.157915
64 1 0.0949135 0.974946 0.00857464
18 1 0.659795 0.919332 0.248404
13 1 0.385433 0.714971 0.131171
9 1 0.616247 0.796108 0.0326874
1 1 0.961442 0.780752 0.229841
47 1 0.889146 0.885066 0.0169979
42 1 0.0687038 0.118872 0.503134
60 1 0.276739 0.256206 0.555323
50 1 0.417113 0.0841184 0.342849
3 1 0.602003 0.215013 0.336849
21 1 0.36611 0.0439795 0.562169
23 1 0.611295 0.0142337 0.652721
40 1 0.49266 0.322411 0.634537
46 1 0.793828 0.103493 0.425235
7 1 0.694856 0.204649 0.624237
5 1 0.126845 0.470782 0.342615
56 1 0.0932278 0.601618 0.579097
14 1 0.645387 0.408558 0.441913
49 1 0.35829 0.502061 0.500518
20 1 0.755444 0.650726 0.56371
31 1 0.918693 0.45162 0.539985
53 1 0.115221 0.903868 0.361844
4 1 0.264906 0.714886 0.397325
44 1 0.228186 0.865517 0.591348
59 1 0.440866 0.868151 0.334067
17 1 0.557044 0.814739 0.520221
26 1 0.839738 0.874975 0.432823
12 1 0.972143 0.828081 0.631513
29 1 0.208159 0.138258 0.873006
6 1 0.00367754 0.0457841 0.711874
37 1 0.520749 0.277674 0.911098
63 1 0.430316 0.0883499 0.790163
48 1 0.590738 0.0284513 0.990473
8 1 0.79474 0.03858 0.820257
24 1 0.772447 0.270132 0.895052
22 1 0.924209 0.289427 0.678292
2 1 0.148946 0.648157 0.914943
25 1 0.30618 0.53387 0.72388
16 1 0.163449 0.337954 0.742258
61 1 0.50276 0.465356 0.823007
35 1 0.843716 0.464652 0.971842
38 1 0.993759 0.526965 0.80148
33 1 0.17836 0.842022 0.837924
43 1 0.612811 0.726245 0.786637
11 1 0.378432 0.734248 0.669079
45 1 0.410703 0.869238 0.874661
10 1 0.846865 0.719258 0.821102
ITEM: TIMESTEP
60000
ITEM: NUMBER OF ATOMS
64
ITEM: BOX BOUNDS pp pp pp
1.0186861721434859e-01 1.0759531382785683e+01
1.0186861721434859e-01 1.0759531382785683e+01
1.0186861721434859e-01 1.0759531382785683e+01
ITEM: ATOMS id type xs ys zs
43 1 0.298356 0.291416 0.204372
46 1 0.149808 0.121901 0.176367
49 1 0.637889 0.00794156 0.124431
11 1 0.499965 0.1552 0.236655
16 1 0.675856 0.239064 0.320897
24 1 0.898271 0.21563 0.267133
38 1 0.897042 0.242013 0.0639248
44 1 0.114939 0.380246 0.066089
35 1 0.0274512 0.395788 0.302348
34 1 0.0665393 0.605832 0.104616
32 1 0.243994 0.635345 0.291911
54 1 0.398369 0.664636 0.105295
41 1 0.517675 0.446772 0.162413
30 1 0.847748 0.652765 0.129115
48 1 0.753491 0.446841 0.193156
2 1 0.21739 0.839869 0.0751248
4 1 0.169904 0.925351 0.292973
21 1 0.587182 0.80426 0.0535833
56 1 0.975055 0.900044 0.0388891
26 1 0.678648 0.712606 0.298944
20 1 0.947314 0.910091 0.330629
8 1 8.19344e-05 0.091083 0.453572
31 1 0.208091 0.194939 0.475861
29 1 0.557266 0.163379 0.540066
9 1 0.363379 0.0700552 0.395113
23 1 0.785332 0.120642 0.568473
64 1 0.257986 0.392156 0.423565
55 1 0.00507186 0.381427 0.548549
33 1 0.138445 0.577384 0.565859
57 1 0.502655 0.413281 0.409167
39 1 0.476016 0.629323 0.414708
28 1 0.559175 0.645387 0.62555
47 1 0.435757 0.358997 0.635777
60 1 0.788448 0.357654 0.510674
6 1 0.829751 0.5885 0.423766
7 1 0.670469 0.436959 0.660265
18 1 0.23561 0.784747 0.440236
5 1 0.308123 0.830688 0.66451
59 1 0.490956 0.884088 0.479993
58 1 0.714661 0.96385 0.341563
15 1 0.98739 0.738134 0.484898
62 1 0.692145 0.852872 0.598445
13 1 0.27829 0.217687 0.749267
27 1 0.241445 0.0540545 0.963196
40 1 0.0581695 0.186394 0.716096
37 1 0.473625 0.0886666 0.970494
19 1 0.497317 0.309264 0.972386
1 1 0.402733 0.0382769 0.679451
52 1 0.820424 0.0614778 0.985047
42 1 0.951559 0.00158321 0.766301
45 1 0.704609 0.187401 0.79054
36 1 0.308954 0.371921 0.915959
12 1 0.327027 0.569495 0.677104
61 1 0.0260126 0.364527 0.860089
3 1 0.0916078 0.66532 0.893641
53 1 0.311042 0.605272 0.889925
17 1 0.953665 0.554639 0.771451
50 1 0.7318 0.583654 0.849872
22 1 0.723408 0.373166 0.953983
25 1 0.139649 0.872276 0.816199
63 1 0.593164 0.959271 0.806741
51 1 0.501861 0.744906 0.842014
10 1 0.889753 0.800296 0.700594
14 1 0.796418 0.780212 0.948072
ITEM: TIMESTEP
65000
ITEM: NUMBER OF ATOMS
64
ITEM: BOX BOUNDS pp pp pp
1.1504281591279497e-01 1.0746357184087291e+01
1.1504281591279497e-01 1.0746357184087291e+01
1.1504281591279497e-01 1.0746357184087291e+01
ITEM: ATOMS id type xs ys zs
35 1 0.0651248 0.17069 0.256989
9 1 0.089051 0.146669 0.0408103
26 1 0.655185 0.0117629 0.167087