An instance of this daemon is already running
An instance of this daemon is already running

     Program PWSCF v.7.1 starts on 10May2023 at 10:43: 8 

     This program is part of the open-source Quantum ESPRESSO suite
     for quantum simulation of materials; please cite
         "P. Giannozzi et al., J. Phys.:Condens. Matter 21 395502 (2009);
         "P. Giannozzi et al., J. Phys.:Condens. Matter 29 465901 (2017);
         "P. Giannozzi et al., J. Chem. Phys. 152 154105 (2020);
          URL http://www.quantum-espresso.org", 
     in publications or presentations arising from this work. More details at
     http://www.quantum-espresso.org/quote

     Parallel version (MPI & OpenMP), running on       4 processor cores
     Number of MPI processes:                 4
     Threads/MPI process:                     1

     MPI processes distributed on     1 nodes
     153223 MiB available memory on the printing compute node when the environment starts
 
     Reading input from pw-si-17.in
Warning: card &CELL ignored
Warning: card / ignored

     Current dimensions of program PWSCF are:
     Max number of different atomic species (ntypx) = 10
     Max number of k-points (npk) =  40000
     Max angular momentum in pseudopotentials (lmaxx) =  4

     IMPORTANT: XC functional enforced from input :
     Exchange-correlation= PBE
                           (   1   4   3   4   0   0   0)
     Any further DFT definition will be discarded
     Please, verify this is what you really want


     gamma-point specific algorithms are used
 
     K-points division:     npool     =       2
     R & G space division:  proc/nbgrp/npool/nimage =       2
     Subspace diagonalization in iterative solution of the eigenvalue problem:
     a serial algorithm will be used

     Message from routine divide_et_impera:
     suboptimal parallelization: some nodes have no k-points
 
     Parallelization info
     --------------------
     sticks:   dense  smooth     PW     G-vecs:    dense   smooth      PW
     Min        1945    1945    519                91431    91431   12442
     Max        1948    1948    522                91436    91436   12443
     Sum        3893    3893   1041               182867   182867   24885
 
     Using Slab Decomposition
 


     bravais-lattice index     =            0
     lattice parameter (alat)  =      20.2052  a.u.
     unit-cell volume          =    8248.8287 (a.u.)^3
     number of atoms/cell      =           64
     number of atomic types    =            1
     number of electrons       =       256.00
     number of Kohn-Sham states=          154
     kinetic-energy cutoff     =      30.0000  Ry
     charge density cutoff     =     120.0000  Ry
     scf convergence threshold =      1.0E-06
     mixing beta               =       0.5000
     number of iterations used =            8  plain     mixing
     Exchange-correlation= PBE
                           (   1   4   3   4   0   0   0)

     GPU acceleration is ACTIVE.
     GPU-aware MPI enabled

     Message from routine print_cuda_info:
     High GPU oversubscription detected. Are you sure this is what you want?

     celldm(1)=  20.205244  celldm(2)=   0.000000  celldm(3)=   0.000000
     celldm(4)=   0.000000  celldm(5)=   0.000000  celldm(6)=   0.000000

     crystal axes: (cart. coord. in units of alat)
               a(1) = (   1.000000   0.000000   0.000000 )  
               a(2) = (   0.000000   1.000000   0.000000 )  
               a(3) = (   0.000000   0.000000   1.000000 )  

     reciprocal axes: (cart. coord. in units 2 pi/alat)
               b(1) = (  1.000000  0.000000  0.000000 )  
               b(2) = (  0.000000  1.000000  0.000000 )  
               b(3) = (  0.000000  0.000000  1.000000 )  


     PseudoPot. # 1 for Si read from file:
     /home/ppiaggi/pseudos/Si_ONCV_PBE_sr.upf
     MD5 check sum: 8553c464762ac42b85b1eed164b4d029
     Pseudo is Norm-conserving, Zval =  4.0
     Generated using ONCVPSP code by D. R. Hamann
     Using radial grid of 1510 points,  4 beta functions with: 
                l(1) =   0
                l(2) =   0
                l(3) =   1
                l(4) =   1

     atomic species   valence    mass     pseudopotential
        Si             4.00    28.08500     Si( 1.00)

     No symmetry found



   Cartesian axes

     site n.     atom                  positions (alat units)
         1           Si  tau(   1) = (   0.8906770   0.5314640   0.4778350  )
         2           Si  tau(   2) = (   0.0644566   0.7248640   0.7454800  )
         3           Si  tau(   3) = (   0.3789560   0.4237040   0.5187260  )
         4           Si  tau(   4) = (   0.6200110   0.8413340   0.9317760  )
         5           Si  tau(   5) = (   0.3315130   0.3749310   0.1031160  )
         6           Si  tau(   6) = (   0.8969870   0.1130340   0.3327350  )
         7           Si  tau(   7) = (   0.8314850   0.0360024   0.6635900  )
         8           Si  tau(   8) = (   0.8703430   0.9271050   0.8518810  )
         9           Si  tau(   9) = (   0.8424540   0.6863090   0.8202220  )
        10           Si  tau(  10) = (   0.3735020   0.5819350   0.8129570  )
        11           Si  tau(  11) = (   0.0900681   0.2938590   0.4243260  )
        12           Si  tau(  12) = (   0.9082370   0.1459440   0.9937260  )
        13           Si  tau(  13) = (   0.1392000   0.4937570   0.8532500  )
        14           Si  tau(  14) = (   0.2736940   0.6667200   0.6381330  )
        15           Si  tau(  15) = (   0.1424100   0.1373780   0.7101870  )
        16           Si  tau(  16) = (   0.9625180   0.8354810   0.2722880  )
        17           Si  tau(  17) = (   0.5396470   0.5430730   0.6384620  )
        18           Si  tau(  18) = (   0.7559570   0.9110630   0.3681540  )
        19           Si  tau(  19) = (   0.1358010   0.6618950   0.0255480  )
        20           Si  tau(  20) = (   0.7926720   0.2732000   0.4393400  )
        21           Si  tau(  21) = (   0.4106410   0.0117940   0.7702040  )
        22           Si  tau(  22) = (   0.0116627   0.5573220   0.2563530  )
        23           Si  tau(  23) = (   0.7236280   0.0521251   0.1567120  )
        24           Si  tau(  24) = (   0.4172460   0.8552350   0.6186980  )
        25           Si  tau(  25) = (   0.1712090   0.5049660   0.5011130  )
        26           Si  tau(  26) = (   0.6051610   0.2007930   0.5029430  )
        27           Si  tau(  27) = (   0.6172750   0.7439430   0.7081740  )
        28           Si  tau(  28) = (   0.5191670   0.0510162   0.9787780  )
        29           Si  tau(  29) = (   0.6900260   0.8039050   0.1648030  )
        30           Si  tau(  30) = (   0.2627130   0.1433860   0.4478930  )
        31           Si  tau(  31) = (   0.5257160   0.0426529   0.3496000  )
        32           Si  tau(  32) = (   0.1179210   0.9446000   0.8150690  )
        33           Si  tau(  33) = (   0.2901390   0.8533470   0.9519740  )
        34           Si  tau(  34) = (   0.0203206   0.9137830   0.0325999  )
        35           Si  tau(  35) = (   0.6498200   0.5381070   0.9508160  )
        36           Si  tau(  36) = (   0.7759450   0.2892390   0.8372420  )
        37           Si  tau(  37) = (   0.4849890   0.4079610   0.3420100  )
        38           Si  tau(  38) = (   0.3437110   0.2284260   0.6659140  )
        39           Si  tau(  39) = (   0.1679980   0.9508480   0.3051090  )
        40           Si  tau(  40) = (   0.0123427   0.4720040   0.6766460  )
        41           Si  tau(  41) = (   0.7638270   0.4952180   0.7158190  )
        42           Si  tau(  42) = (   0.5172280   0.6909270   0.2456220  )
        43           Si  tau(  43) = (   0.2020690   0.7170860   0.3364090  )
        44           Si  tau(  44) = (   0.0640979   0.1406060   0.1721200  )
        45           Si  tau(  45) = (   0.3436320   0.3545900   0.8488410  )
        46           Si  tau(  46) = (   0.9469780   0.2525080   0.6573720  )
        47           Si  tau(  47) = (   0.5579580   0.3015740   0.9411470  )
        48           Si  tau(  48) = (   0.8103750   0.4780210   0.1085960  )
        49           Si  tau(  49) = (   0.7897800   0.8214160   0.5761420  )
        50           Si  tau(  50) = (   0.0190225   0.3837080   0.9879840  )
        51           Si  tau(  51) = (   0.4073120   0.8641520   0.3983550  )
        52           Si  tau(  52) = (   0.1050210   0.3613290   0.2049320  )
        53           Si  tau(  53) = (   0.6489810   0.2780640   0.1366800  )
        54           Si  tau(  54) = (   0.6085600   0.1710440   0.7215140  )
        55           Si  tau(  55) = (   0.8834510   0.6966590   0.0651846  )
        56           Si  tau(  56) = (   0.1868670   0.2054580   0.9373730  )
        57           Si  tau(  57) = (   0.0199370   0.0332956   0.5103890  )
        58           Si  tau(  58) = (   0.9989450   0.7906990   0.5364810  )
        59           Si  tau(  59) = (   0.2984580   0.0486734   0.0782952  )
        60           Si  tau(  60) = (   0.3128650   0.5959160   0.1693910  )
        61           Si  tau(  61) = (   0.4761700   0.6771380   0.9958200  )
        62           Si  tau(  62) = (   0.7063840   0.4551650   0.3211710  )
        63           Si  tau(  63) = (   0.4245900   0.2145530   0.2572900  )
        64           Si  tau(  64) = (   0.6815030   0.6626110   0.4405860  )

     number of k points=     1  Fermi-Dirac smearing, width (Ry)=  0.0100
                       cart. coord. in units 2pi/alat
        k(    1) = (   0.0000000   0.0000000   0.0000000), wk =   2.0000000

     Dense  grid:    91434 G-vectors     FFT dimensions: (  72,  72,  72)

     Estimated max dynamical RAM per process >     146.78 MB

     Estimated total dynamical RAM >     564.80 MB

     Initial potential from superposition of free atoms

     starting charge     255.9608, renormalised to     256.0000
     Starting wfcs are  256 randomized atomic wfcs

     total cpu time spent up to now is        4.6 secs

     Self-consistent Calculation

     iteration #  1     ecut=    30.00 Ry     beta= 0.50
     Davidson diagonalization with overlap
     ethr =  1.00E-02,  avg # of iterations =  3.0

     Threshold (ethr) on eigenvalues was too large:
     Diagonalizing with lowered threshold

     Davidson diagonalization with overlap
     ethr =  3.47E-04,  avg # of iterations =  5.0

     total cpu time spent up to now is        4.8 secs

     total energy              =    -501.32775716 Ry
     estimated scf accuracy    <       1.07369521 Ry

     iteration #  2     ecut=    30.00 Ry     beta= 0.50
     Davidson diagonalization with overlap
     ethr =  4.19E-04,  avg # of iterations =  3.0

     total cpu time spent up to now is        4.9 secs

     total energy              =    -500.97835856 Ry
     estimated scf accuracy    <       3.99423674 Ry

     iteration #  3     ecut=    30.00 Ry     beta= 0.50
     Davidson diagonalization with overlap
     ethr =  4.19E-04,  avg # of iterations =  4.0

     total cpu time spent up to now is        5.1 secs

     total energy              =    -501.32808193 Ry
     estimated scf accuracy    <       1.99419471 Ry

     iteration #  4     ecut=    30.00 Ry     beta= 0.50
     Davidson diagonalization with overlap
     ethr =  4.19E-04,  avg # of iterations =  2.0

     total cpu time spent up to now is        5.2 secs

     total energy              =    -501.47646766 Ry
     estimated scf accuracy    <       0.63871976 Ry

     iteration #  5     ecut=    30.00 Ry     beta= 0.50
     Davidson diagonalization with overlap
     ethr =  2.49E-04,  avg # of iterations =  2.0

     total cpu time spent up to now is        5.2 secs

     total energy              =    -501.51214771 Ry
     estimated scf accuracy    <       0.21580220 Ry

     iteration #  6     ecut=    30.00 Ry     beta= 0.50
     Davidson diagonalization with overlap
     ethr =  8.43E-05,  avg # of iterations =  2.0

     total cpu time spent up to now is        5.3 secs

     total energy              =    -501.53805449 Ry
     estimated scf accuracy    <       0.11378579 Ry

     iteration #  7     ecut=    30.00 Ry     beta= 0.50
     Davidson diagonalization with overlap
     ethr =  4.44E-05,  avg # of iterations =  2.0

     total cpu time spent up to now is        5.4 secs

     total energy              =    -501.54675852 Ry
     estimated scf accuracy    <       0.01066690 Ry

     iteration #  8     ecut=    30.00 Ry     beta= 0.50
     Davidson diagonalization with overlap
     ethr =  4.17E-06,  avg # of iterations = 12.0

     total cpu time spent up to now is        5.6 secs

     total energy              =    -501.54778288 Ry
     estimated scf accuracy    <       0.01990667 Ry

     iteration #  9     ecut=    30.00 Ry     beta= 0.50
     Davidson diagonalization with overlap
     ethr =  4.17E-06,  avg # of iterations =  2.0

     total cpu time spent up to now is        5.7 secs

     total energy              =    -501.54937028 Ry
     estimated scf accuracy    <       0.00271430 Ry

     iteration # 10     ecut=    30.00 Ry     beta= 0.50
     Davidson diagonalization with overlap
     ethr =  1.06E-06,  avg # of iterations =  2.0

     total cpu time spent up to now is        5.8 secs

     total energy              =    -501.54960387 Ry
     estimated scf accuracy    <       0.00080154 Ry

     iteration # 11     ecut=    30.00 Ry     beta= 0.50
     Davidson diagonalization with overlap
     ethr =  3.13E-07,  avg # of iterations =  3.0

     total cpu time spent up to now is        5.8 secs

     total energy              =    -501.54964226 Ry
     estimated scf accuracy    <       0.00086327 Ry

     iteration # 12     ecut=    30.00 Ry     beta= 0.50
     Davidson diagonalization with overlap
     ethr =  3.13E-07,  avg # of iterations =  2.0

     total cpu time spent up to now is        5.9 secs

     total energy              =    -501.54971982 Ry
     estimated scf accuracy    <       0.00016601 Ry

     iteration # 13     ecut=    30.00 Ry     beta= 0.50
     Davidson diagonalization with overlap
     ethr =  6.48E-08,  avg # of iterations =  2.0

     total cpu time spent up to now is        6.0 secs

     total energy              =    -501.54973489 Ry
     estimated scf accuracy    <       0.00007916 Ry

     iteration # 14     ecut=    30.00 Ry     beta= 0.50
     Davidson diagonalization with overlap
     ethr =  3.09E-08,  avg # of iterations =  2.0

     total cpu time spent up to now is        6.1 secs

     total energy              =    -501.54974132 Ry
     estimated scf accuracy    <       0.00001894 Ry

     iteration # 15     ecut=    30.00 Ry     beta= 0.50
     Davidson diagonalization with overlap
     ethr =  7.40E-09,  avg # of iterations =  2.0

     total cpu time spent up to now is        6.2 secs

     total energy              =    -501.54974220 Ry
     estimated scf accuracy    <       0.00000683 Ry

     iteration # 16     ecut=    30.00 Ry     beta= 0.50
     Davidson diagonalization with overlap
     ethr =  2.67E-09,  avg # of iterations =  4.0

     total cpu time spent up to now is        6.3 secs

     total energy              =    -501.54974268 Ry
     estimated scf accuracy    <       0.00001861 Ry

     iteration # 17     ecut=    30.00 Ry     beta= 0.50
     Davidson diagonalization with overlap
     ethr =  2.67E-09,  avg # of iterations =  3.0

     total cpu time spent up to now is        6.4 secs

     total energy              =    -501.54974374 Ry
     estimated scf accuracy    <       0.00000286 Ry

     iteration # 18     ecut=    30.00 Ry     beta= 0.50
     Davidson diagonalization with overlap
     ethr =  1.12E-09,  avg # of iterations =  2.0

     total cpu time spent up to now is        6.5 secs

     End of self-consistent calculation

          k = 0.0000 0.0000 0.0000 ( 11492 PWs)   bands (ev):

    -5.3924  -4.4393  -4.3469  -4.3004  -4.1737  -4.0873  -3.8853  -3.5007
    -3.3244  -3.2469  -3.1946  -3.1045  -3.0634  -3.0129  -2.9129  -2.8543
    -2.7382  -2.7088  -2.5896  -2.1305  -2.1033  -2.0081  -1.9129  -1.8014
    -1.6625  -1.5123  -1.3878  -1.0891  -1.0406  -0.7830  -0.6806  -0.5446
    -0.4007  -0.2493  -0.1817  -0.0871   0.0128   0.0834   0.1224   0.1971
     0.2433   0.3546   0.4086   0.5231   0.6264   0.6606   0.7583   0.8309
     0.8547   0.9670   1.1230   1.2468   1.3112   1.4145   1.4743   1.5935
     1.6556   1.7357   1.8051   1.9027   1.9339   2.0146   2.1720   2.2640
     2.4034   2.5095   2.5549   2.6501   2.6810   2.7669   2.8235   2.9003
     2.9635   3.0422   3.1074   3.1641   3.3849   3.4220   3.5157   3.6398
     3.7760   4.0087   4.1815   4.2884   4.3120   4.4279   4.4912   4.5913
     4.6410   4.7017   4.7938   4.8787   4.9361   4.9643   5.0042   5.1492
     5.1835   5.2242   5.2675   5.3125   5.4079   5.4735   5.5301   5.5425
     5.6163   5.7163   5.7318   5.7525   5.8343   5.8613   5.9090   5.9366
     6.0504   6.1265   6.1655   6.2002   6.2450   6.2836   6.3528   6.4253
     6.5097   6.5917   6.6483   6.7142   6.7391   6.7640   6.8218   6.8812
     7.0496   7.0957   7.1234   7.1957   7.2387   7.3058   7.3199   7.4056
     7.4289   7.5185   7.5895   7.6272   7.6407   7.7648   7.8212   7.9535
     8.0395   8.0972   8.1418   8.1749   8.2604   8.2820   8.3912   8.4139
     8.4798   8.5873

     the Fermi energy is     6.9605 ev

!    total energy              =    -501.54974366 Ry
     estimated scf accuracy    <       0.00000051 Ry
     smearing contrib. (-TS)   =      -0.14400478 Ry
     internal energy E=F+TS    =    -501.40573888 Ry

     The total energy is F=E-TS. E is the sum of the following terms:
     one-electron contribution =     186.49260382 Ry
     hartree contribution      =      23.58827881 Ry
     xc contribution           =    -150.36342388 Ry
     ewald contribution        =    -561.12319763 Ry

     convergence has been achieved in  18 iterations

     Forces acting on atoms (cartesian axes, Ry/au):

     atom    1 type  1   force =    -0.00560239    0.01670281   -0.01283782
     atom    2 type  1   force =     0.01273808    0.01573076   -0.01529552
     atom    3 type  1   force =    -0.01271093   -0.00880847    0.06017966
     atom    4 type  1   force =     0.01272088    0.00659465   -0.00343554
     atom    5 type  1   force =    -0.03091052   -0.00464889    0.03193628
     atom    6 type  1   force =     0.00993779   -0.01848729   -0.00879066
     atom    7 type  1   force =    -0.02078297   -0.00423379   -0.00400979
     atom    8 type  1   force =     0.01515815    0.00364584    0.02055757
     atom    9 type  1   force =    -0.00867215    0.00657917    0.02905657
     atom   10 type  1   force =     0.02725908   -0.03468764    0.01800333
     atom   11 type  1   force =     0.00090398   -0.00802423   -0.00469706
     atom   12 type  1   force =    -0.01386565   -0.00817030   -0.00383880
     atom   13 type  1   force =     0.03725793    0.03807093   -0.00109487
     atom   14 type  1   force =    -0.02276111    0.03237451    0.00635796
     atom   15 type  1   force =    -0.00471602    0.00187258   -0.00096821
     atom   16 type  1   force =     0.00168898   -0.01694727    0.00079713
     atom   17 type  1   force =     0.03555181    0.00891599    0.00664244
     atom   18 type  1   force =     0.00410731    0.01760688   -0.03559928
     atom   19 type  1   force =     0.01275747    0.01140354   -0.01775719
     atom   20 type  1   force =     0.04313011    0.04105409    0.00614479
     atom   21 type  1   force =     0.00504518    0.04816102    0.02072193
     atom   22 type  1   force =    -0.01818431    0.03507457    0.01603501
     atom   23 type  1   force =    -0.00741004    0.00749629    0.02124483
     atom   24 type  1   force =     0.00955218   -0.05102479   -0.01629030
     atom   25 type  1   force =    -0.00741061    0.01864665    0.00928748
     atom   26 type  1   force =    -0.04387185   -0.01077206   -0.00244735
     atom   27 type  1   force =    -0.01545815    0.01391572    0.00097138
     atom   28 type  1   force =    -0.01745507    0.00072711   -0.01265726
     atom   29 type  1   force =     0.03686190    0.02671598   -0.02753279
     atom   30 type  1   force =     0.00146405   -0.00235411   -0.00463716
     atom   31 type  1   force =     0.05208365    0.01518971    0.00187087
     atom   32 type  1   force =    -0.00099098   -0.03749265    0.00575920
     atom   33 type  1   force =    -0.02822571   -0.00314898    0.00326925
     atom   34 type  1   force =    -0.00853975    0.01156251    0.00711603
     atom   35 type  1   force =     0.02818503   -0.03808829   -0.01467710
     atom   36 type  1   force =     0.00972809   -0.00630658   -0.01575154
     atom   37 type  1   force =     0.03673000    0.00018717   -0.04831809
     atom   38 type  1   force =    -0.00145307   -0.01130319   -0.03130667
     atom   39 type  1   force =     0.01640406    0.02261506   -0.01199892
     atom   40 type  1   force =    -0.00783340   -0.01083218   -0.03740988
     atom   41 type  1   force =    -0.02422594   -0.00780819    0.02450321
     atom   42 type  1   force =    -0.01152551   -0.00146498    0.04209686
     atom   43 type  1   force =    -0.00670390   -0.02903168    0.01205635
     atom   44 type  1   force =    -0.02215628   -0.01890523   -0.00256517
     atom   45 type  1   force =     0.00643911    0.04089132    0.02359453
     atom   46 type  1   force =    -0.00401975    0.01563422   -0.02274217
     atom   47 type  1   force =    -0.00600368    0.00758821   -0.02636829
     atom   48 type  1   force =    -0.00357012   -0.00679774    0.00339166
     atom   49 type  1   force =    -0.04231376    0.02051715    0.00277898
     atom   50 type  1   force =    -0.04106078   -0.06226678    0.04654528
     atom   51 type  1   force =    -0.01837552   -0.02167479   -0.00883866
     atom   52 type  1   force =     0.04255023   -0.01583452   -0.01645180
     atom   53 type  1   force =    -0.00068010   -0.00145174    0.04250175
     atom   54 type  1   force =     0.00622141   -0.02329108    0.01088783
     atom   55 type  1   force =     0.00902186   -0.00030696    0.01304916
     atom   56 type  1   force =    -0.00317967    0.00931698   -0.00368826
     atom   57 type  1   force =     0.00773550   -0.01124597   -0.01095741
     atom   58 type  1   force =     0.02330619    0.00305038   -0.02586242
     atom   59 type  1   force =     0.01046868    0.01245497    0.01111807
     atom   60 type  1   force =     0.01290083    0.00903168   -0.00694410
     atom   61 type  1   force =    -0.03641360    0.00036217   -0.00748437
     atom   62 type  1   force =     0.00060666   -0.00132783   -0.00700551
     atom   63 type  1   force =    -0.02057094   -0.00437596   -0.03919865
     atom   64 type  1   force =    -0.01086193   -0.03857645    0.01098325

     Total force =     0.294487     Total SCF correction =     0.001389


     Computing stress (Cartesian axis) and pressure

          total   stress  (Ry/bohr**3)                   (kbar)     P=      -43.54
  -0.00033497  -0.00003325  -0.00000423          -49.28       -4.89       -0.62
  -0.00003325  -0.00033256  -0.00000824           -4.89      -48.92       -1.21
  -0.00000423  -0.00000824  -0.00022039           -0.62       -1.21      -32.42

 
     init_run     :      1.14s CPU      4.56s WALL (       1 calls)
     electrons    :      1.59s CPU      1.84s WALL (       1 calls)
     forces       :      0.03s CPU      0.03s WALL (       1 calls)
     stress       :      0.14s CPU      0.14s WALL (       1 calls)

     Called by init_run:
     wfcinit      :      0.64s CPU      3.90s WALL (       1 calls)
                                        3.90s GPU  (       1 calls)
     potinit      :      0.04s CPU      0.12s WALL (       1 calls)
     hinit0       :      0.45s CPU      0.48s WALL (       1 calls)

     Called by electrons:
     c_bands      :      1.03s CPU      1.16s WALL (      19 calls)
     sum_band     :      0.29s CPU      0.35s WALL (      19 calls)
     v_of_rho     :      0.12s CPU      0.21s WALL (      19 calls)
     mix_rho      :      0.13s CPU      0.18s WALL (      19 calls)

     Called by c_bands:
     init_us_2    :      0.05s CPU      0.05s WALL (      39 calls)
     init_us_2:gp :      0.05s CPU      0.05s WALL (      39 calls)
     regterg      :      0.89s CPU      1.01s WALL (      19 calls)

     Called by *egterg:
     rdiaghg      :      0.38s CPU      1.17s WALL (      77 calls)
                                        1.15s GPU  (      77 calls)
     h_psi        :      0.98s CPU      3.53s WALL (      79 calls)
                                        3.53s GPU  (      79 calls)
     g_psi        :      0.00s CPU      0.00s WALL (      59 calls)
                                        0.00s GPU  (      59 calls)

     Called by h_psi:
     h_psi:calbec :      0.60s CPU      3.08s WALL (      79 calls)
                                        3.08s GPU  (      79 calls)
     vloc_psi     :      0.34s CPU      0.40s WALL (      79 calls)
                                        0.40s GPU  (      79 calls)
     add_vuspsi   :      0.03s CPU      0.04s WALL (      79 calls)
                                        0.04s GPU  (      79 calls)

     General routines
     calbec       :      0.60s CPU      3.08s WALL (      84 calls)
     fft          :      0.54s CPU      0.65s WALL (     159 calls)
                                        0.12s GPU  (     101 calls)
     ffts         :      0.03s CPU      0.03s WALL (      19 calls)
     fftw         :      0.42s CPU      0.56s WALL (    1987 calls)
                                        0.49s GPU  (    1987 calls)
 
     Parallel routines
 
     PWSCF        :      2.94s CPU      6.65s WALL

 
   This run was terminated on:  10:43:15  10May2023            

=------------------------------------------------------------------------------=
   JOB DONE.
=------------------------------------------------------------------------------=
