An instance of this daemon is already running
An instance of this daemon is already running

     Program PWSCF v.7.1 starts on 10May2023 at 10:53:58 

     This program is part of the open-source Quantum ESPRESSO suite
     for quantum simulation of materials; please cite
         "P. Giannozzi et al., J. Phys.:Condens. Matter 21 395502 (2009);
         "P. Giannozzi et al., J. Phys.:Condens. Matter 29 465901 (2017);
         "P. Giannozzi et al., J. Chem. Phys. 152 154105 (2020);
          URL http://www.quantum-espresso.org", 
     in publications or presentations arising from this work. More details at
     http://www.quantum-espresso.org/quote

     Parallel version (MPI & OpenMP), running on       4 processor cores
     Number of MPI processes:                 4
     Threads/MPI process:                     1

     MPI processes distributed on     1 nodes
     153132 MiB available memory on the printing compute node when the environment starts
 
     Reading input from pw-si-90.in
Warning: card &CELL ignored
Warning: card / ignored

     Current dimensions of program PWSCF are:
     Max number of different atomic species (ntypx) = 10
     Max number of k-points (npk) =  40000
     Max angular momentum in pseudopotentials (lmaxx) =  4

     IMPORTANT: XC functional enforced from input :
     Exchange-correlation= PBE
                           (   1   4   3   4   0   0   0)
     Any further DFT definition will be discarded
     Please, verify this is what you really want


     gamma-point specific algorithms are used
 
     K-points division:     npool     =       2
     R & G space division:  proc/nbgrp/npool/nimage =       2
     Subspace diagonalization in iterative solution of the eigenvalue problem:
     a serial algorithm will be used

     Message from routine divide_et_impera:
     suboptimal parallelization: some nodes have no k-points
 
     Parallelization info
     --------------------
     sticks:   dense  smooth     PW     G-vecs:    dense   smooth      PW
     Min        1942    1942    516                90833    90833   12416
     Max        1943    1943    517                90834    90834   12421
     Sum        3885    3885   1033               181667   181667   24837
 
     Using Slab Decomposition
 


     bravais-lattice index     =            0
     lattice parameter (alat)  =      20.1489  a.u.
     unit-cell volume          =    8179.9587 (a.u.)^3
     number of atoms/cell      =           64
     number of atomic types    =            1
     number of electrons       =       256.00
     number of Kohn-Sham states=          154
     kinetic-energy cutoff     =      30.0000  Ry
     charge density cutoff     =     120.0000  Ry
     scf convergence threshold =      1.0E-06
     mixing beta               =       0.5000
     number of iterations used =            8  plain     mixing
     Exchange-correlation= PBE
                           (   1   4   3   4   0   0   0)

     GPU acceleration is ACTIVE.
     GPU-aware MPI enabled

     Message from routine print_cuda_info:
     High GPU oversubscription detected. Are you sure this is what you want?

     celldm(1)=  20.148855  celldm(2)=   0.000000  celldm(3)=   0.000000
     celldm(4)=   0.000000  celldm(5)=   0.000000  celldm(6)=   0.000000

     crystal axes: (cart. coord. in units of alat)
               a(1) = (   1.000000   0.000000   0.000000 )  
               a(2) = (   0.000000   1.000000   0.000000 )  
               a(3) = (   0.000000   0.000000   1.000000 )  

     reciprocal axes: (cart. coord. in units 2 pi/alat)
               b(1) = (  1.000000  0.000000  0.000000 )  
               b(2) = (  0.000000  1.000000  0.000000 )  
               b(3) = (  0.000000  0.000000  1.000000 )  


     PseudoPot. # 1 for Si read from file:
     /home/ppiaggi/pseudos/Si_ONCV_PBE_sr.upf
     MD5 check sum: 8553c464762ac42b85b1eed164b4d029
     Pseudo is Norm-conserving, Zval =  4.0
     Generated using ONCVPSP code by D. R. Hamann
     Using radial grid of 1510 points,  4 beta functions with: 
                l(1) =   0
                l(2) =   0
                l(3) =   1
                l(4) =   1

     atomic species   valence    mass     pseudopotential
        Si             4.00    28.08500     Si( 1.00)

     No symmetry found



   Cartesian axes

     site n.     atom                  positions (alat units)
         1           Si  tau(   1) = (   0.5458590   0.5187250   0.5436520  )
         2           Si  tau(   2) = (   0.8205530   0.2622620   0.6554760  )
         3           Si  tau(   3) = (   0.5176050   0.6232360   0.1877280  )
         4           Si  tau(   4) = (   0.5181280   0.6305560   0.8960840  )
         5           Si  tau(   5) = (   0.2120940   0.3966310   0.5380360  )
         6           Si  tau(   6) = (   0.5989950   0.7992450   0.4361310  )
         7           Si  tau(   7) = (   0.0806235   0.6203670   0.0831149  )
         8           Si  tau(   8) = (   0.3509230   0.7994800   0.8465560  )
         9           Si  tau(   9) = (   0.0102231   0.7677300   0.7200540  )
        10           Si  tau(  10) = (   0.5894500   0.0542609   0.9379850  )
        11           Si  tau(  11) = (   0.3992630   0.3613480   0.0790501  )
        12           Si  tau(  12) = (   0.9287720   0.5855580   0.2992040  )
        13           Si  tau(  13) = (   0.7734790   0.2164980   0.1935350  )
        14           Si  tau(  14) = (   0.0393624   0.5299970   0.6383940  )
        15           Si  tau(  15) = (   0.8178440   0.5551860   0.1010500  )
        16           Si  tau(  16) = (   0.0402826   0.0730710   0.4103780  )
        17           Si  tau(  17) = (   0.9296880   0.7979760   0.2486130  )
        18           Si  tau(  18) = (   0.4308300   0.4162750   0.3088740  )
        19           Si  tau(  19) = (   0.9671460   0.3992260   0.4042830  )
        20           Si  tau(  20) = (   0.6297990   0.4175710   0.9753900  )
        21           Si  tau(  21) = (   0.7368470   0.4159620   0.4773150  )
        22           Si  tau(  22) = (   0.3630330   0.7832150   0.1063420  )
        23           Si  tau(  23) = (   0.2957470   0.6404110   0.6839650  )
        24           Si  tau(  24) = (   0.8560120   0.4443870   0.7676380  )
        25           Si  tau(  25) = (   0.5215480   0.2711730   0.8526960  )
        26           Si  tau(  26) = (   0.0936445   0.7031840   0.4794880  )
        27           Si  tau(  27) = (   0.6931290   0.0054622   0.4908330  )
        28           Si  tau(  28) = (   0.6527490   0.5778090   0.7177010  )
        29           Si  tau(  29) = (   0.4009560   0.4093200   0.6752780  )
        30           Si  tau(  30) = (   0.3401970   0.1660390   0.9795770  )
        31           Si  tau(  31) = (   0.2848660   0.8540600   0.5452950  )
        32           Si  tau(  32) = (   0.2129730   0.1919250   0.7700010  )
        33           Si  tau(  33) = (   0.1392970   0.1488560   0.0657644  )
        34           Si  tau(  34) = (   0.8478270   0.0277301   0.7124940  )
        35           Si  tau(  35) = (   0.0476157   0.2518490   0.5848530  )
        36           Si  tau(  36) = (   0.4066800   0.9469720   0.3367730  )
        37           Si  tau(  37) = (   0.1781740   0.4662400   0.8356200  )
        38           Si  tau(  38) = (   0.6740310   0.4324900   0.2702860  )
        39           Si  tau(  39) = (   0.3098150   0.5583110   0.9834360  )
        40           Si  tau(  40) = (   0.3009740   0.1347710   0.5102910  )
        41           Si  tau(  41) = (   0.1963920   0.9873640   0.2478270  )
        42           Si  tau(  42) = (   0.7733040   0.9296710   0.9403040  )
        43           Si  tau(  43) = (   0.6225400   0.0547411   0.2613240  )
        44           Si  tau(  44) = (   0.9054230   0.8926030   0.4463120  )
        45           Si  tau(  45) = (   0.1924840   0.7418060   0.2458340  )
        46           Si  tau(  46) = (   0.7998430   0.6779380   0.5048580  )
        47           Si  tau(  47) = (   0.5949930   0.2447210   0.6044240  )
        48           Si  tau(  48) = (   0.7996640   0.7832570   0.7090580  )
        49           Si  tau(  49) = (   0.9656930   0.2268060   0.2604760  )
        50           Si  tau(  50) = (   0.9774520   0.1038920   0.8894340  )
        51           Si  tau(  51) = (   0.4629920   0.9893180   0.0927370  )
        52           Si  tau(  52) = (   0.8152160   0.2255000   0.9744250  )
        53           Si  tau(  53) = (   0.1282600   0.3789140   0.1109630  )
        54           Si  tau(  54) = (   0.9372290   0.4197930   0.9745930  )
        55           Si  tau(  55) = (   0.6922940   0.7159110   0.0039485  )
        56           Si  tau(  56) = (   0.1058570   0.9842770   0.6542270  )
        57           Si  tau(  57) = (   0.5829470   0.9734310   0.7062840  )
        58           Si  tau(  58) = (   0.0086723   0.9083960   0.0405023  )
        59           Si  tau(  59) = (   0.7061870   0.8071010   0.2137050  )
        60           Si  tau(  60) = (   0.5036150   0.2044370   0.3984820  )
        61           Si  tau(  61) = (   0.1410990   0.7728180   0.9081250  )
        62           Si  tau(  62) = (   0.3693130   0.9959740   0.7321130  )
        63           Si  tau(  63) = (   0.2014790   0.4911960   0.3487220  )
        64           Si  tau(  64) = (   0.3922440   0.6936880   0.3999850  )

     number of k points=     1  Fermi-Dirac smearing, width (Ry)=  0.0100
                       cart. coord. in units 2pi/alat
        k(    1) = (   0.0000000   0.0000000   0.0000000), wk =   2.0000000

     Dense  grid:    90834 G-vectors     FFT dimensions: (  72,  72,  72)

     Estimated max dynamical RAM per process >     145.72 MB

     Estimated total dynamical RAM >     560.69 MB

     Initial potential from superposition of free atoms

     starting charge     255.9608, renormalised to     256.0000
     Starting wfcs are  256 randomized atomic wfcs

     total cpu time spent up to now is        4.2 secs

     Self-consistent Calculation

     iteration #  1     ecut=    30.00 Ry     beta= 0.50
     Davidson diagonalization with overlap
     ethr =  1.00E-02,  avg # of iterations =  3.0

     Threshold (ethr) on eigenvalues was too large:
     Diagonalizing with lowered threshold

     Davidson diagonalization with overlap
     ethr =  4.08E-04,  avg # of iterations =  4.0

     total cpu time spent up to now is        4.4 secs

     total energy              =    -501.17907049 Ry
     estimated scf accuracy    <       1.23574739 Ry

     iteration #  2     ecut=    30.00 Ry     beta= 0.50
     Davidson diagonalization with overlap
     ethr =  4.83E-04,  avg # of iterations =  5.0

     total cpu time spent up to now is        4.5 secs

     total energy              =    -500.56398087 Ry
     estimated scf accuracy    <       7.74371938 Ry

     iteration #  3     ecut=    30.00 Ry     beta= 0.50
     Davidson diagonalization with overlap
     ethr =  4.83E-04,  avg # of iterations =  4.0

     total cpu time spent up to now is        4.6 secs

     total energy              =    -501.27821699 Ry
     estimated scf accuracy    <       1.84364568 Ry

     iteration #  4     ecut=    30.00 Ry     beta= 0.50
     Davidson diagonalization with overlap
     ethr =  4.83E-04,  avg # of iterations =  2.0

     total cpu time spent up to now is        4.7 secs

     total energy              =    -501.37544901 Ry
     estimated scf accuracy    <       0.63212143 Ry

     iteration #  5     ecut=    30.00 Ry     beta= 0.50
     Davidson diagonalization with overlap
     ethr =  2.47E-04,  avg # of iterations =  2.0

     total cpu time spent up to now is        4.8 secs

     total energy              =    -501.40893924 Ry
     estimated scf accuracy    <       0.48442322 Ry

     iteration #  6     ecut=    30.00 Ry     beta= 0.50
     Davidson diagonalization with overlap
     ethr =  1.89E-04,  avg # of iterations =  2.0

     total cpu time spent up to now is        4.8 secs

     total energy              =    -501.45390979 Ry
     estimated scf accuracy    <       0.08765747 Ry

     iteration #  7     ecut=    30.00 Ry     beta= 0.50
     Davidson diagonalization with overlap
     ethr =  3.42E-05,  avg # of iterations =  2.0

     total cpu time spent up to now is        4.9 secs

     total energy              =    -501.46333021 Ry
     estimated scf accuracy    <       0.00936937 Ry

     iteration #  8     ecut=    30.00 Ry     beta= 0.50
     Davidson diagonalization with overlap
     ethr =  3.66E-06,  avg # of iterations = 11.0

     total cpu time spent up to now is        5.1 secs

     total energy              =    -501.46356271 Ry
     estimated scf accuracy    <       0.02521806 Ry

     iteration #  9     ecut=    30.00 Ry     beta= 0.50
     Davidson diagonalization with overlap
     ethr =  3.66E-06,  avg # of iterations =  3.0

     total cpu time spent up to now is        5.2 secs

     total energy              =    -501.46561587 Ry
     estimated scf accuracy    <       0.00319317 Ry

     iteration # 10     ecut=    30.00 Ry     beta= 0.50
     Davidson diagonalization with overlap
     ethr =  1.25E-06,  avg # of iterations =  3.0

     total cpu time spent up to now is        5.3 secs

     total energy              =    -501.46589708 Ry
     estimated scf accuracy    <       0.00059905 Ry

     iteration # 11     ecut=    30.00 Ry     beta= 0.50
     Davidson diagonalization with overlap
     ethr =  2.34E-07,  avg # of iterations =  2.0

     total cpu time spent up to now is        5.3 secs

     total energy              =    -501.46593209 Ry
     estimated scf accuracy    <       0.00041683 Ry

     iteration # 12     ecut=    30.00 Ry     beta= 0.50
     Davidson diagonalization with overlap
     ethr =  1.63E-07,  avg # of iterations =  3.0

     total cpu time spent up to now is        5.4 secs

     total energy              =    -501.46596929 Ry
     estimated scf accuracy    <       0.00047404 Ry

     iteration # 13     ecut=    30.00 Ry     beta= 0.50
     Davidson diagonalization with overlap
     ethr =  1.63E-07,  avg # of iterations =  2.0

     total cpu time spent up to now is        5.5 secs

     total energy              =    -501.46600538 Ry
     estimated scf accuracy    <       0.00001917 Ry

     iteration # 14     ecut=    30.00 Ry     beta= 0.50
     Davidson diagonalization with overlap
     ethr =  7.49E-09,  avg # of iterations =  4.0

     total cpu time spent up to now is        5.6 secs

     total energy              =    -501.46600858 Ry
     estimated scf accuracy    <       0.00003110 Ry

     iteration # 15     ecut=    30.00 Ry     beta= 0.50
     Davidson diagonalization with overlap
     ethr =  7.49E-09,  avg # of iterations =  2.0

     total cpu time spent up to now is        5.7 secs

     total energy              =    -501.46601016 Ry
     estimated scf accuracy    <       0.00001188 Ry

     iteration # 16     ecut=    30.00 Ry     beta= 0.50
     Davidson diagonalization with overlap
     ethr =  4.64E-09,  avg # of iterations =  2.0

     total cpu time spent up to now is        5.8 secs

     total energy              =    -501.46601108 Ry
     estimated scf accuracy    <       0.00001006 Ry

     iteration # 17     ecut=    30.00 Ry     beta= 0.50
     Davidson diagonalization with overlap
     ethr =  3.93E-09,  avg # of iterations =  1.0

     total cpu time spent up to now is        5.9 secs

     total energy              =    -501.46601173 Ry
     estimated scf accuracy    <       0.00000102 Ry

     iteration # 18     ecut=    30.00 Ry     beta= 0.50
     Davidson diagonalization with overlap
     ethr =  3.98E-10,  avg # of iterations =  3.0

     total cpu time spent up to now is        6.0 secs

     total energy              =    -501.46601182 Ry
     estimated scf accuracy    <       0.00000133 Ry

     iteration # 19     ecut=    30.00 Ry     beta= 0.50
     Davidson diagonalization with overlap
     ethr =  3.98E-10,  avg # of iterations =  2.0

     total cpu time spent up to now is        6.1 secs

     End of self-consistent calculation

          k = 0.0000 0.0000 0.0000 ( 11372 PWs)   bands (ev):

    -5.3943  -4.4267  -4.3273  -4.2570  -4.2472  -4.1083  -3.9792  -3.4184
    -3.3264  -3.2263  -3.1481  -3.1034  -3.0685  -3.0165  -2.9703  -2.8241
    -2.6419  -2.6260  -2.4640  -2.1122  -2.0067  -1.9143  -1.8799  -1.7388
    -1.6505  -1.5648  -1.2832  -1.0589  -0.8571  -0.7604  -0.5141  -0.3505
    -0.2919  -0.2607  -0.0953  -0.0012   0.1029   0.1464   0.2077   0.2529
     0.3002   0.4572   0.4948   0.5700   0.5965   0.7359   0.7722   0.7991
     0.9327   0.9858   1.1449   1.2597   1.3353   1.4532   1.4895   1.6569
     1.7171   1.8112   1.9164   2.0208   2.0685   2.2026   2.3268   2.3684
     2.4568   2.5340   2.6480   2.6934   2.7747   2.8461   2.9014   2.9199
     3.0380   3.1085   3.2585   3.3620   3.4158   3.5095   3.5745   3.7825
     3.9542   4.0524   4.1854   4.2762   4.3195   4.4437   4.5901   4.6383
     4.7206   4.8242   4.8477   4.9101   5.0204   5.0468   5.1052   5.1789
     5.2134   5.2963   5.3882   5.4216   5.4470   5.5132   5.5524   5.6665
     5.6995   5.7386   5.7723   5.8253   5.8735   5.9688   6.0416   6.1318
     6.1801   6.2314   6.2690   6.3647   6.4178   6.5040   6.5703   6.5908
     6.6303   6.6837   6.7216   6.7749   6.8005   6.8798   6.9565   6.9716
     7.0185   7.1147   7.1631   7.2208   7.3291   7.3554   7.4083   7.4997
     7.5261   7.5980   7.6713   7.7504   7.8150   7.8962   7.9616   7.9854
     8.0358   8.1602   8.2490   8.3159   8.4001   8.4911   8.5348   8.6051
     8.6837   8.7376

     the Fermi energy is     7.0279 ev

!    total energy              =    -501.46601178 Ry
     estimated scf accuracy    <       0.00000020 Ry
     smearing contrib. (-TS)   =      -0.15645926 Ry
     internal energy E=F+TS    =    -501.30955252 Ry

     The total energy is F=E-TS. E is the sum of the following terms:
     one-electron contribution =     185.23633630 Ry
     hartree contribution      =      25.10449851 Ry
     xc contribution           =    -150.71859691 Ry
     ewald contribution        =    -560.93179042 Ry

     convergence has been achieved in  19 iterations

     Forces acting on atoms (cartesian axes, Ry/au):

     atom    1 type  1   force =    -0.02951083   -0.00738664   -0.01965733
     atom    2 type  1   force =     0.00395732   -0.02122317   -0.01500281
     atom    3 type  1   force =     0.00825474    0.01130334    0.01420265
     atom    4 type  1   force =     0.00817471   -0.01712848   -0.00826740
     atom    5 type  1   force =     0.01823297   -0.03781600    0.04815193
     atom    6 type  1   force =     0.01623930   -0.00911705   -0.04146666
     atom    7 type  1   force =     0.00479101   -0.00198808    0.00592624
     atom    8 type  1   force =     0.01035301   -0.00181719    0.00319611
     atom    9 type  1   force =     0.05990732    0.00668745   -0.00873591
     atom   10 type  1   force =     0.03836782    0.02544772   -0.07110582
     atom   11 type  1   force =     0.00388813    0.02287348    0.01961090
     atom   12 type  1   force =    -0.01196200    0.00962443   -0.00121350
     atom   13 type  1   force =    -0.08875307    0.01772098   -0.02283468
     atom   14 type  1   force =     0.00344379    0.01933763   -0.00031739
     atom   15 type  1   force =    -0.00220679   -0.00957634    0.01606652
     atom   16 type  1   force =     0.03346278   -0.00058806    0.00349926
     atom   17 type  1   force =     0.00579341    0.02462314   -0.03391587
     atom   18 type  1   force =     0.00538510   -0.02012110   -0.03438354
     atom   19 type  1   force =     0.00073429   -0.01939554    0.03024178
     atom   20 type  1   force =    -0.01357835    0.01139442   -0.00141661
     atom   21 type  1   force =     0.02659387    0.00839121    0.02413355
     atom   22 type  1   force =     0.02277553   -0.01374962   -0.01587716
     atom   23 type  1   force =    -0.00695544   -0.01960318    0.01104509
     atom   24 type  1   force =    -0.00306828    0.02615165    0.00402303
     atom   25 type  1   force =    -0.00847933   -0.02713548   -0.02733528
     atom   26 type  1   force =    -0.00231061   -0.00137168    0.00262416
     atom   27 type  1   force =     0.01746255   -0.01934865   -0.00143364
     atom   28 type  1   force =     0.04398949    0.02833890    0.04969407
     atom   29 type  1   force =    -0.03172076   -0.00527530    0.00818908
     atom   30 type  1   force =     0.01692710   -0.01061185   -0.00406661
     atom   31 type  1   force =    -0.02251155    0.01377900   -0.00109245
     atom   32 type  1   force =    -0.01948671    0.00494429   -0.00697483
     atom   33 type  1   force =    -0.02089579   -0.01967274    0.02149366
     atom   34 type  1   force =     0.01235860   -0.00627385    0.02363755
     atom   35 type  1   force =     0.00440987   -0.02500747   -0.01702138
     atom   36 type  1   force =    -0.01839025   -0.00120678    0.00903998
     atom   37 type  1   force =    -0.00123085   -0.00458638   -0.03388834
     atom   38 type  1   force =    -0.00365214   -0.02730266   -0.05779595
     atom   39 type  1   force =     0.01586258   -0.00841028    0.02877582
     atom   40 type  1   force =    -0.00339313   -0.00472722    0.00016317
     atom   41 type  1   force =    -0.02207434    0.00144812    0.00630928
     atom   42 type  1   force =     0.03761743   -0.01604418   -0.02294976
     atom   43 type  1   force =    -0.00209356    0.00466830    0.00698031
     atom   44 type  1   force =    -0.00584122    0.01520949    0.02817656
     atom   45 type  1   force =    -0.00851684    0.00648886    0.02518432
     atom   46 type  1   force =     0.00309732   -0.02421479   -0.02350002
     atom   47 type  1   force =    -0.00192683    0.00758082   -0.00115623
     atom   48 type  1   force =    -0.04136817    0.00518055    0.00498585
     atom   49 type  1   force =     0.08269790    0.01133067    0.01394708
     atom   50 type  1   force =     0.01881111   -0.02556370    0.00269706
     atom   51 type  1   force =    -0.02923161    0.00636438    0.04743045
     atom   52 type  1   force =    -0.02916474    0.02786270    0.01297869
     atom   53 type  1   force =    -0.01074953    0.00266905    0.01650323
     atom   54 type  1   force =     0.02531995   -0.00714231   -0.00409314
     atom   55 type  1   force =    -0.00221579    0.02128560    0.01826825
     atom   56 type  1   force =    -0.01564167   -0.01464435   -0.00392078
     atom   57 type  1   force =     0.02195834    0.01304106    0.00642298
     atom   58 type  1   force =    -0.01531821    0.01846215    0.00106431
     atom   59 type  1   force =    -0.03568164    0.00417903    0.01778050
     atom   60 type  1   force =    -0.00989051    0.01788201    0.01534754
     atom   61 type  1   force =    -0.04662222   -0.00480634    0.00587807
     atom   62 type  1   force =    -0.02481190   -0.00153682   -0.01656410
     atom   63 type  1   force =    -0.00198955    0.04555810   -0.05317810
     atom   64 type  1   force =     0.02037685   -0.00543524   -0.00450368

     Total force =     0.308965     Total SCF correction =     0.000904


     Computing stress (Cartesian axis) and pressure

          total   stress  (Ry/bohr**3)                   (kbar)     P=      -34.07
  -0.00017570   0.00005922   0.00006274          -25.85        8.71        9.23
   0.00005922  -0.00031236   0.00003427            8.71      -45.95        5.04
   0.00006274   0.00003427  -0.00020684            9.23        5.04      -30.43

 
     init_run     :      0.90s CPU      4.10s WALL (       1 calls)
     electrons    :      1.72s CPU      1.89s WALL (       1 calls)
     forces       :      0.03s CPU      0.03s WALL (       1 calls)
     stress       :      0.14s CPU      0.14s WALL (       1 calls)

     Called by init_run:
     wfcinit      :      0.40s CPU      3.45s WALL (       1 calls)
                                        3.45s GPU  (       1 calls)
     potinit      :      0.03s CPU      0.12s WALL (       1 calls)
     hinit0       :      0.45s CPU      0.47s WALL (       1 calls)

     Called by electrons:
     c_bands      :      1.11s CPU      1.21s WALL (      20 calls)
     sum_band     :      0.32s CPU      0.37s WALL (      20 calls)
     v_of_rho     :      0.13s CPU      0.22s WALL (      20 calls)
     mix_rho      :      0.14s CPU      0.15s WALL (      20 calls)

     Called by c_bands:
     init_us_2    :      0.05s CPU      0.05s WALL (      41 calls)
     init_us_2:gp :      0.05s CPU      0.05s WALL (      41 calls)
     regterg      :      0.95s CPU      1.04s WALL (      20 calls)

     Called by *egterg:
     rdiaghg      :      0.39s CPU      1.01s WALL (      81 calls)
                                        0.99s GPU  (      81 calls)
     h_psi        :      0.80s CPU      3.27s WALL (      83 calls)
                                        3.27s GPU  (      83 calls)
     g_psi        :      0.00s CPU      0.00s WALL (      62 calls)
                                        0.00s GPU  (      62 calls)

     Called by h_psi:
     h_psi:calbec :      0.38s CPU      2.79s WALL (      83 calls)
                                        2.79s GPU  (      83 calls)
     vloc_psi     :      0.37s CPU      0.43s WALL (      83 calls)
                                        0.43s GPU  (      83 calls)
     add_vuspsi   :      0.03s CPU      0.04s WALL (      83 calls)
                                        0.04s GPU  (      83 calls)

     General routines
     calbec       :      0.38s CPU      2.79s WALL (      88 calls)
     fft          :      0.54s CPU      0.65s WALL (     167 calls)
                                        0.11s GPU  (     106 calls)
     ffts         :      0.03s CPU      0.03s WALL (      20 calls)
     fftw         :      0.46s CPU      0.59s WALL (    2094 calls)
                                        0.52s GPU  (    2094 calls)
 
     Parallel routines
 
     PWSCF        :      2.83s CPU      6.23s WALL

 
   This run was terminated on:  10:54: 4  10May2023            

=------------------------------------------------------------------------------=
   JOB DONE.
=------------------------------------------------------------------------------=
