An instance of this daemon is already running
An instance of this daemon is already running

     Program PWSCF v.7.1 starts on 10May2023 at 10:51:25 

     This program is part of the open-source Quantum ESPRESSO suite
     for quantum simulation of materials; please cite
         "P. Giannozzi et al., J. Phys.:Condens. Matter 21 395502 (2009);
         "P. Giannozzi et al., J. Phys.:Condens. Matter 29 465901 (2017);
         "P. Giannozzi et al., J. Chem. Phys. 152 154105 (2020);
          URL http://www.quantum-espresso.org", 
     in publications or presentations arising from this work. More details at
     http://www.quantum-espresso.org/quote

     Parallel version (MPI & OpenMP), running on       4 processor cores
     Number of MPI processes:                 4
     Threads/MPI process:                     1

     MPI processes distributed on     1 nodes
     153152 MiB available memory on the printing compute node when the environment starts
 
     Reading input from pw-si-73.in
Warning: card &CELL ignored
Warning: card / ignored

     Current dimensions of program PWSCF are:
     Max number of different atomic species (ntypx) = 10
     Max number of k-points (npk) =  40000
     Max angular momentum in pseudopotentials (lmaxx) =  4

     IMPORTANT: XC functional enforced from input :
     Exchange-correlation= PBE
                           (   1   4   3   4   0   0   0)
     Any further DFT definition will be discarded
     Please, verify this is what you really want


     gamma-point specific algorithms are used
 
     K-points division:     npool     =       2
     R & G space division:  proc/nbgrp/npool/nimage =       2
     Subspace diagonalization in iterative solution of the eigenvalue problem:
     a serial algorithm will be used

     Message from routine divide_et_impera:
     suboptimal parallelization: some nodes have no k-points
 
     Parallelization info
     --------------------
     sticks:   dense  smooth     PW     G-vecs:    dense   smooth      PW
     Min        1904    1904    502                88752    88752   12054
     Max        1905    1905    503                88757    88757   12057
     Sum        3809    3809   1005               177509   177509   24111
 
     Using Slab Decomposition
 


     bravais-lattice index     =            0
     lattice parameter (alat)  =      19.9853  a.u.
     unit-cell volume          =    7982.3740 (a.u.)^3
     number of atoms/cell      =           64
     number of atomic types    =            1
     number of electrons       =       256.00
     number of Kohn-Sham states=          154
     kinetic-energy cutoff     =      30.0000  Ry
     charge density cutoff     =     120.0000  Ry
     scf convergence threshold =      1.0E-06
     mixing beta               =       0.5000
     number of iterations used =            8  plain     mixing
     Exchange-correlation= PBE
                           (   1   4   3   4   0   0   0)

     GPU acceleration is ACTIVE.
     GPU-aware MPI enabled

     Message from routine print_cuda_info:
     High GPU oversubscription detected. Are you sure this is what you want?

     celldm(1)=  19.985301  celldm(2)=   0.000000  celldm(3)=   0.000000
     celldm(4)=   0.000000  celldm(5)=   0.000000  celldm(6)=   0.000000

     crystal axes: (cart. coord. in units of alat)
               a(1) = (   1.000000   0.000000   0.000000 )  
               a(2) = (   0.000000   1.000000   0.000000 )  
               a(3) = (   0.000000   0.000000   1.000000 )  

     reciprocal axes: (cart. coord. in units 2 pi/alat)
               b(1) = (  1.000000  0.000000  0.000000 )  
               b(2) = (  0.000000  1.000000  0.000000 )  
               b(3) = (  0.000000  0.000000  1.000000 )  


     PseudoPot. # 1 for Si read from file:
     /home/ppiaggi/pseudos/Si_ONCV_PBE_sr.upf
     MD5 check sum: 8553c464762ac42b85b1eed164b4d029
     Pseudo is Norm-conserving, Zval =  4.0
     Generated using ONCVPSP code by D. R. Hamann
     Using radial grid of 1510 points,  4 beta functions with: 
                l(1) =   0
                l(2) =   0
                l(3) =   1
                l(4) =   1

     atomic species   valence    mass     pseudopotential
        Si             4.00    28.08500     Si( 1.00)

     No symmetry found



   Cartesian axes

     site n.     atom                  positions (alat units)
         1           Si  tau(   1) = (   0.0695620   0.7752070   0.0659095  )
         2           Si  tau(   2) = (   0.8493350   0.2537600   0.7955680  )
         3           Si  tau(   3) = (   0.8816320   0.0794681   0.2032920  )
         4           Si  tau(   4) = (   0.1806890   0.7784180   0.5708010  )
         5           Si  tau(   5) = (   0.0082652   0.5048300   0.7552330  )
         6           Si  tau(   6) = (   0.0888890   0.5346990   0.9619800  )
         7           Si  tau(   7) = (   0.3359450   0.3977750   0.1485120  )
         8           Si  tau(   8) = (   0.5658760   0.9357040   0.7221550  )
         9           Si  tau(   9) = (   0.5269210   0.2310010   0.3780710  )
        10           Si  tau(  10) = (   0.2618700   0.6435150   0.1099180  )
        11           Si  tau(  11) = (   0.9084890   0.7341800   0.8167320  )
        12           Si  tau(  12) = (   0.8183650   0.8426350   0.5572950  )
        13           Si  tau(  13) = (   0.7963810   0.4883500   0.8955820  )
        14           Si  tau(  14) = (   0.1650750   0.3958820   0.6344170  )
        15           Si  tau(  15) = (   0.7205490   0.0734361   0.8605880  )
        16           Si  tau(  16) = (   0.3908350   0.0643877   0.7817440  )
        17           Si  tau(  17) = (   0.3473670   0.7493590   0.3210460  )
        18           Si  tau(  18) = (   0.3223540   0.5726880   0.5350650  )
        19           Si  tau(  19) = (   0.3717930   0.9057730   0.5000620  )
        20           Si  tau(  20) = (   0.5245550   0.3836950   0.5690650  )
        21           Si  tau(  21) = (   0.5080830   0.7113480   0.6228070  )
        22           Si  tau(  22) = (   0.3085950   0.1094330   0.4232810  )
        23           Si  tau(  23) = (   0.5772140   0.7297370   0.8583930  )
        24           Si  tau(  24) = (   0.3756120   0.2011620   0.9885120  )
        25           Si  tau(  25) = (   0.5077340   0.6454140   0.1125010  )
        26           Si  tau(  26) = (   0.1422350   0.0428682   0.7271710  )
        27           Si  tau(  27) = (   0.9768620   0.6287840   0.5479790  )
        28           Si  tau(  28) = (   0.9359230   0.4391090   0.0992445  )
        29           Si  tau(  29) = (   0.7271330   0.1146780   0.4098570  )
        30           Si  tau(  30) = (   0.0811545   0.2365090   0.8352150  )
        31           Si  tau(  31) = (   0.3296170   0.9139070   0.9794330  )
        32           Si  tau(  32) = (   0.2452800   0.3864980   0.9178640  )
        33           Si  tau(  33) = (   0.3268750   0.6757460   0.8591060  )
        34           Si  tau(  34) = (   0.7252550   0.6173560   0.4215530  )
        35           Si  tau(  35) = (   0.5211830   0.8749550   0.1315290  )
        36           Si  tau(  36) = (   0.0232951   0.2243660   0.0734193  )
        37           Si  tau(  37) = (   0.0455705   0.2640030   0.4777520  )
        38           Si  tau(  38) = (   0.0046029   0.5274680   0.3313640  )
        39           Si  tau(  39) = (   0.9160910   0.9265670   0.3591800  )
        40           Si  tau(  40) = (   0.8700020   0.1780480   0.5767400  )
        41           Si  tau(  41) = (   0.7323120   0.6347620   0.6980390  )
        42           Si  tau(  42) = (   0.7694620   0.2918120   0.2033050  )
        43           Si  tau(  43) = (   0.8746870   0.6719610   0.1959270  )
        44           Si  tau(  44) = (   0.8318380   0.3924310   0.4055220  )
        45           Si  tau(  45) = (   0.5656790   0.4565630   0.9495850  )
        46           Si  tau(  46) = (   0.6127760   0.9092920   0.4698100  )
        47           Si  tau(  47) = (   0.1621710   0.2386060   0.2788010  )
        48           Si  tau(  48) = (   0.0939010   0.0318904   0.4912830  )
        49           Si  tau(  49) = (   0.1460270   0.8076590   0.8022060  )
        50           Si  tau(  50) = (   0.8885470   0.9638310   0.7179900  )
        51           Si  tau(  51) = (   0.5264390   0.3918580   0.2367400  )
        52           Si  tau(  52) = (   0.9952290   0.9849620   0.9648850  )
        53           Si  tau(  53) = (   0.3560340   0.2331340   0.6258010  )
        54           Si  tau(  54) = (   0.2130940   0.5065190   0.3439700  )
        55           Si  tau(  55) = (   0.6088330   0.2311710   0.0160638  )
        56           Si  tau(  56) = (   0.7530400   0.9494700   0.0536137  )
        57           Si  tau(  57) = (   0.7366950   0.3904070   0.6266120  )
        58           Si  tau(  58) = (   0.7865910   0.7203800   0.9866450  )
        59           Si  tau(  59) = (   0.2321360   0.0419368   0.1354040  )
        60           Si  tau(  60) = (   0.4736400   0.0879698   0.2032620  )
        61           Si  tau(  61) = (   0.1403930   0.8436120   0.2682930  )
        62           Si  tau(  62) = (   0.4147290   0.4818470   0.7797590  )
        63           Si  tau(  63) = (   0.7048630   0.8480740   0.2635340  )
        64           Si  tau(  64) = (   0.5300460   0.5560500   0.3649080  )

     number of k points=     1  Fermi-Dirac smearing, width (Ry)=  0.0100
                       cart. coord. in units 2pi/alat
        k(    1) = (   0.0000000   0.0000000   0.0000000), wk =   2.0000000

     Dense  grid:    88755 G-vectors     FFT dimensions: (  72,  72,  72)

     Estimated max dynamical RAM per process >     142.61 MB

     Estimated total dynamical RAM >     548.75 MB

     Initial potential from superposition of free atoms

     starting charge     255.9608, renormalised to     256.0000
     Starting wfcs are  256 randomized atomic wfcs

     total cpu time spent up to now is        4.3 secs

     Self-consistent Calculation

     iteration #  1     ecut=    30.00 Ry     beta= 0.50
     Davidson diagonalization with overlap
     ethr =  1.00E-02,  avg # of iterations =  3.0

     Threshold (ethr) on eigenvalues was too large:
     Diagonalizing with lowered threshold

     Davidson diagonalization with overlap
     ethr =  3.36E-04,  avg # of iterations =  4.0

     total cpu time spent up to now is        4.5 secs

     total energy              =    -501.41463822 Ry
     estimated scf accuracy    <       1.02355665 Ry

     iteration #  2     ecut=    30.00 Ry     beta= 0.50
     Davidson diagonalization with overlap
     ethr =  4.00E-04,  avg # of iterations =  3.0

     total cpu time spent up to now is        4.7 secs

     total energy              =    -501.19004271 Ry
     estimated scf accuracy    <       2.17037867 Ry

     iteration #  3     ecut=    30.00 Ry     beta= 0.50
     Davidson diagonalization with overlap
     ethr =  4.00E-04,  avg # of iterations =  3.0

     total cpu time spent up to now is        4.8 secs

     total energy              =    -501.33731433 Ry
     estimated scf accuracy    <       2.70655117 Ry

     iteration #  4     ecut=    30.00 Ry     beta= 0.50
     Davidson diagonalization with overlap
     ethr =  4.00E-04,  avg # of iterations =  2.0

     total cpu time spent up to now is        4.8 secs

     total energy              =    -501.52076965 Ry
     estimated scf accuracy    <       0.59299712 Ry

     iteration #  5     ecut=    30.00 Ry     beta= 0.50
     Davidson diagonalization with overlap
     ethr =  2.32E-04,  avg # of iterations =  2.0

     total cpu time spent up to now is        4.9 secs

     total energy              =    -501.55961005 Ry
     estimated scf accuracy    <       0.20600911 Ry

     iteration #  6     ecut=    30.00 Ry     beta= 0.50
     Davidson diagonalization with overlap
     ethr =  8.05E-05,  avg # of iterations =  3.0

     total cpu time spent up to now is        5.0 secs

     total energy              =    -501.58182577 Ry
     estimated scf accuracy    <       0.15294894 Ry

     iteration #  7     ecut=    30.00 Ry     beta= 0.50
     Davidson diagonalization with overlap
     ethr =  5.97E-05,  avg # of iterations =  2.0

     total cpu time spent up to now is        5.1 secs

     total energy              =    -501.59327170 Ry
     estimated scf accuracy    <       0.00704852 Ry

     iteration #  8     ecut=    30.00 Ry     beta= 0.50
     Davidson diagonalization with overlap
     ethr =  2.75E-06,  avg # of iterations = 19.0

     total cpu time spent up to now is        5.3 secs

     total energy              =    -501.59404110 Ry
     estimated scf accuracy    <       0.01798549 Ry

     iteration #  9     ecut=    30.00 Ry     beta= 0.50
     Davidson diagonalization with overlap
     ethr =  2.75E-06,  avg # of iterations =  3.0

     total cpu time spent up to now is        5.4 secs

     total energy              =    -501.59548274 Ry
     estimated scf accuracy    <       0.00317489 Ry

     iteration # 10     ecut=    30.00 Ry     beta= 0.50
     Davidson diagonalization with overlap
     ethr =  1.24E-06,  avg # of iterations =  2.0

     total cpu time spent up to now is        5.4 secs

     total energy              =    -501.59570610 Ry
     estimated scf accuracy    <       0.00077694 Ry

     iteration # 11     ecut=    30.00 Ry     beta= 0.50
     Davidson diagonalization with overlap
     ethr =  3.03E-07,  avg # of iterations =  2.0

     total cpu time spent up to now is        5.5 secs

     total energy              =    -501.59575046 Ry
     estimated scf accuracy    <       0.00058818 Ry

     iteration # 12     ecut=    30.00 Ry     beta= 0.50
     Davidson diagonalization with overlap
     ethr =  2.30E-07,  avg # of iterations =  2.0

     total cpu time spent up to now is        5.6 secs

     total energy              =    -501.59580464 Ry
     estimated scf accuracy    <       0.00017162 Ry

     iteration # 13     ecut=    30.00 Ry     beta= 0.50
     Davidson diagonalization with overlap
     ethr =  6.70E-08,  avg # of iterations =  2.0

     total cpu time spent up to now is        5.7 secs

     total energy              =    -501.59581491 Ry
     estimated scf accuracy    <       0.00010223 Ry

     iteration # 14     ecut=    30.00 Ry     beta= 0.50
     Davidson diagonalization with overlap
     ethr =  3.99E-08,  avg # of iterations =  2.0

     total cpu time spent up to now is        5.8 secs

     total energy              =    -501.59582207 Ry
     estimated scf accuracy    <       0.00006073 Ry

     iteration # 15     ecut=    30.00 Ry     beta= 0.50
     Davidson diagonalization with overlap
     ethr =  2.37E-08,  avg # of iterations =  1.0

     total cpu time spent up to now is        5.9 secs

     total energy              =    -501.59582517 Ry
     estimated scf accuracy    <       0.00000896 Ry

     iteration # 16     ecut=    30.00 Ry     beta= 0.50
     Davidson diagonalization with overlap
     ethr =  3.50E-09,  avg # of iterations =  3.0

     total cpu time spent up to now is        5.9 secs

     total energy              =    -501.59582643 Ry
     estimated scf accuracy    <       0.00000416 Ry

     iteration # 17     ecut=    30.00 Ry     beta= 0.50
     Davidson diagonalization with overlap
     ethr =  1.62E-09,  avg # of iterations =  3.0

     total cpu time spent up to now is        6.0 secs

     total energy              =    -501.59582656 Ry
     estimated scf accuracy    <       0.00000785 Ry

     iteration # 18     ecut=    30.00 Ry     beta= 0.50
     Davidson diagonalization with overlap
     ethr =  1.62E-09,  avg # of iterations =  2.0

     total cpu time spent up to now is        6.1 secs

     End of self-consistent calculation

          k = 0.0000 0.0000 0.0000 ( 11060 PWs)   bands (ev):

    -5.2282  -4.2851  -4.2231  -4.0568  -3.9665  -3.8308  -3.7306  -3.2136
    -3.1128  -3.0309  -2.9019  -2.8533  -2.8452  -2.8159  -2.6801  -2.5006
    -2.4748  -2.3839  -2.2732  -1.8921  -1.7844  -1.7346  -1.6288  -1.5633
    -1.5161  -1.2976  -1.0638  -0.7983  -0.6051  -0.4161  -0.3732  -0.2099
    -0.0338  -0.0301   0.1980   0.2026   0.2754   0.3914   0.4245   0.4724
     0.5575   0.7277   0.7713   0.8173   0.8783   0.9227   0.9894   1.1647
     1.2390   1.4012   1.4141   1.5044   1.6387   1.6799   1.7472   1.7976
     1.8805   1.9186   2.0750   2.1572   2.2836   2.4766   2.5250   2.6162
     2.6631   2.7461   2.8512   2.8795   2.9737   3.0579   3.1302   3.1802
     3.2641   3.3763   3.3805   3.4532   3.5167   3.7341   3.8047   3.8110
     3.8916   4.4095   4.5330   4.5768   4.6323   4.7273   4.8252   4.8684
     4.9322   4.9973   5.0885   5.2151   5.2629   5.2877   5.3869   5.4059
     5.5273   5.6031   5.6785   5.7153   5.7722   5.8267   5.9075   5.9630
     5.9792   6.0319   6.0689   6.1635   6.2103   6.2428   6.2569   6.3274
     6.4366   6.4715   6.5445   6.5742   6.6525   6.7148   6.7658   6.8278
     6.8864   6.9326   7.0399   7.1125   7.1731   7.1842   7.2337   7.2771
     7.3397   7.3835   7.4897   7.5792   7.6106   7.6192   7.7482   7.7816
     7.8368   7.8578   7.9652   8.0990   8.1363   8.2190   8.2829   8.3004
     8.4413   8.4714   8.5221   8.6403   8.6935   8.7256   8.8553   8.8864
     8.9003   8.9504

     the Fermi energy is     7.3323 ev

!    total energy              =    -501.59582639 Ry
     estimated scf accuracy    <       0.00000079 Ry
     smearing contrib. (-TS)   =      -0.15274529 Ry
     internal energy E=F+TS    =    -501.44308110 Ry

     The total energy is F=E-TS. E is the sum of the following terms:
     one-electron contribution =     197.74544715 Ry
     hartree contribution      =      21.40650504 Ry
     xc contribution           =    -151.18911611 Ry
     ewald contribution        =    -569.40591717 Ry

     convergence has been achieved in  18 iterations

     Forces acting on atoms (cartesian axes, Ry/au):

     atom    1 type  1   force =    -0.01934298   -0.00985402   -0.00925438
     atom    2 type  1   force =     0.00394581    0.03069065   -0.00266180
     atom    3 type  1   force =    -0.03116978    0.02057913   -0.02489153
     atom    4 type  1   force =     0.00096094   -0.01699639    0.00158703
     atom    5 type  1   force =    -0.02772966    0.00875901   -0.01433222
     atom    6 type  1   force =     0.00912514    0.02431341    0.02275102
     atom    7 type  1   force =    -0.08342573    0.01641723   -0.00729800
     atom    8 type  1   force =     0.01016251   -0.01017223    0.00226317
     atom    9 type  1   force =     0.00378834   -0.04049212    0.01930765
     atom   10 type  1   force =     0.01192753   -0.02874997   -0.00479110
     atom   11 type  1   force =     0.06535677    0.03578450   -0.05200603
     atom   12 type  1   force =    -0.01343372   -0.05554809   -0.02547253
     atom   13 type  1   force =    -0.01091733   -0.01438352   -0.00750232
     atom   14 type  1   force =     0.04826963   -0.03379153   -0.00712549
     atom   15 type  1   force =    -0.00605477   -0.00543422    0.00523434
     atom   16 type  1   force =    -0.02977844   -0.00421065    0.02082720
     atom   17 type  1   force =     0.01512806   -0.00186409    0.01947465
     atom   18 type  1   force =    -0.01007770    0.00008625   -0.00660897
     atom   19 type  1   force =     0.02796330   -0.03396093   -0.02316129
     atom   20 type  1   force =    -0.04332543    0.00160381   -0.00902215
     atom   21 type  1   force =     0.00768570    0.01039891    0.00715033
     atom   22 type  1   force =     0.00784691    0.02462447    0.01008574
     atom   23 type  1   force =    -0.01372041    0.00864014   -0.01232568
     atom   24 type  1   force =     0.00931887   -0.00599363    0.00365965
     atom   25 type  1   force =    -0.01289364   -0.02190290   -0.01339737
     atom   26 type  1   force =    -0.00498689   -0.01821175   -0.01107981
     atom   27 type  1   force =     0.00852492    0.01997326    0.00855519
     atom   28 type  1   force =    -0.02371425   -0.00537894    0.00121580
     atom   29 type  1   force =    -0.01944147   -0.01267847   -0.00961345
     atom   30 type  1   force =    -0.00373396    0.01025514    0.00822352
     atom   31 type  1   force =     0.01390643   -0.02059879   -0.03313592
     atom   32 type  1   force =     0.02456972   -0.03795857   -0.01583093
     atom   33 type  1   force =     0.03187110    0.02604651    0.02533702
     atom   34 type  1   force =     0.04799138    0.00888926    0.00846540
     atom   35 type  1   force =    -0.01700803    0.02303070    0.00135884
     atom   36 type  1   force =     0.01031333   -0.02429916    0.00234486
     atom   37 type  1   force =    -0.00134762    0.02726659   -0.01185671
     atom   38 type  1   force =    -0.07464112    0.01287790   -0.00623311
     atom   39 type  1   force =     0.05253174   -0.00411202    0.00357097
     atom   40 type  1   force =    -0.01385560   -0.02159969    0.00557125
     atom   41 type  1   force =    -0.02106929   -0.03269165   -0.01634467
     atom   42 type  1   force =    -0.01756735   -0.01134842    0.00074578
     atom   43 type  1   force =     0.00863363    0.01349334    0.00436569
     atom   44 type  1   force =     0.01460711    0.00794207    0.01507913
     atom   45 type  1   force =     0.03084079    0.00614723    0.01605640
     atom   46 type  1   force =    -0.00727546    0.01629004    0.03222044
     atom   47 type  1   force =     0.01597777    0.00940392   -0.01204924
     atom   48 type  1   force =    -0.00182531   -0.00044687    0.02831159
     atom   49 type  1   force =    -0.01946441    0.02110339   -0.00264503
     atom   50 type  1   force =     0.03829177    0.01547430    0.03823575
     atom   51 type  1   force =     0.05165271   -0.02757510   -0.03433718
     atom   52 type  1   force =    -0.00221608    0.00254618    0.00269922
     atom   53 type  1   force =    -0.02745332    0.01547471   -0.00979980
     atom   54 type  1   force =     0.06512575   -0.00342765   -0.03141410
     atom   55 type  1   force =    -0.01571906    0.01341613    0.00540758
     atom   56 type  1   force =     0.00837243   -0.00608781   -0.00581644
     atom   57 type  1   force =     0.02501101    0.03320670    0.00750533
     atom   58 type  1   force =    -0.03561691    0.01109323    0.05109513
     atom   59 type  1   force =    -0.00009837    0.00292079    0.01858563
     atom   60 type  1   force =    -0.01161440   -0.01028478   -0.01206394
     atom   61 type  1   force =    -0.01439212    0.02787722    0.00250886
     atom   62 type  1   force =    -0.01081096   -0.01270873   -0.00701034
     atom   63 type  1   force =     0.01970352   -0.01924805    0.01347465
     atom   64 type  1   force =    -0.04368305    0.04538458    0.02580671

     Total force =     0.316879     Total SCF correction =     0.001835


     Computing stress (Cartesian axis) and pressure

          total   stress  (Ry/bohr**3)                   (kbar)     P=      -31.14
  -0.00025452   0.00001450   0.00000924          -37.44        2.13        1.36
   0.00001450  -0.00017358   0.00003310            2.13      -25.53        4.87
   0.00000924   0.00003310  -0.00020687            1.36        4.87      -30.43

 
     init_run     :      0.92s CPU      4.28s WALL (       1 calls)
     electrons    :      1.60s CPU      1.78s WALL (       1 calls)
     forces       :      0.03s CPU      0.03s WALL (       1 calls)
     stress       :      0.13s CPU      0.14s WALL (       1 calls)

     Called by init_run:
     wfcinit      :      0.42s CPU      3.61s WALL (       1 calls)
                                        3.61s GPU  (       1 calls)
     potinit      :      0.03s CPU      0.13s WALL (       1 calls)
     hinit0       :      0.45s CPU      0.47s WALL (       1 calls)

     Called by electrons:
     c_bands      :      1.03s CPU      1.11s WALL (      19 calls)
     sum_band     :      0.30s CPU      0.37s WALL (      19 calls)
     v_of_rho     :      0.12s CPU      0.22s WALL (      19 calls)
     mix_rho      :      0.13s CPU      0.14s WALL (      19 calls)

     Called by c_bands:
     init_us_2    :      0.05s CPU      0.05s WALL (      39 calls)
     init_us_2:gp :      0.05s CPU      0.05s WALL (      39 calls)
     regterg      :      0.89s CPU      0.96s WALL (      19 calls)

     Called by *egterg:
     rdiaghg      :      0.37s CPU      1.00s WALL (      81 calls)
                                        0.98s GPU  (      81 calls)
     h_psi        :      0.79s CPU      3.41s WALL (      83 calls)
                                        3.41s GPU  (      83 calls)
     g_psi        :      0.00s CPU      0.00s WALL (      63 calls)
                                        0.00s GPU  (      63 calls)

     Called by h_psi:
     h_psi:calbec :      0.40s CPU      2.95s WALL (      83 calls)
                                        2.95s GPU  (      83 calls)
     vloc_psi     :      0.34s CPU      0.40s WALL (      83 calls)
                                        0.40s GPU  (      83 calls)
     add_vuspsi   :      0.03s CPU      0.05s WALL (      83 calls)
                                        0.05s GPU  (      83 calls)

     General routines
     calbec       :      0.40s CPU      2.96s WALL (      88 calls)
     fft          :      0.53s CPU      0.66s WALL (     159 calls)
                                        0.12s GPU  (     101 calls)
     ffts         :      0.03s CPU      0.03s WALL (      19 calls)
     fftw         :      0.43s CPU      0.55s WALL (    1995 calls)
                                        0.48s GPU  (    1995 calls)
 
     Parallel routines
 
     PWSCF        :      2.72s CPU      6.30s WALL

 
   This run was terminated on:  10:51:31  10May2023            

=------------------------------------------------------------------------------=
   JOB DONE.
=------------------------------------------------------------------------------=
