An instance of this daemon is already running
An instance of this daemon is already running

     Program PWSCF v.7.1 starts on 10May2023 at 10:49: 3 

     This program is part of the open-source Quantum ESPRESSO suite
     for quantum simulation of materials; please cite
         "P. Giannozzi et al., J. Phys.:Condens. Matter 21 395502 (2009);
         "P. Giannozzi et al., J. Phys.:Condens. Matter 29 465901 (2017);
         "P. Giannozzi et al., J. Chem. Phys. 152 154105 (2020);
          URL http://www.quantum-espresso.org", 
     in publications or presentations arising from this work. More details at
     http://www.quantum-espresso.org/quote

     Parallel version (MPI & OpenMP), running on       4 processor cores
     Number of MPI processes:                 4
     Threads/MPI process:                     1

     MPI processes distributed on     1 nodes
     153154 MiB available memory on the printing compute node when the environment starts
 
     Reading input from pw-si-57.in
Warning: card &CELL ignored
Warning: card / ignored

     Current dimensions of program PWSCF are:
     Max number of different atomic species (ntypx) = 10
     Max number of k-points (npk) =  40000
     Max angular momentum in pseudopotentials (lmaxx) =  4

     IMPORTANT: XC functional enforced from input :
     Exchange-correlation= PBE
                           (   1   4   3   4   0   0   0)
     Any further DFT definition will be discarded
     Please, verify this is what you really want


     gamma-point specific algorithms are used
 
     K-points division:     npool     =       2
     R & G space division:  proc/nbgrp/npool/nimage =       2
     Subspace diagonalization in iterative solution of the eigenvalue problem:
     a serial algorithm will be used

     Message from routine divide_et_impera:
     suboptimal parallelization: some nodes have no k-points
 
     Parallelization info
     --------------------
     sticks:   dense  smooth     PW     G-vecs:    dense   smooth      PW
     Min        1953    1953    519                91815    91815   12442
     Max        1956    1956    522                91820    91820   12443
     Sum        3909    3909   1041               183635   183635   24885
 
     Using Slab Decomposition
 


     bravais-lattice index     =            0
     lattice parameter (alat)  =      20.2217  a.u.
     unit-cell volume          =    8268.9420 (a.u.)^3
     number of atoms/cell      =           64
     number of atomic types    =            1
     number of electrons       =       256.00
     number of Kohn-Sham states=          154
     kinetic-energy cutoff     =      30.0000  Ry
     charge density cutoff     =     120.0000  Ry
     scf convergence threshold =      1.0E-06
     mixing beta               =       0.5000
     number of iterations used =            8  plain     mixing
     Exchange-correlation= PBE
                           (   1   4   3   4   0   0   0)

     GPU acceleration is ACTIVE.
     GPU-aware MPI enabled

     Message from routine print_cuda_info:
     High GPU oversubscription detected. Are you sure this is what you want?

     celldm(1)=  20.221653  celldm(2)=   0.000000  celldm(3)=   0.000000
     celldm(4)=   0.000000  celldm(5)=   0.000000  celldm(6)=   0.000000

     crystal axes: (cart. coord. in units of alat)
               a(1) = (   1.000000   0.000000   0.000000 )  
               a(2) = (   0.000000   1.000000   0.000000 )  
               a(3) = (   0.000000   0.000000   1.000000 )  

     reciprocal axes: (cart. coord. in units 2 pi/alat)
               b(1) = (  1.000000  0.000000  0.000000 )  
               b(2) = (  0.000000  1.000000  0.000000 )  
               b(3) = (  0.000000  0.000000  1.000000 )  


     PseudoPot. # 1 for Si read from file:
     /home/ppiaggi/pseudos/Si_ONCV_PBE_sr.upf
     MD5 check sum: 8553c464762ac42b85b1eed164b4d029
     Pseudo is Norm-conserving, Zval =  4.0
     Generated using ONCVPSP code by D. R. Hamann
     Using radial grid of 1510 points,  4 beta functions with: 
                l(1) =   0
                l(2) =   0
                l(3) =   1
                l(4) =   1

     atomic species   valence    mass     pseudopotential
        Si             4.00    28.08500     Si( 1.00)

     No symmetry found



   Cartesian axes

     site n.     atom                  positions (alat units)
         1           Si  tau(   1) = (   0.0335501   0.6389550   0.5780780  )
         2           Si  tau(   2) = (   0.6236800   0.4959050   0.7410850  )
         3           Si  tau(   3) = (   0.6002390   0.6500930   0.0237764  )
         4           Si  tau(   4) = (   0.2341010   0.2832340   0.6773140  )
         5           Si  tau(   5) = (   0.1801000   0.8434850   0.2662210  )
         6           Si  tau(   6) = (   0.1901660   0.0323172   0.4492800  )
         7           Si  tau(   7) = (   0.3567480   0.6006790   0.5450570  )
         8           Si  tau(   8) = (   0.8410080   0.4842650   0.0219650  )
         9           Si  tau(   9) = (   0.8204360   0.1632290   0.0649958  )
        10           Si  tau(  10) = (   0.2417580   0.6365900   0.0322792  )
        11           Si  tau(  11) = (   0.3201850   0.1695830   0.9523570  )
        12           Si  tau(  12) = (   0.0766104   0.9537180   0.6114550  )
        13           Si  tau(  13) = (   0.1952770   0.1615220   0.2020190  )
        14           Si  tau(  14) = (   0.5078030   0.8826520   0.0922180  )
        15           Si  tau(  15) = (   0.4631680   0.1695740   0.6948370  )
        16           Si  tau(  16) = (   0.7578430   0.3005680   0.6192620  )
        17           Si  tau(  17) = (   0.6232630   0.2508560   0.8460680  )
        18           Si  tau(  18) = (   0.6263750   0.6308130   0.3475050  )
        19           Si  tau(  19) = (   0.3179170   0.4986890   0.2380790  )
        20           Si  tau(  20) = (   0.7717240   0.8084050   0.0233259  )
        21           Si  tau(  21) = (   0.5771800   0.0773862   0.3301340  )
        22           Si  tau(  22) = (   0.5318700   0.4774260   0.5097890  )
        23           Si  tau(  23) = (   0.1860800   0.2963590   0.4418710  )
        24           Si  tau(  24) = (   0.0158427   0.0517864   0.0997425  )
        25           Si  tau(  25) = (   0.9831620   0.4316920   0.2147890  )
        26           Si  tau(  26) = (   0.8224740   0.6105640   0.7737150  )
        27           Si  tau(  27) = (   0.9448150   0.9738930   0.3287090  )
        28           Si  tau(  28) = (   0.6645040   0.4680150   0.1779740  )
        29           Si  tau(  29) = (   0.8406550   0.8402400   0.7238330  )
        30           Si  tau(  30) = (   0.9575470   0.6952190   0.9973940  )
        31           Si  tau(  31) = (   0.9851500   0.3239590   0.8993480  )
        32           Si  tau(  32) = (   0.7250230   0.2483390   0.2527060  )
        33           Si  tau(  33) = (   0.5017950   0.9872280   0.8945490  )
        34           Si  tau(  34) = (   0.9713830   0.7111870   0.3912980  )
        35           Si  tau(  35) = (   0.2488970   0.8338280   0.9361720  )
        36           Si  tau(  36) = (   0.4056270   0.9859290   0.4388000  )
        37           Si  tau(  37) = (   0.1481130   0.3475620   0.0911567  )
        38           Si  tau(  38) = (   0.9299160   0.4330840   0.6876800  )
        39           Si  tau(  39) = (   0.1263360   0.0972772   0.8090040  )
        40           Si  tau(  40) = (   0.1001570   0.5634760   0.8262060  )
        41           Si  tau(  41) = (   0.4215830   0.8129910   0.7387860  )
        42           Si  tau(  42) = (   0.5249150   0.9851370   0.6129360  )
        43           Si  tau(  43) = (   0.3460820   0.3940660   0.9717520  )
        44           Si  tau(  44) = (   0.4520510   0.1513740   0.1601430  )
        45           Si  tau(  45) = (   0.4366140   0.6869380   0.2201880  )
        46           Si  tau(  46) = (   0.8735290   0.1419470   0.7846880  )
        47           Si  tau(  47) = (   0.7232130   0.9189440   0.5580100  )
        48           Si  tau(  48) = (   0.0387337   0.9101760   0.9091440  )
        49           Si  tau(  49) = (   0.2816720   0.9394800   0.1099390  )
        50           Si  tau(  50) = (   0.4737230   0.6309880   0.8450330  )
        51           Si  tau(  51) = (   0.0702484   0.6635730   0.1906520  )
        52           Si  tau(  52) = (   0.8723080   0.2844630   0.4079230  )
        53           Si  tau(  53) = (   0.1969700   0.7829600   0.7146730  )
        54           Si  tau(  54) = (   0.8362950   0.5069580   0.4470380  )
        55           Si  tau(  55) = (   0.7496250   0.8068580   0.3819450  )
        56           Si  tau(  56) = (   0.7353340   0.9585350   0.2013080  )
        57           Si  tau(  57) = (   0.3014270   0.4974670   0.7545150  )
        58           Si  tau(  58) = (   0.3522550   0.7719750   0.4183360  )
        59           Si  tau(  59) = (   0.5383420   0.3484110   0.0543271  )
        60           Si  tau(  60) = (   0.4039540   0.3173050   0.3337780  )
        61           Si  tau(  61) = (   0.1761730   0.5228900   0.4151470  )
        62           Si  tau(  62) = (   0.5654780   0.2627390   0.5131740  )
        63           Si  tau(  63) = (   0.8698580   0.0618787   0.5430170  )
        64           Si  tau(  64) = (   0.7433660   0.9912810   0.8793950  )

     number of k points=     1  Fermi-Dirac smearing, width (Ry)=  0.0100
                       cart. coord. in units 2pi/alat
        k(    1) = (   0.0000000   0.0000000   0.0000000), wk =   2.0000000

     Dense  grid:    91818 G-vectors     FFT dimensions: (  72,  72,  72)

     Estimated max dynamical RAM per process >     147.13 MB

     Estimated total dynamical RAM >     566.12 MB

     Initial potential from superposition of free atoms

     starting charge     255.9608, renormalised to     256.0000
     Starting wfcs are  256 randomized atomic wfcs

     total cpu time spent up to now is        4.1 secs

     Self-consistent Calculation

     iteration #  1     ecut=    30.00 Ry     beta= 0.50
     Davidson diagonalization with overlap
     ethr =  1.00E-02,  avg # of iterations =  3.0

     Threshold (ethr) on eigenvalues was too large:
     Diagonalizing with lowered threshold

     Davidson diagonalization with overlap
     ethr =  4.36E-04,  avg # of iterations =  4.0

     total cpu time spent up to now is        4.3 secs

     total energy              =    -501.31882592 Ry
     estimated scf accuracy    <       1.33059147 Ry

     iteration #  2     ecut=    30.00 Ry     beta= 0.50
     Davidson diagonalization with overlap
     ethr =  5.20E-04,  avg # of iterations =  5.0

     total cpu time spent up to now is        4.4 secs

     total energy              =    -500.72623479 Ry
     estimated scf accuracy    <       7.25590561 Ry

     iteration #  3     ecut=    30.00 Ry     beta= 0.50
     Davidson diagonalization with overlap
     ethr =  5.20E-04,  avg # of iterations =  5.0

     total cpu time spent up to now is        4.5 secs

     total energy              =    -501.42169621 Ry
     estimated scf accuracy    <       1.73730969 Ry

     iteration #  4     ecut=    30.00 Ry     beta= 0.50
     Davidson diagonalization with overlap
     ethr =  5.20E-04,  avg # of iterations =  2.0

     total cpu time spent up to now is        4.6 secs

     total energy              =    -501.50300404 Ry
     estimated scf accuracy    <       0.81769112 Ry

     iteration #  5     ecut=    30.00 Ry     beta= 0.50
     Davidson diagonalization with overlap
     ethr =  3.19E-04,  avg # of iterations =  2.0

     total cpu time spent up to now is        4.7 secs

     total energy              =    -501.55401491 Ry
     estimated scf accuracy    <       0.57420547 Ry

     iteration #  6     ecut=    30.00 Ry     beta= 0.50
     Davidson diagonalization with overlap
     ethr =  2.24E-04,  avg # of iterations =  1.0

     total cpu time spent up to now is        4.8 secs

     total energy              =    -501.60554206 Ry
     estimated scf accuracy    <       0.03722073 Ry

     iteration #  7     ecut=    30.00 Ry     beta= 0.50
     Davidson diagonalization with overlap
     c_bands:  1 eigenvalues not converged
     ethr =  1.45E-05,  avg # of iterations = 20.0

     total cpu time spent up to now is        5.0 secs

     total energy              =    -501.61023803 Ry
     estimated scf accuracy    <       0.03791286 Ry

     iteration #  8     ecut=    30.00 Ry     beta= 0.50
     Davidson diagonalization with overlap
     ethr =  1.45E-05,  avg # of iterations =  2.0

     total cpu time spent up to now is        5.0 secs

     total energy              =    -501.61436237 Ry
     estimated scf accuracy    <       0.01188481 Ry

     iteration #  9     ecut=    30.00 Ry     beta= 0.50
     Davidson diagonalization with overlap
     ethr =  4.64E-06,  avg # of iterations =  3.0

     total cpu time spent up to now is        5.1 secs

     total energy              =    -501.61518906 Ry
     estimated scf accuracy    <       0.00213162 Ry

     iteration # 10     ecut=    30.00 Ry     beta= 0.50
     Davidson diagonalization with overlap
     ethr =  8.33E-07,  avg # of iterations = 14.0

     total cpu time spent up to now is        5.3 secs

     total energy              =    -501.61534328 Ry
     estimated scf accuracy    <       0.00317931 Ry

     iteration # 11     ecut=    30.00 Ry     beta= 0.50
     Davidson diagonalization with overlap
     ethr =  8.33E-07,  avg # of iterations =  2.0

     total cpu time spent up to now is        5.4 secs

     total energy              =    -501.61557294 Ry
     estimated scf accuracy    <       0.00016223 Ry

     iteration # 12     ecut=    30.00 Ry     beta= 0.50
     Davidson diagonalization with overlap
     ethr =  6.34E-08,  avg # of iterations =  4.0

     total cpu time spent up to now is        5.5 secs

     total energy              =    -501.61558129 Ry
     estimated scf accuracy    <       0.00052071 Ry

     iteration # 13     ecut=    30.00 Ry     beta= 0.50
     Davidson diagonalization with overlap
     ethr =  6.34E-08,  avg # of iterations =  3.0

     total cpu time spent up to now is        5.6 secs

     total energy              =    -501.61561314 Ry
     estimated scf accuracy    <       0.00024915 Ry

     iteration # 14     ecut=    30.00 Ry     beta= 0.50
     Davidson diagonalization with overlap
     ethr =  6.34E-08,  avg # of iterations =  2.0

     total cpu time spent up to now is        5.6 secs

     total energy              =    -501.61562867 Ry
     estimated scf accuracy    <       0.00003672 Ry

     iteration # 15     ecut=    30.00 Ry     beta= 0.50
     Davidson diagonalization with overlap
     ethr =  1.43E-08,  avg # of iterations =  2.0

     total cpu time spent up to now is        5.7 secs

     total energy              =    -501.61563221 Ry
     estimated scf accuracy    <       0.00002165 Ry

     iteration # 16     ecut=    30.00 Ry     beta= 0.50
     Davidson diagonalization with overlap
     ethr =  8.46E-09,  avg # of iterations =  2.0

     total cpu time spent up to now is        5.8 secs

     total energy              =    -501.61563383 Ry
     estimated scf accuracy    <       0.00000863 Ry

     iteration # 17     ecut=    30.00 Ry     beta= 0.50
     Davidson diagonalization with overlap
     ethr =  3.37E-09,  avg # of iterations =  2.0

     total cpu time spent up to now is        5.9 secs

     total energy              =    -501.61563459 Ry
     estimated scf accuracy    <       0.00000335 Ry

     iteration # 18     ecut=    30.00 Ry     beta= 0.50
     Davidson diagonalization with overlap
     ethr =  1.31E-09,  avg # of iterations =  2.0

     total cpu time spent up to now is        6.0 secs

     total energy              =    -501.61563479 Ry
     estimated scf accuracy    <       0.00000121 Ry

     iteration # 19     ecut=    30.00 Ry     beta= 0.50
     Davidson diagonalization with overlap
     ethr =  4.74E-10,  avg # of iterations =  2.0

     total cpu time spent up to now is        6.0 secs

     total energy              =    -501.61563477 Ry
     estimated scf accuracy    <       0.00000108 Ry

     iteration # 20     ecut=    30.00 Ry     beta= 0.50
     Davidson diagonalization with overlap
     ethr =  4.23E-10,  avg # of iterations =  2.0

     total cpu time spent up to now is        6.1 secs

     End of self-consistent calculation

          k = 0.0000 0.0000 0.0000 ( 11492 PWs)   bands (ev):

    -5.4789  -4.6608  -4.4453  -4.3480  -4.2628  -4.1871  -3.9319  -3.6923
    -3.4690  -3.4329  -3.3404  -3.2317  -3.1480  -3.0514  -2.9926  -2.8780
    -2.7912  -2.7706  -2.5485  -2.2647  -2.2381  -2.1046  -2.0733  -1.9070
    -1.7449  -1.6041  -1.4409  -1.1845  -1.0637  -0.8252  -0.7047  -0.5493
    -0.4340  -0.4065  -0.2834  -0.1928  -0.1191  -0.0424   0.0651   0.1211
     0.1879   0.3138   0.3949   0.4034   0.4745   0.6330   0.7381   0.7842
     0.8528   0.9134   0.9889   1.0542   1.1607   1.2458   1.3728   1.4676
     1.5010   1.6371   1.7938   1.8695   1.9818   2.1278   2.1667   2.2284
     2.3448   2.5120   2.5579   2.6033   2.6714   2.8258   2.8322   2.9519
     3.0271   3.0770   3.0939   3.2192   3.2770   3.4144   3.4285   3.5547
     3.7027   3.9143   4.1117   4.1516   4.2285   4.3745   4.4267   4.4694
     4.5178   4.5805   4.6748   4.7072   4.7942   4.8406   4.9119   4.9721
     5.0398   5.1505   5.1662   5.2067   5.2924   5.3832   5.4131   5.4501
     5.5017   5.5764   5.6341   5.6775   5.7369   5.7723   5.8036   5.9434
     5.9884   6.0435   6.0813   6.1509   6.1957   6.2795   6.3122   6.3617
     6.4278   6.4884   6.5304   6.5890   6.6602   6.7076   6.7465   6.8751
     6.9074   6.9831   7.0342   7.1000   7.1533   7.2035   7.3894   7.4095
     7.5392   7.6138   7.6330   7.7176   7.7553   7.7923   7.8185   7.8656
     7.9614   8.0882   8.1202   8.2213   8.2316   8.3016   8.4348   8.4933
     8.5656   8.5913

     the Fermi energy is     6.8822 ev

!    total energy              =    -501.61563472 Ry
     estimated scf accuracy    <       0.00000026 Ry
     smearing contrib. (-TS)   =      -0.13849097 Ry
     internal energy E=F+TS    =    -501.47714375 Ry

     The total energy is F=E-TS. E is the sum of the following terms:
     one-electron contribution =     180.24478640 Ry
     hartree contribution      =      26.29877312 Ry
     xc contribution           =    -150.84600879 Ry
     ewald contribution        =    -557.17469449 Ry

     convergence has been achieved in  20 iterations

     Forces acting on atoms (cartesian axes, Ry/au):

     atom    1 type  1   force =     0.01835798   -0.04283876    0.04357265
     atom    2 type  1   force =     0.02464914   -0.02372032   -0.02518411
     atom    3 type  1   force =     0.00024173    0.01554899    0.02822747
     atom    4 type  1   force =     0.03057779   -0.01721192   -0.01904038
     atom    5 type  1   force =    -0.03142530   -0.01833297    0.07337917
     atom    6 type  1   force =     0.01934427    0.03323358   -0.06988756
     atom    7 type  1   force =    -0.04046518   -0.01627919    0.03138968
     atom    8 type  1   force =     0.01226447   -0.00298369    0.01286997
     atom    9 type  1   force =     0.00529386   -0.03535847   -0.00992041
     atom   10 type  1   force =    -0.00998818   -0.03374819    0.00448978
     atom   11 type  1   force =     0.01142189   -0.04275039    0.00239376
     atom   12 type  1   force =    -0.03495909   -0.00878312    0.06485755
     atom   13 type  1   force =     0.02181014   -0.03334928   -0.00036511
     atom   14 type  1   force =    -0.00295833   -0.00554343    0.02495080
     atom   15 type  1   force =    -0.01834285    0.06390526    0.02551661
     atom   16 type  1   force =     0.01809914    0.00097112    0.01582930
     atom   17 type  1   force =     0.00201573    0.03652947   -0.00735353
     atom   18 type  1   force =    -0.00978628   -0.06737714   -0.00517204
     atom   19 type  1   force =    -0.01201909    0.00832845   -0.01518722
     atom   20 type  1   force =    -0.04309364    0.01895602    0.00159842
     atom   21 type  1   force =     0.01364485    0.03107603   -0.01967213
     atom   22 type  1   force =     0.03318601    0.02998800    0.00856081
     atom   23 type  1   force =     0.01269320   -0.01888895    0.01316115
     atom   24 type  1   force =    -0.00023170    0.00077401    0.03298526
     atom   25 type  1   force =     0.00340495    0.02649071    0.00629300
     atom   26 type  1   force =    -0.02546165    0.00777909    0.01398304
     atom   27 type  1   force =     0.01625797   -0.01522783   -0.02477439
     atom   28 type  1   force =     0.04507534    0.03692073    0.00300274
     atom   29 type  1   force =     0.04305689   -0.03437037    0.02780805
     atom   30 type  1   force =     0.00872569   -0.00492816   -0.02410445
     atom   31 type  1   force =    -0.01196247    0.01484600    0.01740076
     atom   32 type  1   force =    -0.02628683    0.01152150   -0.00950805
     atom   33 type  1   force =     0.00296475    0.00401072   -0.00326423
     atom   34 type  1   force =    -0.05333108    0.03233680   -0.04694069
     atom   35 type  1   force =     0.00030237   -0.02618961   -0.06655187
     atom   36 type  1   force =    -0.02409845   -0.02874376   -0.01302660
     atom   37 type  1   force =     0.00798933   -0.00879935   -0.03485572
     atom   38 type  1   force =     0.03085712    0.02754583   -0.00698662
     atom   39 type  1   force =    -0.00391183    0.01808055   -0.01899818
     atom   40 type  1   force =     0.00872636    0.01410903    0.02384735
     atom   41 type  1   force =     0.00328584    0.03261080    0.00491088
     atom   42 type  1   force =    -0.01289929   -0.04725846    0.04186130
     atom   43 type  1   force =    -0.04511388    0.01419728   -0.02534740
     atom   44 type  1   force =    -0.02655895    0.03265023    0.00372460
     atom   45 type  1   force =     0.02712005    0.02648792   -0.00447917
     atom   46 type  1   force =     0.00362169    0.03923044   -0.02212613
     atom   47 type  1   force =    -0.05387397   -0.02688533    0.01982824
     atom   48 type  1   force =    -0.01206726   -0.01528067    0.00762899
     atom   49 type  1   force =     0.05942026    0.08870286    0.02484010
     atom   50 type  1   force =    -0.01462260   -0.01279429   -0.01179599
     atom   51 type  1   force =    -0.00219532   -0.02111061   -0.00171034
     atom   52 type  1   force =     0.02591863    0.00821892    0.01359815
     atom   53 type  1   force =    -0.02528261   -0.02444889   -0.01618684
     atom   54 type  1   force =     0.00046174    0.01228812   -0.00053398
     atom   55 type  1   force =     0.03066932   -0.01366378   -0.05147409
     atom   56 type  1   force =    -0.00767415   -0.02171597    0.00923974
     atom   57 type  1   force =    -0.00019517   -0.00712013    0.02598120
     atom   58 type  1   force =    -0.00130833    0.04238654   -0.04877456
     atom   59 type  1   force =    -0.01140543   -0.05086558   -0.02785351
     atom   60 type  1   force =    -0.01395594   -0.02662645    0.00134716
     atom   61 type  1   force =    -0.00061056   -0.01477368    0.00863565
     atom   62 type  1   force =    -0.01482691   -0.02271716   -0.03307715
     atom   63 type  1   force =     0.07915372    0.07051879    0.00621032
     atom   64 type  1   force =    -0.02969987   -0.00955787    0.02022878

     Total force =     0.385410     Total SCF correction =     0.000976


     Computing stress (Cartesian axis) and pressure

          total   stress  (Ry/bohr**3)                   (kbar)     P=      -28.80
  -0.00019672  -0.00005065   0.00001764          -28.94       -7.45        2.60
  -0.00005065  -0.00020795   0.00002303           -7.45      -30.59        3.39
   0.00001764   0.00002303  -0.00018277            2.60        3.39      -26.89

 
     init_run     :      0.94s CPU      4.05s WALL (       1 calls)
     electrons    :      1.85s CPU      2.01s WALL (       1 calls)
     forces       :      0.03s CPU      0.03s WALL (       1 calls)
     stress       :      0.14s CPU      0.14s WALL (       1 calls)

     Called by init_run:
     wfcinit      :      0.43s CPU      3.40s WALL (       1 calls)
                                        3.40s GPU  (       1 calls)
     potinit      :      0.04s CPU      0.12s WALL (       1 calls)
     hinit0       :      0.45s CPU      0.47s WALL (       1 calls)

     Called by electrons:
     c_bands      :      1.22s CPU      1.30s WALL (      21 calls)
     sum_band     :      0.31s CPU      0.36s WALL (      21 calls)
     v_of_rho     :      0.14s CPU      0.22s WALL (      21 calls)
     mix_rho      :      0.15s CPU      0.16s WALL (      21 calls)

     Called by c_bands:
     init_us_2    :      0.05s CPU      0.06s WALL (      43 calls)
     init_us_2:gp :      0.05s CPU      0.06s WALL (      43 calls)
     regterg      :      1.08s CPU      1.15s WALL (      21 calls)

     Called by *egterg:
     rdiaghg      :      0.48s CPU      1.09s WALL (     104 calls)
                                        1.07s GPU  (     104 calls)
     h_psi        :      0.85s CPU      3.26s WALL (     106 calls)
                                        3.25s GPU  (     106 calls)
     g_psi        :      0.00s CPU      0.00s WALL (      84 calls)
                                        0.00s GPU  (      84 calls)

     Called by h_psi:
     h_psi:calbec :      0.41s CPU      2.75s WALL (     106 calls)
                                        2.75s GPU  (     106 calls)
     vloc_psi     :      0.38s CPU      0.44s WALL (     106 calls)
                                        0.44s GPU  (     106 calls)
     add_vuspsi   :      0.04s CPU      0.06s WALL (     106 calls)
                                        0.06s GPU  (     106 calls)

     General routines
     calbec       :      0.42s CPU      2.75s WALL (     111 calls)
     fft          :      0.54s CPU      0.66s WALL (     175 calls)
                                        0.11s GPU  (     111 calls)
     ffts         :      0.03s CPU      0.03s WALL (      21 calls)
     fftw         :      0.46s CPU      0.60s WALL (    2225 calls)
                                        0.52s GPU  (    2225 calls)
 
     Parallel routines
 
     PWSCF        :      2.99s CPU      6.30s WALL

 
   This run was terminated on:  10:49:10  10May2023            

=------------------------------------------------------------------------------=
   JOB DONE.
=------------------------------------------------------------------------------=
