An instance of this daemon is already running
An instance of this daemon is already running

     Program PWSCF v.7.1 starts on 10May2023 at 10:44:11 

     This program is part of the open-source Quantum ESPRESSO suite
     for quantum simulation of materials; please cite
         "P. Giannozzi et al., J. Phys.:Condens. Matter 21 395502 (2009);
         "P. Giannozzi et al., J. Phys.:Condens. Matter 29 465901 (2017);
         "P. Giannozzi et al., J. Chem. Phys. 152 154105 (2020);
          URL http://www.quantum-espresso.org", 
     in publications or presentations arising from this work. More details at
     http://www.quantum-espresso.org/quote

     Parallel version (MPI & OpenMP), running on       4 processor cores
     Number of MPI processes:                 4
     Threads/MPI process:                     1

     MPI processes distributed on     1 nodes
     153224 MiB available memory on the printing compute node when the environment starts
 
     Reading input from pw-si-24.in
Warning: card &CELL ignored
Warning: card / ignored

     Current dimensions of program PWSCF are:
     Max number of different atomic species (ntypx) = 10
     Max number of k-points (npk) =  40000
     Max angular momentum in pseudopotentials (lmaxx) =  4

     IMPORTANT: XC functional enforced from input :
     Exchange-correlation= PBE
                           (   1   4   3   4   0   0   0)
     Any further DFT definition will be discarded
     Please, verify this is what you really want


     gamma-point specific algorithms are used
 
     K-points division:     npool     =       2
     R & G space division:  proc/nbgrp/npool/nimage =       2
     Subspace diagonalization in iterative solution of the eigenvalue problem:
     a serial algorithm will be used

     Message from routine divide_et_impera:
     suboptimal parallelization: some nodes have no k-points
 
     Parallelization info
     --------------------
     sticks:   dense  smooth     PW     G-vecs:    dense   smooth      PW
     Min        1945    1945    516                91383    91383   12416
     Max        1948    1948    517                91388    91388   12421
     Sum        3893    3893   1033               182771   182771   24837
 
     Using Slab Decomposition
 


     bravais-lattice index     =            0
     lattice parameter (alat)  =      20.1873  a.u.
     unit-cell volume          =    8226.8237 (a.u.)^3
     number of atoms/cell      =           64
     number of atomic types    =            1
     number of electrons       =       256.00
     number of Kohn-Sham states=          154
     kinetic-energy cutoff     =      30.0000  Ry
     charge density cutoff     =     120.0000  Ry
     scf convergence threshold =      1.0E-06
     mixing beta               =       0.5000
     number of iterations used =            8  plain     mixing
     Exchange-correlation= PBE
                           (   1   4   3   4   0   0   0)

     GPU acceleration is ACTIVE.
     GPU-aware MPI enabled

     Message from routine print_cuda_info:
     High GPU oversubscription detected. Are you sure this is what you want?

     celldm(1)=  20.187261  celldm(2)=   0.000000  celldm(3)=   0.000000
     celldm(4)=   0.000000  celldm(5)=   0.000000  celldm(6)=   0.000000

     crystal axes: (cart. coord. in units of alat)
               a(1) = (   1.000000   0.000000   0.000000 )  
               a(2) = (   0.000000   1.000000   0.000000 )  
               a(3) = (   0.000000   0.000000   1.000000 )  

     reciprocal axes: (cart. coord. in units 2 pi/alat)
               b(1) = (  1.000000  0.000000  0.000000 )  
               b(2) = (  0.000000  1.000000  0.000000 )  
               b(3) = (  0.000000  0.000000  1.000000 )  


     PseudoPot. # 1 for Si read from file:
     /home/ppiaggi/pseudos/Si_ONCV_PBE_sr.upf
     MD5 check sum: 8553c464762ac42b85b1eed164b4d029
     Pseudo is Norm-conserving, Zval =  4.0
     Generated using ONCVPSP code by D. R. Hamann
     Using radial grid of 1510 points,  4 beta functions with: 
                l(1) =   0
                l(2) =   0
                l(3) =   1
                l(4) =   1

     atomic species   valence    mass     pseudopotential
        Si             4.00    28.08500     Si( 1.00)

     No symmetry found



   Cartesian axes

     site n.     atom                  positions (alat units)
         1           Si  tau(   1) = (   0.0237267   0.7941010   0.7307660  )
         2           Si  tau(   2) = (   0.0602475   0.3332960   0.2562830  )
         3           Si  tau(   3) = (   0.4096490   0.9346560   0.0124568  )
         4           Si  tau(   4) = (   0.8079160   0.1415480   0.7574200  )
         5           Si  tau(   5) = (   0.4318730   0.5662210   0.3547250  )
         6           Si  tau(   6) = (   0.9322540   0.5481010   0.2854940  )
         7           Si  tau(   7) = (   0.2457290   0.3557220   0.4075910  )
         8           Si  tau(   8) = (   0.9956420   0.5831100   0.5410090  )
         9           Si  tau(   9) = (   0.3146060   0.7303180   0.8053070  )
        10           Si  tau(  10) = (   0.7859880   0.8308150   0.9376420  )
        11           Si  tau(  11) = (   0.6475690   0.2633380   0.6534990  )
        12           Si  tau(  12) = (   0.4586780   0.0254076   0.7151150  )
        13           Si  tau(  13) = (   0.7736130   0.0021814   0.1054210  )
        14           Si  tau(  14) = (   0.5540620   0.6801120   0.2372910  )
        15           Si  tau(  15) = (   0.8656160   0.8485570   0.2983540  )
        16           Si  tau(  16) = (   0.3008970   0.2626910   0.0116794  )
        17           Si  tau(  17) = (   0.7008220   0.9300580   0.4269840  )
        18           Si  tau(  18) = (   0.9696370   0.3481760   0.5084310  )
        19           Si  tau(  19) = (   0.2725350   0.1457200   0.2215030  )
        20           Si  tau(  20) = (   0.9399070   0.3952990   0.9953450  )
        21           Si  tau(  21) = (   0.3086040   0.9329650   0.2411510  )
        22           Si  tau(  22) = (   0.4931780   0.4119630   0.5231420  )
        23           Si  tau(  23) = (   0.0015922   0.2575840   0.7212880  )
        24           Si  tau(  24) = (   0.0194790   0.8685250   0.4764070  )
        25           Si  tau(  25) = (   0.4542480   0.2385020   0.3293010  )
        26           Si  tau(  26) = (   0.5316970   0.1120140   0.5154790  )
        27           Si  tau(  27) = (   0.1681140   0.4274360   0.0481258  )
        28           Si  tau(  28) = (   0.5422180   0.9037050   0.2864950  )
        29           Si  tau(  29) = (   0.1156350   0.8233580   0.1658120  )
        30           Si  tau(  30) = (   0.8923080   0.0919391   0.4323970  )
        31           Si  tau(  31) = (   0.2983660   0.3929070   0.6658240  )
        32           Si  tau(  32) = (   0.7859540   0.5532650   0.6321680  )
        33           Si  tau(  33) = (   0.5542960   0.0804743   0.1468480  )
        34           Si  tau(  34) = (   0.3466220   0.9101050   0.4486410  )
        35           Si  tau(  35) = (   0.6864690   0.4584260   0.8272830  )
        36           Si  tau(  36) = (   0.4904310   0.6605680   0.6761150  )
        37           Si  tau(  37) = (   0.4468770   0.2450660   0.8046510  )
        38           Si  tau(  38) = (   0.2406930   0.5269990   0.2431090  )
        39           Si  tau(  39) = (   0.3182020   0.7152430   0.0670172  )
        40           Si  tau(  40) = (   0.1778830   0.1899380   0.6360040  )
        41           Si  tau(  41) = (   0.1487990   0.0640641   0.4716010  )
        42           Si  tau(  42) = (   0.7726730   0.5044130   0.1165640  )
        43           Si  tau(  43) = (   0.4576090   0.4958210   0.8322330  )
        44           Si  tau(  44) = (   0.3157420   0.6986990   0.4867760  )
        45           Si  tau(  45) = (   0.9967440   0.0697721   0.1966030  )
        46           Si  tau(  46) = (   0.2089680   0.5739770   0.6398310  )
        47           Si  tau(  47) = (   0.8109300   0.1919290   0.9862250  )
        48           Si  tau(  48) = (   0.2392540   0.9204130   0.6838530  )
        49           Si  tau(  49) = (   0.0078068   0.7637720   0.9991870  )
        50           Si  tau(  50) = (   0.6774070   0.7778970   0.6048130  )
        51           Si  tau(  51) = (   0.0556905   0.1567840   0.9945000  )
        52           Si  tau(  52) = (   0.6458980   0.6367240   0.0054034  )
        53           Si  tau(  53) = (   0.7417770   0.3869390   0.4468560  )
        54           Si  tau(  54) = (   0.4212890   0.4883180   0.0500862  )
        55           Si  tau(  55) = (   0.8167880   0.9101230   0.7405390  )
        56           Si  tau(  56) = (   0.5977640   0.2669630   0.9854140  )
        57           Si  tau(  57) = (   0.1368340   0.6044350   0.8984090  )
        58           Si  tau(  58) = (   0.2323150   0.0480337   0.8932810  )
        59           Si  tau(  59) = (   0.5674840   0.8911520   0.8336240  )
        60           Si  tau(  60) = (   0.9623250   0.4823230   0.7858950  )
        61           Si  tau(  61) = (   0.5779160   0.3858330   0.2003820  )
        62           Si  tau(  62) = (   0.1155490   0.6951330   0.3584570  )
        63           Si  tau(  63) = (   0.7461720   0.6672680   0.3925500  )
        64           Si  tau(  64) = (   0.8146630   0.2577220   0.2652380  )

     number of k points=     1  Fermi-Dirac smearing, width (Ry)=  0.0100
                       cart. coord. in units 2pi/alat
        k(    1) = (   0.0000000   0.0000000   0.0000000), wk =   2.0000000

     Dense  grid:    91386 G-vectors     FFT dimensions: (  72,  72,  72)

     Estimated max dynamical RAM per process >     146.48 MB

     Estimated total dynamical RAM >     563.60 MB

     Initial potential from superposition of free atoms

     starting charge     255.9608, renormalised to     256.0000
     Starting wfcs are  256 randomized atomic wfcs

     total cpu time spent up to now is        4.2 secs

     Self-consistent Calculation

     iteration #  1     ecut=    30.00 Ry     beta= 0.50
     Davidson diagonalization with overlap
     ethr =  1.00E-02,  avg # of iterations =  3.0

     Threshold (ethr) on eigenvalues was too large:
     Diagonalizing with lowered threshold

     Davidson diagonalization with overlap
     ethr =  3.80E-04,  avg # of iterations =  4.0

     total cpu time spent up to now is        4.4 secs

     total energy              =    -501.29737008 Ry
     estimated scf accuracy    <       1.18217914 Ry

     iteration #  2     ecut=    30.00 Ry     beta= 0.50
     Davidson diagonalization with overlap
     ethr =  4.62E-04,  avg # of iterations =  4.0

     total cpu time spent up to now is        4.5 secs

     total energy              =    -500.88210641 Ry
     estimated scf accuracy    <       4.84359286 Ry

     iteration #  3     ecut=    30.00 Ry     beta= 0.50
     Davidson diagonalization with overlap
     ethr =  4.62E-04,  avg # of iterations =  4.0

     total cpu time spent up to now is        4.6 secs

     total energy              =    -501.35099755 Ry
     estimated scf accuracy    <       1.75292973 Ry

     iteration #  4     ecut=    30.00 Ry     beta= 0.50
     Davidson diagonalization with overlap
     ethr =  4.62E-04,  avg # of iterations =  2.0

     total cpu time spent up to now is        4.7 secs

     total energy              =    -501.46805701 Ry
     estimated scf accuracy    <       0.72887002 Ry

     iteration #  5     ecut=    30.00 Ry     beta= 0.50
     Davidson diagonalization with overlap
     ethr =  2.85E-04,  avg # of iterations =  2.0

     total cpu time spent up to now is        4.7 secs

     total energy              =    -501.49431807 Ry
     estimated scf accuracy    <       0.58019898 Ry

     iteration #  6     ecut=    30.00 Ry     beta= 0.50
     Davidson diagonalization with overlap
     ethr =  2.27E-04,  avg # of iterations =  1.0

     total cpu time spent up to now is        4.8 secs

     total energy              =    -501.54670966 Ry
     estimated scf accuracy    <       0.05397984 Ry

     iteration #  7     ecut=    30.00 Ry     beta= 0.50
     Davidson diagonalization with overlap
     ethr =  2.11E-05,  avg # of iterations =  2.0

     total cpu time spent up to now is        4.9 secs

     total energy              =    -501.55463489 Ry
     estimated scf accuracy    <       0.01071626 Ry

     iteration #  8     ecut=    30.00 Ry     beta= 0.50
     Davidson diagonalization with overlap
     ethr =  4.19E-06,  avg # of iterations = 18.0

     total cpu time spent up to now is        5.1 secs

     total energy              =    -501.55580748 Ry
     estimated scf accuracy    <       0.00523189 Ry

     iteration #  9     ecut=    30.00 Ry     beta= 0.50
     Davidson diagonalization with overlap
     ethr =  2.04E-06,  avg # of iterations =  3.0

     total cpu time spent up to now is        5.2 secs

     total energy              =    -501.55607413 Ry
     estimated scf accuracy    <       0.00726838 Ry

     iteration # 10     ecut=    30.00 Ry     beta= 0.50
     Davidson diagonalization with overlap
     ethr =  2.04E-06,  avg # of iterations =  2.0

     total cpu time spent up to now is        5.3 secs

     total energy              =    -501.55660106 Ry
     estimated scf accuracy    <       0.00030821 Ry

     iteration # 11     ecut=    30.00 Ry     beta= 0.50
     Davidson diagonalization with overlap
     ethr =  1.20E-07,  avg # of iterations =  4.0

     total cpu time spent up to now is        5.4 secs

     total energy              =    -501.55662698 Ry
     estimated scf accuracy    <       0.00033926 Ry

     iteration # 12     ecut=    30.00 Ry     beta= 0.50
     Davidson diagonalization with overlap
     ethr =  1.20E-07,  avg # of iterations =  3.0

     total cpu time spent up to now is        5.5 secs

     total energy              =    -501.55666252 Ry
     estimated scf accuracy    <       0.00037972 Ry

     iteration # 13     ecut=    30.00 Ry     beta= 0.50
     Davidson diagonalization with overlap
     ethr =  1.20E-07,  avg # of iterations =  2.0

     total cpu time spent up to now is        5.5 secs

     total energy              =    -501.55668686 Ry
     estimated scf accuracy    <       0.00002957 Ry

     iteration # 14     ecut=    30.00 Ry     beta= 0.50
     Davidson diagonalization with overlap
     ethr =  1.16E-08,  avg # of iterations =  4.0

     total cpu time spent up to now is        5.6 secs

     total energy              =    -501.55668877 Ry
     estimated scf accuracy    <       0.00002737 Ry

     iteration # 15     ecut=    30.00 Ry     beta= 0.50
     Davidson diagonalization with overlap
     ethr =  1.07E-08,  avg # of iterations =  2.0

     total cpu time spent up to now is        5.7 secs

     total energy              =    -501.55669151 Ry
     estimated scf accuracy    <       0.00001347 Ry

     iteration # 16     ecut=    30.00 Ry     beta= 0.50
     Davidson diagonalization with overlap
     ethr =  5.26E-09,  avg # of iterations =  2.0

     total cpu time spent up to now is        5.8 secs

     total energy              =    -501.55669259 Ry
     estimated scf accuracy    <       0.00000335 Ry

     iteration # 17     ecut=    30.00 Ry     beta= 0.50
     Davidson diagonalization with overlap
     ethr =  1.31E-09,  avg # of iterations =  2.0

     total cpu time spent up to now is        5.9 secs

     total energy              =    -501.55669289 Ry
     estimated scf accuracy    <       0.00000127 Ry

     iteration # 18     ecut=    30.00 Ry     beta= 0.50
     Davidson diagonalization with overlap
     ethr =  4.96E-10,  avg # of iterations =  2.0

     total cpu time spent up to now is        5.9 secs

     End of self-consistent calculation

          k = 0.0000 0.0000 0.0000 ( 11444 PWs)   bands (ev):

    -5.4419  -4.4689  -4.3720  -4.3202  -4.2175  -4.0863  -4.0085  -3.4418
    -3.3813  -3.3479  -3.2685  -3.2086  -3.1008  -3.0470  -2.8742  -2.8066
    -2.7801  -2.5945  -2.5730  -2.1909  -2.0617  -1.9597  -1.7917  -1.7011
    -1.6255  -1.5822  -1.3581  -1.1474  -0.9996  -0.7147  -0.6643  -0.3942
    -0.3861  -0.2892  -0.2171  -0.1356  -0.0931   0.1016   0.1274   0.1935
     0.2643   0.3385   0.4314   0.5182   0.5673   0.6559   0.7528   0.8065
     0.9314   0.9996   1.0244   1.0925   1.2247   1.3282   1.5288   1.5889
     1.7300   1.8102   1.8766   2.0432   2.0569   2.0829   2.2468   2.3573
     2.4375   2.5268   2.6575   2.6875   2.7324   2.7927   2.8310   2.9126
     3.0736   3.1130   3.2253   3.2649   3.3402   3.3552   3.4854   3.7365
     3.8610   3.9951   4.0979   4.1745   4.1935   4.3621   4.4002   4.5188
     4.6330   4.7002   4.8284   4.8840   4.9575   4.9999   5.1156   5.1648
     5.1670   5.1846   5.2861   5.3525   5.3856   5.4109   5.5494   5.5748
     5.6149   5.6583   5.7445   5.8196   5.8612   5.8908   5.9382   6.0112
     6.0143   6.0871   6.1057   6.2511   6.2904   6.2968   6.3856   6.4118
     6.4901   6.5942   6.6313   6.7175   6.7718   6.8279   6.8942   7.0046
     7.0366   7.0863   7.1109   7.1423   7.2552   7.3481   7.4306   7.4786
     7.5590   7.5932   7.6552   7.6877   7.7793   7.8068   7.8989   7.9308
     7.9959   8.0664   8.2279   8.2372   8.3717   8.4241   8.4660   8.5966
     8.6875   8.7334

     the Fermi energy is     6.9888 ev

!    total energy              =    -501.55669255 Ry
     estimated scf accuracy    <       0.00000050 Ry
     smearing contrib. (-TS)   =      -0.14411740 Ry
     internal energy E=F+TS    =    -501.41257516 Ry

     The total energy is F=E-TS. E is the sum of the following terms:
     one-electron contribution =     182.88210204 Ry
     hartree contribution      =      25.61887260 Ry
     xc contribution           =    -150.61067106 Ry
     ewald contribution        =    -559.30287874 Ry

     convergence has been achieved in  18 iterations

     Forces acting on atoms (cartesian axes, Ry/au):

     atom    1 type  1   force =     0.00732752    0.01502147   -0.03701528
     atom    2 type  1   force =    -0.00559585    0.02571855    0.01537479
     atom    3 type  1   force =     0.00927444   -0.01480125   -0.00653582
     atom    4 type  1   force =     0.00873631   -0.00533945    0.01105388
     atom    5 type  1   force =    -0.02882898   -0.05500405    0.03531382
     atom    6 type  1   force =    -0.00683077   -0.01149653    0.01072823
     atom    7 type  1   force =    -0.00979911   -0.01063790   -0.00846635
     atom    8 type  1   force =     0.00816800   -0.00110980    0.00325042
     atom    9 type  1   force =    -0.01898008   -0.00506354    0.01511676
     atom   10 type  1   force =    -0.02914436   -0.00486915    0.06126942
     atom   11 type  1   force =    -0.01014603    0.01302526   -0.02523315
     atom   12 type  1   force =    -0.04368480    0.05709647   -0.04206628
     atom   13 type  1   force =     0.01316175   -0.01474025   -0.00103666
     atom   14 type  1   force =     0.08099715    0.06223550   -0.04367203
     atom   15 type  1   force =     0.01595970    0.01269296   -0.00912784
     atom   16 type  1   force =     0.00617283   -0.03993636    0.00100513
     atom   17 type  1   force =    -0.00311272    0.02550615    0.05016902
     atom   18 type  1   force =    -0.00277018    0.00916381   -0.01281613
     atom   19 type  1   force =     0.00385579    0.05875542   -0.00093467
     atom   20 type  1   force =    -0.03023048   -0.01228466   -0.00178270
     atom   21 type  1   force =    -0.00811107   -0.01509165   -0.04559646
     atom   22 type  1   force =    -0.01180218   -0.00252185   -0.01355950
     atom   23 type  1   force =    -0.06887112    0.03119918    0.01724225
     atom   24 type  1   force =    -0.00424455    0.01468136    0.02015346
     atom   25 type  1   force =    -0.01721287   -0.01895210    0.02188743
     atom   26 type  1   force =     0.01240336   -0.01579655   -0.00560769
     atom   27 type  1   force =    -0.02856634    0.02201885    0.01715229
     atom   28 type  1   force =    -0.03505350   -0.02123844   -0.01180908
     atom   29 type  1   force =     0.04478034    0.02962288    0.06172430
     atom   30 type  1   force =     0.00765911   -0.02147027   -0.02276478
     atom   31 type  1   force =     0.07270567   -0.09546292   -0.01645502
     atom   32 type  1   force =     0.00468271    0.00980766   -0.01002378
     atom   33 type  1   force =     0.00136590   -0.01662855   -0.02613383
     atom   34 type  1   force =     0.01437031    0.02931087    0.03789820
     atom   35 type  1   force =    -0.01039459   -0.01358576    0.00075972
     atom   36 type  1   force =    -0.00361638    0.01203570   -0.00984917
     atom   37 type  1   force =     0.00145148   -0.00979903    0.03213441
     atom   38 type  1   force =    -0.00344615   -0.01110393    0.00520440
     atom   39 type  1   force =     0.00850001    0.01746236   -0.02099542
     atom   40 type  1   force =     0.05927215    0.02244854    0.02553749
     atom   41 type  1   force =    -0.00610983   -0.05899198   -0.05058648
     atom   42 type  1   force =     0.02999270   -0.03698968    0.03706465
     atom   43 type  1   force =     0.01577851    0.00086706   -0.00340426
     atom   44 type  1   force =     0.01006632    0.00411680    0.01120563
     atom   45 type  1   force =    -0.02315267   -0.02335683    0.01989675
     atom   46 type  1   force =    -0.07600731    0.07787144    0.01345409
     atom   47 type  1   force =     0.01149095    0.01111921   -0.02447542
     atom   48 type  1   force =    -0.01749668    0.01044926    0.02704638
     atom   49 type  1   force =    -0.03269189   -0.02134754   -0.06755734
     atom   50 type  1   force =     0.01583003   -0.00699037   -0.00555696
     atom   51 type  1   force =     0.00891046    0.00578582   -0.00606999
     atom   52 type  1   force =    -0.00802767    0.02691547   -0.01254072
     atom   53 type  1   force =    -0.00424540    0.02005610    0.04207417
     atom   54 type  1   force =     0.00003004    0.00952690    0.00664235
     atom   55 type  1   force =     0.01360344    0.00089797   -0.02636922
     atom   56 type  1   force =    -0.00599476    0.01984074    0.01865284
     atom   57 type  1   force =    -0.00795588   -0.00674636   -0.01357668
     atom   58 type  1   force =     0.01166557   -0.00010162   -0.02070432
     atom   59 type  1   force =     0.02480290   -0.04372501    0.04980115
     atom   60 type  1   force =     0.01240567   -0.02118819    0.00649909
     atom   61 type  1   force =     0.02349174    0.00158346   -0.04605742
     atom   62 type  1   force =    -0.00465282   -0.01255134   -0.01101667
     atom   63 type  1   force =    -0.00039817   -0.00056109   -0.01242274
     atom   64 type  1   force =     0.00826233   -0.00734921   -0.00349266

     Total force =     0.373608     Total SCF correction =     0.001450


     Computing stress (Cartesian axis) and pressure

          total   stress  (Ry/bohr**3)                   (kbar)     P=      -36.07
  -0.00021988  -0.00003346  -0.00003825          -32.35       -4.92       -5.63
  -0.00003346  -0.00025030  -0.00004075           -4.92      -36.82       -5.99
  -0.00003825  -0.00004075  -0.00026550           -5.63       -5.99      -39.06

 
     init_run     :      0.99s CPU      4.12s WALL (       1 calls)
     electrons    :      1.62s CPU      1.76s WALL (       1 calls)
     forces       :      0.03s CPU      0.03s WALL (       1 calls)
     stress       :      0.14s CPU      0.14s WALL (       1 calls)

     Called by init_run:
     wfcinit      :      0.49s CPU      3.46s WALL (       1 calls)
                                        3.46s GPU  (       1 calls)
     potinit      :      0.04s CPU      0.13s WALL (       1 calls)
     hinit0       :      0.45s CPU      0.48s WALL (       1 calls)

     Called by electrons:
     c_bands      :      1.06s CPU      1.15s WALL (      19 calls)
     sum_band     :      0.28s CPU      0.32s WALL (      19 calls)
     v_of_rho     :      0.13s CPU      0.22s WALL (      19 calls)
     mix_rho      :      0.13s CPU      0.14s WALL (      19 calls)

     Called by c_bands:
     init_us_2    :      0.05s CPU      0.05s WALL (      39 calls)
     init_us_2:gp :      0.05s CPU      0.05s WALL (      39 calls)
     regterg      :      0.93s CPU      1.01s WALL (      19 calls)

     Called by *egterg:
     rdiaghg      :      0.40s CPU      1.01s WALL (      84 calls)
                                        0.99s GPU  (      84 calls)
     h_psi        :      0.85s CPU      3.26s WALL (      86 calls)
                                        3.25s GPU  (      86 calls)
     g_psi        :      0.00s CPU      0.00s WALL (      66 calls)
                                        0.00s GPU  (      66 calls)

     Called by h_psi:
     h_psi:calbec :      0.46s CPU      2.80s WALL (      86 calls)
                                        2.80s GPU  (      86 calls)
     vloc_psi     :      0.34s CPU      0.40s WALL (      86 calls)
                                        0.40s GPU  (      86 calls)
     add_vuspsi   :      0.03s CPU      0.05s WALL (      86 calls)
                                        0.05s GPU  (      86 calls)

     General routines
     calbec       :      0.46s CPU      2.81s WALL (      91 calls)
     fft          :      0.54s CPU      0.66s WALL (     159 calls)
                                        0.12s GPU  (     101 calls)
     ffts         :      0.03s CPU      0.03s WALL (      19 calls)
     fftw         :      0.42s CPU      0.54s WALL (    2003 calls)
                                        0.48s GPU  (    2003 calls)
 
     Parallel routines
 
     PWSCF        :      2.82s CPU      6.13s WALL

 
   This run was terminated on:  10:44:18  10May2023            

=------------------------------------------------------------------------------=
   JOB DONE.
=------------------------------------------------------------------------------=
