An instance of this daemon is already running
An instance of this daemon is already running

     Program PWSCF v.7.1 starts on 10May2023 at 10:49:39 

     This program is part of the open-source Quantum ESPRESSO suite
     for quantum simulation of materials; please cite
         "P. Giannozzi et al., J. Phys.:Condens. Matter 21 395502 (2009);
         "P. Giannozzi et al., J. Phys.:Condens. Matter 29 465901 (2017);
         "P. Giannozzi et al., J. Chem. Phys. 152 154105 (2020);
          URL http://www.quantum-espresso.org", 
     in publications or presentations arising from this work. More details at
     http://www.quantum-espresso.org/quote

     Parallel version (MPI & OpenMP), running on       4 processor cores
     Number of MPI processes:                 4
     Threads/MPI process:                     1

     MPI processes distributed on     1 nodes
     153153 MiB available memory on the printing compute node when the environment starts
 
     Reading input from pw-si-61.in
Warning: card &CELL ignored
Warning: card / ignored

     Current dimensions of program PWSCF are:
     Max number of different atomic species (ntypx) = 10
     Max number of k-points (npk) =  40000
     Max angular momentum in pseudopotentials (lmaxx) =  4

     IMPORTANT: XC functional enforced from input :
     Exchange-correlation= PBE
                           (   1   4   3   4   0   0   0)
     Any further DFT definition will be discarded
     Please, verify this is what you really want


     gamma-point specific algorithms are used
 
     K-points division:     npool     =       2
     R & G space division:  proc/nbgrp/npool/nimage =       2
     Subspace diagonalization in iterative solution of the eigenvalue problem:
     a serial algorithm will be used

     Message from routine divide_et_impera:
     suboptimal parallelization: some nodes have no k-points
 
     Parallelization info
     --------------------
     sticks:   dense  smooth     PW     G-vecs:    dense   smooth      PW
     Min        1968    1968    520                92591    92591   12632
     Max        1969    1969    521                92592    92592   12637
     Sum        3937    3937   1041               185183   185183   25269
 
     Using Slab Decomposition
 


     bravais-lattice index     =            0
     lattice parameter (alat)  =      20.2833  a.u.
     unit-cell volume          =    8344.7704 (a.u.)^3
     number of atoms/cell      =           64
     number of atomic types    =            1
     number of electrons       =       256.00
     number of Kohn-Sham states=          154
     kinetic-energy cutoff     =      30.0000  Ry
     charge density cutoff     =     120.0000  Ry
     scf convergence threshold =      1.0E-06
     mixing beta               =       0.5000
     number of iterations used =            8  plain     mixing
     Exchange-correlation= PBE
                           (   1   4   3   4   0   0   0)

     GPU acceleration is ACTIVE.
     GPU-aware MPI enabled

     Message from routine print_cuda_info:
     High GPU oversubscription detected. Are you sure this is what you want?

     celldm(1)=  20.283277  celldm(2)=   0.000000  celldm(3)=   0.000000
     celldm(4)=   0.000000  celldm(5)=   0.000000  celldm(6)=   0.000000

     crystal axes: (cart. coord. in units of alat)
               a(1) = (   1.000000   0.000000   0.000000 )  
               a(2) = (   0.000000   1.000000   0.000000 )  
               a(3) = (   0.000000   0.000000   1.000000 )  

     reciprocal axes: (cart. coord. in units 2 pi/alat)
               b(1) = (  1.000000  0.000000  0.000000 )  
               b(2) = (  0.000000  1.000000  0.000000 )  
               b(3) = (  0.000000  0.000000  1.000000 )  


     PseudoPot. # 1 for Si read from file:
     /home/ppiaggi/pseudos/Si_ONCV_PBE_sr.upf
     MD5 check sum: 8553c464762ac42b85b1eed164b4d029
     Pseudo is Norm-conserving, Zval =  4.0
     Generated using ONCVPSP code by D. R. Hamann
     Using radial grid of 1510 points,  4 beta functions with: 
                l(1) =   0
                l(2) =   0
                l(3) =   1
                l(4) =   1

     atomic species   valence    mass     pseudopotential
        Si             4.00    28.08500     Si( 1.00)

     No symmetry found



   Cartesian axes

     site n.     atom                  positions (alat units)
         1           Si  tau(   1) = (   0.1438430   0.4912560   0.8732240  )
         2           Si  tau(   2) = (   0.4423330   0.5061530   0.2144400  )
         3           Si  tau(   3) = (   0.9431940   0.3944450   0.3973820  )
         4           Si  tau(   4) = (   0.8728460   0.0664899   0.1579010  )
         5           Si  tau(   5) = (   0.4555330   0.2563150   0.5863010  )
         6           Si  tau(   6) = (   0.4721010   0.4523790   0.9551960  )
         7           Si  tau(   7) = (   0.7376930   0.6183300   0.4967990  )
         8           Si  tau(   8) = (   0.6688740   0.1726740   0.7189320  )
         9           Si  tau(   9) = (   0.9410470   0.8436100   0.6250010  )
        10           Si  tau(  10) = (   0.4924300   0.3503240   0.3575610  )
        11           Si  tau(  11) = (   0.6690500   0.7472720   0.1181410  )
        12           Si  tau(  12) = (   0.1911460   0.0147959   0.8041310  )
        13           Si  tau(  13) = (   0.6839990   0.9651760   0.0475232  )
        14           Si  tau(  14) = (   0.0908558   0.9274740   0.0780868  )
        15           Si  tau(  15) = (   0.8864210   0.2606910   0.7167750  )
        16           Si  tau(  16) = (   0.2910170   0.0759181   0.5675900  )
        17           Si  tau(  17) = (   0.6502320   0.9823840   0.5840880  )
        18           Si  tau(  18) = (   0.4173100   0.1647340   0.8392830  )
        19           Si  tau(  19) = (   0.4314360   0.7125420   0.4214050  )
        20           Si  tau(  20) = (   0.2431070   0.1383580   0.1601280  )
        21           Si  tau(  21) = (   0.2423280   0.8291410   0.9412110  )
        22           Si  tau(  22) = (   0.3985850   0.8753670   0.5857910  )
        23           Si  tau(  23) = (   0.9563080   0.8191960   0.9028830  )
        24           Si  tau(  24) = (   0.1689010   0.6482730   0.3909210  )
        25           Si  tau(  25) = (   0.3338530   0.4112240   0.7203740  )
        26           Si  tau(  26) = (   0.8043590   0.8588670   0.4001670  )
        27           Si  tau(  27) = (   0.9045150   0.5957440   0.7135440  )
        28           Si  tau(  28) = (   0.9699260   0.3375580   0.1765240  )
        29           Si  tau(  29) = (   0.5979050   0.8151680   0.3160850  )
        30           Si  tau(  30) = (   0.4541640   0.9661690   0.9504190  )
        31           Si  tau(  31) = (   0.1720140   0.8009500   0.5791800  )
        32           Si  tau(  32) = (   0.9048260   0.4749860   0.9661860  )
        33           Si  tau(  33) = (   0.1481190   0.8960980   0.3071360  )
        34           Si  tau(  34) = (   0.2543460   0.3052790   0.3625330  )
        35           Si  tau(  35) = (   0.7184660   0.8069990   0.6848150  )
        36           Si  tau(  36) = (   0.8325500   0.5622540   0.3269830  )
        37           Si  tau(  37) = (   0.5213260   0.0428695   0.4023190  )
        38           Si  tau(  38) = (   0.0474895   0.4229170   0.6930190  )
        39           Si  tau(  39) = (   0.7962830   0.9827170   0.8406740  )
        40           Si  tau(  40) = (   0.5104830   0.8010460   0.7806210  )
        41           Si  tau(  41) = (   0.9708760   0.7536640   0.2687910  )
        42           Si  tau(  42) = (   0.1190770   0.6219840   0.1013200  )
        43           Si  tau(  43) = (   0.2190420   0.4263750   0.1561400  )
        44           Si  tau(  44) = (   0.5240900   0.5549160   0.7048450  )
        45           Si  tau(  45) = (   0.5750480   0.1132090   0.1712340  )
        46           Si  tau(  46) = (   0.5279210   0.5094340   0.4834170  )
        47           Si  tau(  47) = (   0.8790290   0.6907550   0.0615357  )
        48           Si  tau(  48) = (   0.1436450   0.1101780   0.4085870  )
        49           Si  tau(  49) = (   0.1394940   0.4337520   0.4971770  )
        50           Si  tau(  50) = (   0.2836140   0.3253890   0.9623900  )
        51           Si  tau(  51) = (   0.7051920   0.2887080   0.2804610  )
        52           Si  tau(  52) = (   0.8752580   0.2003220   0.9694450  )
        53           Si  tau(  53) = (   0.3894310   0.9385500   0.2054880  )
        54           Si  tau(  54) = (   0.6782330   0.4660460   0.1253200  )
        55           Si  tau(  55) = (   0.7196700   0.4598210   0.8127290  )
        56           Si  tau(  56) = (   0.1271770   0.1710860   0.9856330  )
        57           Si  tau(  57) = (   0.1327550   0.7088940   0.7861710  )
        58           Si  tau(  58) = (   0.7491910   0.3699220   0.5470770  )
        59           Si  tau(  59) = (   0.9968930   0.0320970   0.7117390  )
        60           Si  tau(  60) = (   0.6292040   0.2582600   0.9486820  )
        61           Si  tau(  61) = (   0.8249770   0.0890055   0.3831100  )
        62           Si  tau(  62) = (   0.4829420   0.6833030   0.9966910  )
        63           Si  tau(  63) = (   0.3138300   0.7064670   0.1798290  )
        64           Si  tau(  64) = (   0.9644240   0.1526330   0.5088090  )

     number of k points=     1  Fermi-Dirac smearing, width (Ry)=  0.0100
                       cart. coord. in units 2pi/alat
        k(    1) = (   0.0000000   0.0000000   0.0000000), wk =   2.0000000

     Dense  grid:    92592 G-vectors     FFT dimensions: (  72,  72,  72)

     Estimated max dynamical RAM per process >     148.33 MB

     Estimated total dynamical RAM >     570.72 MB

     Initial potential from superposition of free atoms

     starting charge     255.9608, renormalised to     256.0000
     Starting wfcs are  256 randomized atomic wfcs

     total cpu time spent up to now is        4.3 secs

     Self-consistent Calculation

     iteration #  1     ecut=    30.00 Ry     beta= 0.50
     Davidson diagonalization with overlap
     ethr =  1.00E-02,  avg # of iterations =  3.0

     Threshold (ethr) on eigenvalues was too large:
     Diagonalizing with lowered threshold

     Davidson diagonalization with overlap
     ethr =  3.92E-04,  avg # of iterations =  4.0

     total cpu time spent up to now is        4.5 secs

     total energy              =    -501.15499244 Ry
     estimated scf accuracy    <       1.20919875 Ry

     iteration #  2     ecut=    30.00 Ry     beta= 0.50
     Davidson diagonalization with overlap
     ethr =  4.72E-04,  avg # of iterations =  6.0

     total cpu time spent up to now is        4.6 secs

     total energy              =    -500.73543666 Ry
     estimated scf accuracy    <       4.80198396 Ry

     iteration #  3     ecut=    30.00 Ry     beta= 0.50
     Davidson diagonalization with overlap
     ethr =  4.72E-04,  avg # of iterations =  4.0

     total cpu time spent up to now is        4.7 secs

     total energy              =    -501.16784780 Ry
     estimated scf accuracy    <       2.45981532 Ry

     iteration #  4     ecut=    30.00 Ry     beta= 0.50
     Davidson diagonalization with overlap
     ethr =  4.72E-04,  avg # of iterations =  2.0

     total cpu time spent up to now is        4.8 secs

     total energy              =    -501.34643681 Ry
     estimated scf accuracy    <       0.60609362 Ry

     iteration #  5     ecut=    30.00 Ry     beta= 0.50
     Davidson diagonalization with overlap
     ethr =  2.37E-04,  avg # of iterations =  2.0

     total cpu time spent up to now is        4.9 secs

     total energy              =    -501.38170892 Ry
     estimated scf accuracy    <       0.23641459 Ry

     iteration #  6     ecut=    30.00 Ry     beta= 0.50
     Davidson diagonalization with overlap
     ethr =  9.23E-05,  avg # of iterations =  2.0

     total cpu time spent up to now is        5.0 secs

     total energy              =    -501.40738763 Ry
     estimated scf accuracy    <       0.15528031 Ry

     iteration #  7     ecut=    30.00 Ry     beta= 0.50
     Davidson diagonalization with overlap
     ethr =  6.07E-05,  avg # of iterations =  1.0

     total cpu time spent up to now is        5.0 secs

     total energy              =    -501.41877511 Ry
     estimated scf accuracy    <       0.01451586 Ry

     iteration #  8     ecut=    30.00 Ry     beta= 0.50
     Davidson diagonalization with overlap
     c_bands:  1 eigenvalues not converged
     ethr =  5.67E-06,  avg # of iterations = 20.0

     total cpu time spent up to now is        5.2 secs

     total energy              =    -501.42062266 Ry
     estimated scf accuracy    <       0.01637761 Ry

     iteration #  9     ecut=    30.00 Ry     beta= 0.50
     Davidson diagonalization with overlap
     ethr =  5.67E-06,  avg # of iterations =  2.0

     total cpu time spent up to now is        5.3 secs

     total energy              =    -501.42210049 Ry
     estimated scf accuracy    <       0.00313619 Ry

     iteration # 10     ecut=    30.00 Ry     beta= 0.50
     Davidson diagonalization with overlap
     ethr =  1.23E-06,  avg # of iterations =  2.0

     total cpu time spent up to now is        5.4 secs

     total energy              =    -501.42244983 Ry
     estimated scf accuracy    <       0.00046906 Ry

     iteration # 11     ecut=    30.00 Ry     beta= 0.50
     Davidson diagonalization with overlap
     ethr =  1.83E-07,  avg # of iterations =  3.0

     total cpu time spent up to now is        5.5 secs

     total energy              =    -501.42246488 Ry
     estimated scf accuracy    <       0.00040482 Ry

     iteration # 12     ecut=    30.00 Ry     beta= 0.50
     Davidson diagonalization with overlap
     ethr =  1.58E-07,  avg # of iterations =  3.0

     total cpu time spent up to now is        5.6 secs

     total energy              =    -501.42249705 Ry
     estimated scf accuracy    <       0.00054677 Ry

     iteration # 13     ecut=    30.00 Ry     beta= 0.50
     Davidson diagonalization with overlap
     ethr =  1.58E-07,  avg # of iterations =  2.0

     total cpu time spent up to now is        5.7 secs

     total energy              =    -501.42253347 Ry
     estimated scf accuracy    <       0.00003688 Ry

     iteration # 14     ecut=    30.00 Ry     beta= 0.50
     Davidson diagonalization with overlap
     ethr =  1.44E-08,  avg # of iterations =  4.0

     total cpu time spent up to now is        5.8 secs

     total energy              =    -501.42253817 Ry
     estimated scf accuracy    <       0.00003198 Ry

     iteration # 15     ecut=    30.00 Ry     beta= 0.50
     Davidson diagonalization with overlap
     ethr =  1.25E-08,  avg # of iterations =  2.0

     total cpu time spent up to now is        5.9 secs

     total energy              =    -501.42253991 Ry
     estimated scf accuracy    <       0.00001199 Ry

     iteration # 16     ecut=    30.00 Ry     beta= 0.50
     Davidson diagonalization with overlap
     ethr =  4.68E-09,  avg # of iterations =  3.0

     total cpu time spent up to now is        6.0 secs

     total energy              =    -501.42254108 Ry
     estimated scf accuracy    <       0.00001277 Ry

     iteration # 17     ecut=    30.00 Ry     beta= 0.50
     Davidson diagonalization with overlap
     ethr =  4.68E-09,  avg # of iterations =  2.0

     total cpu time spent up to now is        6.0 secs

     total energy              =    -501.42254157 Ry
     estimated scf accuracy    <       0.00000533 Ry

     iteration # 18     ecut=    30.00 Ry     beta= 0.50
     Davidson diagonalization with overlap
     ethr =  2.08E-09,  avg # of iterations =  2.0

     total cpu time spent up to now is        6.1 secs

     End of self-consistent calculation

          k = 0.0000 0.0000 0.0000 ( 11516 PWs)   bands (ev):

    -5.4515  -4.5597  -4.5296  -4.3716  -4.2129  -4.1815  -4.0215  -3.6158
    -3.5000  -3.4167  -3.3114  -3.1911  -3.1408  -3.1013  -2.9309  -2.9048
    -2.8365  -2.7484  -2.6037  -2.2815  -2.1888  -2.0979  -1.9539  -1.8913
    -1.7557  -1.6441  -1.5388  -1.0385  -0.9154  -0.7935  -0.7160  -0.6594
    -0.5785  -0.4153  -0.3165  -0.1982  -0.1830  -0.0526   0.0938   0.1770
     0.2192   0.2741   0.3466   0.3984   0.5155   0.5452   0.6646   0.7577
     0.8941   0.9522   0.9741   1.0483   1.1219   1.2511   1.2986   1.4217
     1.4809   1.5275   1.7521   1.8877   1.9342   2.0976   2.2164   2.3026
     2.3274   2.3850   2.4714   2.5738   2.5916   2.6346   2.7237   2.8032
     2.8465   2.9119   3.0362   3.0982   3.2119   3.2304   3.3671   3.4621
     3.5518   4.0020   4.0593   4.1188   4.2091   4.2933   4.3119   4.4015
     4.5146   4.5922   4.7078   4.7690   4.8356   4.8997   4.9615   5.0222
     5.0726   5.1291   5.2145   5.2553   5.2853   5.3143   5.3352   5.4838
     5.5299   5.5589   5.5756   5.6552   5.7467   5.7749   5.8187   5.8795
     5.8958   5.9619   6.0477   6.0861   6.1096   6.1296   6.2150   6.3550
     6.4130   6.4453   6.5169   6.5928   6.6240   6.7009   6.7237   6.7777
     6.8076   6.9167   6.9854   7.0107   7.0841   7.1340   7.2032   7.2298
     7.3142   7.3824   7.3964   7.5210   7.6442   7.6826   7.6960   7.7474
     7.8771   7.9415   7.9986   8.0538   8.1568   8.1777   8.2905   8.3714
     8.4656   8.4997

     the Fermi energy is     6.8202 ev

!    total energy              =    -501.42254169 Ry
     estimated scf accuracy    <       0.00000054 Ry
     smearing contrib. (-TS)   =      -0.15559101 Ry
     internal energy E=F+TS    =    -501.26695068 Ry

     The total energy is F=E-TS. E is the sum of the following terms:
     one-electron contribution =     182.93856452 Ry
     hartree contribution      =      24.25232593 Ry
     xc contribution           =    -150.12003009 Ry
     ewald contribution        =    -558.33781104 Ry

     convergence has been achieved in  18 iterations

     Forces acting on atoms (cartesian axes, Ry/au):

     atom    1 type  1   force =    -0.01931401    0.02090303    0.01278744
     atom    2 type  1   force =    -0.01134722    0.02782726   -0.04134787
     atom    3 type  1   force =     0.00941807   -0.03708727   -0.00172821
     atom    4 type  1   force =     0.01054548   -0.00058685   -0.00210675
     atom    5 type  1   force =    -0.01955133   -0.03020421    0.03618527
     atom    6 type  1   force =     0.03080909    0.00383858    0.01533966
     atom    7 type  1   force =    -0.05127872    0.02521740    0.09847482
     atom    8 type  1   force =    -0.01523005    0.00842030   -0.00782201
     atom    9 type  1   force =     0.00570441   -0.03781559   -0.04308724
     atom   10 type  1   force =    -0.01668090   -0.07528089   -0.00577686
     atom   11 type  1   force =    -0.02298389    0.01186820   -0.01911592
     atom   12 type  1   force =     0.02809561    0.02633056    0.00399027
     atom   13 type  1   force =    -0.00315578   -0.02144504   -0.02711570
     atom   14 type  1   force =    -0.02827155    0.02031939    0.00918086
     atom   15 type  1   force =    -0.00509656   -0.00531377   -0.01940891
     atom   16 type  1   force =     0.06345773   -0.00247944    0.04115521
     atom   17 type  1   force =    -0.01513357    0.04513699   -0.03877328
     atom   18 type  1   force =    -0.00030120    0.00924945   -0.01629224
     atom   19 type  1   force =    -0.01342835   -0.02656564   -0.01005765
     atom   20 type  1   force =     0.02735916   -0.02547181    0.05210273
     atom   21 type  1   force =     0.01831180    0.01898908   -0.00022960
     atom   22 type  1   force =    -0.01436532    0.00503113   -0.00834110
     atom   23 type  1   force =     0.02575223    0.01796697   -0.00775479
     atom   24 type  1   force =    -0.00139778    0.01137508    0.01791876
     atom   25 type  1   force =     0.02973760   -0.02046422    0.00296762
     atom   26 type  1   force =     0.00051228    0.01666798    0.02929656
     atom   27 type  1   force =    -0.02142542    0.02665267   -0.00710520
     atom   28 type  1   force =     0.01018826   -0.00458751   -0.02172514
     atom   29 type  1   force =     0.00721389    0.02170722    0.00476440
     atom   30 type  1   force =     0.00278250   -0.01773261    0.01150042
     atom   31 type  1   force =    -0.01101721   -0.02607450   -0.00057654
     atom   32 type  1   force =    -0.00235638    0.01359316    0.02692601
     atom   33 type  1   force =     0.00906616    0.02096222   -0.04174748
     atom   34 type  1   force =     0.04559903   -0.01680912   -0.04664950
     atom   35 type  1   force =     0.00282214   -0.02105339    0.02227776
     atom   36 type  1   force =     0.03169820    0.01252298   -0.09900120
     atom   37 type  1   force =    -0.00631162   -0.03215841   -0.01697985
     atom   38 type  1   force =    -0.01141334   -0.01633007   -0.00917108
     atom   39 type  1   force =     0.01086045   -0.00488409    0.00520655
     atom   40 type  1   force =     0.00380525   -0.02536078   -0.00148873
     atom   41 type  1   force =    -0.00949708   -0.03474089   -0.00319740
     atom   42 type  1   force =     0.00338256   -0.01727216   -0.00199842
     atom   43 type  1   force =     0.00345404   -0.00566510    0.02683934
     atom   44 type  1   force =     0.00058736    0.01342672    0.01572923
     atom   45 type  1   force =     0.00400010    0.03125800    0.01879922
     atom   46 type  1   force =     0.03810820    0.07823156    0.06029633
     atom   47 type  1   force =     0.00752132   -0.03475154    0.02700051
     atom   48 type  1   force =     0.02838209   -0.02176747   -0.03843802
     atom   49 type  1   force =    -0.02188844    0.04967680    0.00201604
     atom   50 type  1   force =     0.00652762    0.01531475   -0.01371208
     atom   51 type  1   force =    -0.01791218   -0.04749450   -0.00233782
     atom   52 type  1   force =     0.01437474    0.00755711   -0.00404014
     atom   53 type  1   force =    -0.00101249    0.01333767   -0.01093056
     atom   54 type  1   force =     0.00183432    0.00539236    0.02243474
     atom   55 type  1   force =    -0.00250734   -0.01193479   -0.00698633
     atom   56 type  1   force =    -0.04659941   -0.01492144   -0.03318937
     atom   57 type  1   force =    -0.02931371   -0.00594387    0.00924515
     atom   58 type  1   force =     0.00081048    0.00705911    0.01001333
     atom   59 type  1   force =    -0.02778151    0.02681572    0.01050852
     atom   60 type  1   force =    -0.00825100    0.00980745   -0.01768282
     atom   61 type  1   force =    -0.10151316   -0.04134967   -0.07914885
     atom   62 type  1   force =    -0.00368707   -0.00545756    0.00225043
     atom   63 type  1   force =     0.03524466    0.00226169    0.01730213
     atom   64 type  1   force =     0.04205678    0.06428559    0.09255537

     Total force =     0.389035     Total SCF correction =     0.001436


     Computing stress (Cartesian axis) and pressure

          total   stress  (Ry/bohr**3)                   (kbar)     P=      -41.62
  -0.00031501   0.00000128   0.00000782          -46.34        0.19        1.15
   0.00000128  -0.00023769   0.00000434            0.19      -34.97        0.64
   0.00000782   0.00000434  -0.00029604            1.15        0.64      -43.55

 
     init_run     :      1.09s CPU      4.24s WALL (       1 calls)
     electrons    :      1.66s CPU      1.83s WALL (       1 calls)
     forces       :      0.03s CPU      0.03s WALL (       1 calls)
     stress       :      0.14s CPU      0.14s WALL (       1 calls)

     Called by init_run:
     wfcinit      :      0.58s CPU      3.58s WALL (       1 calls)
                                        3.58s GPU  (       1 calls)
     potinit      :      0.04s CPU      0.11s WALL (       1 calls)
     hinit0       :      0.45s CPU      0.48s WALL (       1 calls)

     Called by electrons:
     c_bands      :      1.08s CPU      1.16s WALL (      19 calls)
     sum_band     :      0.29s CPU      0.35s WALL (      19 calls)
     v_of_rho     :      0.13s CPU      0.21s WALL (      19 calls)
     mix_rho      :      0.13s CPU      0.14s WALL (      19 calls)

     Called by c_bands:
     init_us_2    :      0.05s CPU      0.05s WALL (      39 calls)
     init_us_2:gp :      0.05s CPU      0.05s WALL (      39 calls)
     regterg      :      0.95s CPU      1.02s WALL (      19 calls)

     Called by *egterg:
     rdiaghg      :      0.42s CPU      1.04s WALL (      87 calls)
                                        1.02s GPU  (      87 calls)
     h_psi        :      0.95s CPU      3.38s WALL (      89 calls)
                                        3.38s GPU  (      89 calls)
     g_psi        :      0.00s CPU      0.00s WALL (      69 calls)
                                        0.00s GPU  (      69 calls)

     Called by h_psi:
     h_psi:calbec :      0.56s CPU      2.92s WALL (      89 calls)
                                        2.92s GPU  (      89 calls)
     vloc_psi     :      0.34s CPU      0.40s WALL (      89 calls)
                                        0.40s GPU  (      89 calls)
     add_vuspsi   :      0.03s CPU      0.05s WALL (      89 calls)
                                        0.05s GPU  (      89 calls)

     General routines
     calbec       :      0.57s CPU      2.93s WALL (      94 calls)
     fft          :      0.55s CPU      0.65s WALL (     159 calls)
                                        0.11s GPU  (     101 calls)
     ffts         :      0.03s CPU      0.03s WALL (      19 calls)
     fftw         :      0.42s CPU      0.55s WALL (    2005 calls)
                                        0.49s GPU  (    2005 calls)
 
     Parallel routines
 
     PWSCF        :      2.95s CPU      6.31s WALL

 
   This run was terminated on:  10:49:45  10May2023            

=------------------------------------------------------------------------------=
   JOB DONE.
=------------------------------------------------------------------------------=
