An instance of this daemon is already running
An instance of this daemon is already running

     Program PWSCF v.7.1 starts on 10May2023 at 10:49:20 

     This program is part of the open-source Quantum ESPRESSO suite
     for quantum simulation of materials; please cite
         "P. Giannozzi et al., J. Phys.:Condens. Matter 21 395502 (2009);
         "P. Giannozzi et al., J. Phys.:Condens. Matter 29 465901 (2017);
         "P. Giannozzi et al., J. Chem. Phys. 152 154105 (2020);
          URL http://www.quantum-espresso.org", 
     in publications or presentations arising from this work. More details at
     http://www.quantum-espresso.org/quote

     Parallel version (MPI & OpenMP), running on       4 processor cores
     Number of MPI processes:                 4
     Threads/MPI process:                     1

     MPI processes distributed on     1 nodes
     153143 MiB available memory on the printing compute node when the environment starts
 
     Reading input from pw-si-59.in
Warning: card &CELL ignored
Warning: card / ignored

     Current dimensions of program PWSCF are:
     Max number of different atomic species (ntypx) = 10
     Max number of k-points (npk) =  40000
     Max angular momentum in pseudopotentials (lmaxx) =  4

     IMPORTANT: XC functional enforced from input :
     Exchange-correlation= PBE
                           (   1   4   3   4   0   0   0)
     Any further DFT definition will be discarded
     Please, verify this is what you really want


     gamma-point specific algorithms are used
 
     K-points division:     npool     =       2
     R & G space division:  proc/nbgrp/npool/nimage =       2
     Subspace diagonalization in iterative solution of the eigenvalue problem:
     a serial algorithm will be used

     Message from routine divide_et_impera:
     suboptimal parallelization: some nodes have no k-points
 
     Parallelization info
     --------------------
     sticks:   dense  smooth     PW     G-vecs:    dense   smooth      PW
     Min        1908    1908    502                89100    89100   12102
     Max        1909    1909    503                89105    89105   12105
     Sum        3817    3817   1005               178205   178205   24207
 
     Using Slab Decomposition
 


     bravais-lattice index     =            0
     lattice parameter (alat)  =      20.0252  a.u.
     unit-cell volume          =    8030.2780 (a.u.)^3
     number of atoms/cell      =           64
     number of atomic types    =            1
     number of electrons       =       256.00
     number of Kohn-Sham states=          154
     kinetic-energy cutoff     =      30.0000  Ry
     charge density cutoff     =     120.0000  Ry
     scf convergence threshold =      1.0E-06
     mixing beta               =       0.5000
     number of iterations used =            8  plain     mixing
     Exchange-correlation= PBE
                           (   1   4   3   4   0   0   0)

     GPU acceleration is ACTIVE.
     GPU-aware MPI enabled

     Message from routine print_cuda_info:
     High GPU oversubscription detected. Are you sure this is what you want?

     celldm(1)=  20.025200  celldm(2)=   0.000000  celldm(3)=   0.000000
     celldm(4)=   0.000000  celldm(5)=   0.000000  celldm(6)=   0.000000

     crystal axes: (cart. coord. in units of alat)
               a(1) = (   1.000000   0.000000   0.000000 )  
               a(2) = (   0.000000   1.000000   0.000000 )  
               a(3) = (   0.000000   0.000000   1.000000 )  

     reciprocal axes: (cart. coord. in units 2 pi/alat)
               b(1) = (  1.000000  0.000000  0.000000 )  
               b(2) = (  0.000000  1.000000  0.000000 )  
               b(3) = (  0.000000  0.000000  1.000000 )  


     PseudoPot. # 1 for Si read from file:
     /home/ppiaggi/pseudos/Si_ONCV_PBE_sr.upf
     MD5 check sum: 8553c464762ac42b85b1eed164b4d029
     Pseudo is Norm-conserving, Zval =  4.0
     Generated using ONCVPSP code by D. R. Hamann
     Using radial grid of 1510 points,  4 beta functions with: 
                l(1) =   0
                l(2) =   0
                l(3) =   1
                l(4) =   1

     atomic species   valence    mass     pseudopotential
        Si             4.00    28.08500     Si( 1.00)

     No symmetry found



   Cartesian axes

     site n.     atom                  positions (alat units)
         1           Si  tau(   1) = (   0.0403347   0.0744354   0.3303200  )
         2           Si  tau(   2) = (   0.6191320   0.5199080   0.5993190  )
         3           Si  tau(   3) = (   0.6868610   0.6105260   0.3432060  )
         4           Si  tau(   4) = (   0.2029140   0.1488290   0.7711710  )
         5           Si  tau(   5) = (   0.0278011   0.2756930   0.1269630  )
         6           Si  tau(   6) = (   0.8744420   0.0958179   0.1302510  )
         7           Si  tau(   7) = (   0.9422010   0.5361840   0.3570740  )
         8           Si  tau(   8) = (   0.8808440   0.3450710   0.6746600  )
         9           Si  tau(   9) = (   0.2317290   0.1574070   0.0408527  )
        10           Si  tau(  10) = (   0.5902150   0.2425830   0.6740290  )
        11           Si  tau(  11) = (   0.8021750   0.6626290   0.5616810  )
        12           Si  tau(  12) = (   0.7240890   0.8595790   0.7037730  )
        13           Si  tau(  13) = (   0.2341240   0.9210200   0.2350270  )
        14           Si  tau(  14) = (   0.0148161   0.7357250   0.2508510  )
        15           Si  tau(  15) = (   0.0508354   0.6479880   0.5311810  )
        16           Si  tau(  16) = (   0.8773080   0.5284860   0.1192150  )
        17           Si  tau(  17) = (   0.5202070   0.4715190   0.9754290  )
        18           Si  tau(  18) = (   0.4368770   0.7558880   0.4973800  )
        19           Si  tau(  19) = (   0.5267540   0.7376240   0.7005090  )
        20           Si  tau(  20) = (   0.6182840   0.1724330   0.1669610  )
        21           Si  tau(  21) = (   0.3118010   0.4726650   0.2098930  )
        22           Si  tau(  22) = (   0.4890160   0.0894343   0.9407500  )
        23           Si  tau(  23) = (   0.3131310   0.1753130   0.2910070  )
        24           Si  tau(  24) = (   0.2756980   0.9694510   0.5297740  )
        25           Si  tau(  25) = (   0.4587960   0.9522850   0.3366810  )
        26           Si  tau(  26) = (   0.6844260   0.1202630   0.8521130  )
        27           Si  tau(  27) = (   0.8629310   0.8822320   0.3059530  )
        28           Si  tau(  28) = (   0.5816430   0.3794010   0.3157320  )
        29           Si  tau(  29) = (   0.6593320   0.6207980   0.0752174  )
        30           Si  tau(  30) = (   0.4607510   0.6734990   0.2258590  )
        31           Si  tau(  31) = (   0.3824970   0.8247590   0.0294330  )
        32           Si  tau(  32) = (   0.0071612   0.8130900   0.7629540  )
        33           Si  tau(  33) = (   0.4988450   0.1704750   0.4470490  )
        34           Si  tau(  34) = (   0.9656000   0.2198820   0.8564830  )
        35           Si  tau(  35) = (   0.4058210   0.6406810   0.8756710  )
        36           Si  tau(  36) = (   0.4210690   0.5120710   0.4571320  )
        37           Si  tau(  37) = (   0.1409840   0.9339350   0.0360039  )
        38           Si  tau(  38) = (   0.7701710   0.2973810   0.0005974  )
        39           Si  tau(  39) = (   0.5616970   0.9263700   0.1208250  )
        40           Si  tau(  40) = (   0.9315410   0.5619740   0.7641140  )
        41           Si  tau(  41) = (   0.2204970   0.4588750   0.5443910  )
        42           Si  tau(  42) = (   0.3950380   0.2802900   0.8135740  )
        43           Si  tau(  43) = (   0.2571680   0.9320360   0.8282730  )
        44           Si  tau(  44) = (   0.6638350   0.8336380   0.4391340  )
        45           Si  tau(  45) = (   0.4727670   0.9929740   0.7110870  )
        46           Si  tau(  46) = (   0.6637430   0.4131240   0.7967490  )
        47           Si  tau(  47) = (   0.0256619   0.2341210   0.5252340  )
        48           Si  tau(  48) = (   0.1088840   0.3655180   0.3196240  )
        49           Si  tau(  49) = (   0.0761358   0.4315050   0.9135300  )
        50           Si  tau(  50) = (   0.7707680   0.8334750   0.0885021  )
        51           Si  tau(  51) = (   0.0606888   0.9022850   0.4994310  )
        52           Si  tau(  52) = (   0.8973110   0.9662370   0.9440600  )
        53           Si  tau(  53) = (   0.2228210   0.7322220   0.3350540  )
        54           Si  tau(  54) = (   0.9854330   0.0725391   0.6629500  )
        55           Si  tau(  55) = (   0.7506170   0.0612572   0.5741430  )
        56           Si  tau(  56) = (   0.2203920   0.5762530   0.0279853  )
        57           Si  tau(  57) = (   0.2436920   0.7388490   0.6683400  )
        58           Si  tau(  58) = (   0.4265310   0.3039120   0.1007510  )
        59           Si  tau(  59) = (   0.0399878   0.7195870   0.0080375  )
        60           Si  tau(  60) = (   0.2445840   0.4988290   0.7625750  )
        61           Si  tau(  61) = (   0.7839120   0.1373160   0.3600970  )
        62           Si  tau(  62) = (   0.7812020   0.6905810   0.8850050  )
        63           Si  tau(  63) = (   0.7741650   0.3523650   0.4411560  )
        64           Si  tau(  64) = (   0.2615380   0.1958230   0.5451180  )

     number of k points=     1  Fermi-Dirac smearing, width (Ry)=  0.0100
                       cart. coord. in units 2pi/alat
        k(    1) = (   0.0000000   0.0000000   0.0000000), wk =   2.0000000

     Dense  grid:    89103 G-vectors     FFT dimensions: (  72,  72,  72)

     Estimated max dynamical RAM per process >     143.32 MB

     Estimated total dynamical RAM >     551.54 MB

     Initial potential from superposition of free atoms

     starting charge     255.9608, renormalised to     256.0000
     Starting wfcs are  256 randomized atomic wfcs

     total cpu time spent up to now is        4.3 secs

     Self-consistent Calculation

     iteration #  1     ecut=    30.00 Ry     beta= 0.50
     Davidson diagonalization with overlap
     ethr =  1.00E-02,  avg # of iterations =  3.0

     Threshold (ethr) on eigenvalues was too large:
     Diagonalizing with lowered threshold

     Davidson diagonalization with overlap
     ethr =  3.03E-04,  avg # of iterations =  4.0

     total cpu time spent up to now is        4.5 secs

     total energy              =    -501.17982051 Ry
     estimated scf accuracy    <       0.93215378 Ry

     iteration #  2     ecut=    30.00 Ry     beta= 0.50
     Davidson diagonalization with overlap
     ethr =  3.64E-04,  avg # of iterations =  3.0

     total cpu time spent up to now is        4.6 secs

     total energy              =    -501.10697732 Ry
     estimated scf accuracy    <       1.43134373 Ry

     iteration #  3     ecut=    30.00 Ry     beta= 0.50
     Davidson diagonalization with overlap
     ethr =  3.64E-04,  avg # of iterations =  2.0

     total cpu time spent up to now is        4.6 secs

     total energy              =    -501.28198671 Ry
     estimated scf accuracy    <       0.52689492 Ry

     iteration #  4     ecut=    30.00 Ry     beta= 0.50
     Davidson diagonalization with overlap
     ethr =  2.06E-04,  avg # of iterations =  3.0

     total cpu time spent up to now is        4.7 secs

     total energy              =    -501.26397864 Ry
     estimated scf accuracy    <       1.29167424 Ry

     iteration #  5     ecut=    30.00 Ry     beta= 0.50
     Davidson diagonalization with overlap
     ethr =  2.06E-04,  avg # of iterations =  2.0

     total cpu time spent up to now is        4.8 secs

     total energy              =    -501.36099311 Ry
     estimated scf accuracy    <       0.07637254 Ry

     iteration #  6     ecut=    30.00 Ry     beta= 0.50
     Davidson diagonalization with overlap
     ethr =  2.98E-05,  avg # of iterations =  8.0

     total cpu time spent up to now is        4.9 secs

     total energy              =    -501.36832553 Ry
     estimated scf accuracy    <       0.04848222 Ry

     iteration #  7     ecut=    30.00 Ry     beta= 0.50
     Davidson diagonalization with overlap
     ethr =  1.89E-05,  avg # of iterations =  3.0

     total cpu time spent up to now is        5.0 secs

     total energy              =    -501.37234132 Ry
     estimated scf accuracy    <       0.04008786 Ry

     iteration #  8     ecut=    30.00 Ry     beta= 0.50
     Davidson diagonalization with overlap
     ethr =  1.57E-05,  avg # of iterations =  2.0

     total cpu time spent up to now is        5.1 secs

     total energy              =    -501.37498513 Ry
     estimated scf accuracy    <       0.00483485 Ry

     iteration #  9     ecut=    30.00 Ry     beta= 0.50
     Davidson diagonalization with overlap
     ethr =  1.89E-06,  avg # of iterations = 14.0

     total cpu time spent up to now is        5.3 secs

     total energy              =    -501.37548827 Ry
     estimated scf accuracy    <       0.00387062 Ry

     iteration # 10     ecut=    30.00 Ry     beta= 0.50
     Davidson diagonalization with overlap
     ethr =  1.51E-06,  avg # of iterations =  2.0

     total cpu time spent up to now is        5.4 secs

     total energy              =    -501.37579502 Ry
     estimated scf accuracy    <       0.00108407 Ry

     iteration # 11     ecut=    30.00 Ry     beta= 0.50
     Davidson diagonalization with overlap
     ethr =  4.23E-07,  avg # of iterations =  2.0

     total cpu time spent up to now is        5.5 secs

     total energy              =    -501.37587291 Ry
     estimated scf accuracy    <       0.00026323 Ry

     iteration # 12     ecut=    30.00 Ry     beta= 0.50
     Davidson diagonalization with overlap
     ethr =  1.03E-07,  avg # of iterations =  3.0

     total cpu time spent up to now is        5.5 secs

     total energy              =    -501.37589444 Ry
     estimated scf accuracy    <       0.00050599 Ry

     iteration # 13     ecut=    30.00 Ry     beta= 0.50
     Davidson diagonalization with overlap
     ethr =  1.03E-07,  avg # of iterations =  2.0

     total cpu time spent up to now is        5.6 secs

     total energy              =    -501.37592506 Ry
     estimated scf accuracy    <       0.00002915 Ry

     iteration # 14     ecut=    30.00 Ry     beta= 0.50
     Davidson diagonalization with overlap
     ethr =  1.14E-08,  avg # of iterations =  4.0

     total cpu time spent up to now is        5.7 secs

     total energy              =    -501.37593019 Ry
     estimated scf accuracy    <       0.00001257 Ry

     iteration # 15     ecut=    30.00 Ry     beta= 0.50
     Davidson diagonalization with overlap
     ethr =  4.91E-09,  avg # of iterations =  4.0

     total cpu time spent up to now is        5.8 secs

     total energy              =    -501.37593016 Ry
     estimated scf accuracy    <       0.00003541 Ry

     iteration # 16     ecut=    30.00 Ry     beta= 0.50
     Davidson diagonalization with overlap
     ethr =  4.91E-09,  avg # of iterations =  3.0

     total cpu time spent up to now is        5.9 secs

     total energy              =    -501.37593239 Ry
     estimated scf accuracy    <       0.00000237 Ry

     iteration # 17     ecut=    30.00 Ry     beta= 0.50
     Davidson diagonalization with overlap
     ethr =  9.26E-10,  avg # of iterations =  3.0

     total cpu time spent up to now is        6.0 secs

     total energy              =    -501.37593267 Ry
     estimated scf accuracy    <       0.00000151 Ry

     iteration # 18     ecut=    30.00 Ry     beta= 0.50
     Davidson diagonalization with overlap
     ethr =  5.89E-10,  avg # of iterations =  2.0

     total cpu time spent up to now is        6.1 secs

     End of self-consistent calculation

          k = 0.0000 0.0000 0.0000 ( 11072 PWs)   bands (ev):

    -5.1563  -4.1535  -4.0793  -3.9995  -3.9632  -3.8332  -3.6358  -3.1995
    -3.0381  -2.9493  -2.9241  -2.8208  -2.7536  -2.6594  -2.5933  -2.5454
    -2.4044  -2.3441  -2.2617  -1.8399  -1.7899  -1.7230  -1.5227  -1.4321
    -1.3588  -1.2224  -1.0772  -0.7006  -0.4678  -0.3697  -0.3222  -0.1575
    -0.0868   0.0487   0.2048   0.2498   0.3564   0.4251   0.5218   0.6147
     0.6982   0.7762   0.8040   0.9010   0.9251   0.9804   1.0838   1.1966
     1.2951   1.3258   1.4656   1.5299   1.5748   1.7176   1.7607   1.8642
     1.8857   1.9670   2.1003   2.1998   2.2753   2.4233   2.4833   2.5366
     2.6210   2.7093   2.7546   2.8132   2.9401   3.0093   3.0646   3.1931
     3.2087   3.2297   3.3655   3.4567   3.5224   3.5349   3.6123   3.7178
     3.9786   4.4352   4.6263   4.6872   4.7445   4.7671   4.8610   4.9544
     5.0464   5.0877   5.1487   5.2145   5.2598   5.3447   5.4183   5.5146
     5.5552   5.6697   5.6967   5.7646   5.7955   5.8770   5.8821   5.9489
     6.0124   6.0511   6.0810   6.1508   6.2095   6.2991   6.3346   6.4122
     6.4786   6.5124   6.6058   6.6476   6.6903   6.7652   6.8254   6.8275
     6.8898   6.9277   6.9592   6.9962   7.0636   7.0964   7.1405   7.2308
     7.2730   7.3096   7.3656   7.4191   7.4741   7.5010   7.6563   7.7103
     7.7943   7.9404   7.9722   8.0142   8.0438   8.0924   8.1531   8.2284
     8.3104   8.3628   8.4025   8.4871   8.5469   8.6373   8.6681   8.7152
     8.7768   8.8843

     the Fermi energy is     7.2490 ev

!    total energy              =    -501.37593220 Ry
     estimated scf accuracy    <       0.00000078 Ry
     smearing contrib. (-TS)   =      -0.16671414 Ry
     internal energy E=F+TS    =    -501.20921805 Ry

     The total energy is F=E-TS. E is the sum of the following terms:
     one-electron contribution =     204.02024904 Ry
     hartree contribution      =      17.91972028 Ry
     xc contribution           =    -150.27145896 Ry
     ewald contribution        =    -572.87772842 Ry

     convergence has been achieved in  18 iterations

     Forces acting on atoms (cartesian axes, Ry/au):

     atom    1 type  1   force =    -0.00461770   -0.01565086   -0.00944891
     atom    2 type  1   force =    -0.02000538    0.00689665   -0.00883577
     atom    3 type  1   force =    -0.01646010    0.00892652   -0.02438683
     atom    4 type  1   force =    -0.02661459   -0.01803321    0.00915297
     atom    5 type  1   force =     0.01268575    0.00103365   -0.01835750
     atom    6 type  1   force =     0.00707681    0.01118723    0.03330723
     atom    7 type  1   force =    -0.03354157   -0.03060817   -0.00352258
     atom    8 type  1   force =    -0.02419575    0.02247005   -0.00530101
     atom    9 type  1   force =    -0.00315906    0.01697589    0.00987407
     atom   10 type  1   force =    -0.00689003   -0.02852697   -0.01503846
     atom   11 type  1   force =    -0.00394453    0.01766021    0.00578749
     atom   12 type  1   force =     0.01553810   -0.00341102   -0.00544879
     atom   13 type  1   force =     0.01266028    0.04798411    0.00098698
     atom   14 type  1   force =     0.01642318   -0.02457194   -0.03092702
     atom   15 type  1   force =     0.00216805    0.00955281   -0.00352147
     atom   16 type  1   force =    -0.00217023   -0.01386115    0.00040770
     atom   17 type  1   force =     0.01707598   -0.00855325   -0.02604037
     atom   18 type  1   force =    -0.01983233    0.00471490   -0.01953260
     atom   19 type  1   force =     0.00274191   -0.00021200    0.00278471
     atom   20 type  1   force =     0.02043648    0.01064650   -0.00584245
     atom   21 type  1   force =     0.00581585    0.02057254    0.00950879
     atom   22 type  1   force =    -0.02542277   -0.01544536    0.00742198
     atom   23 type  1   force =    -0.02906954   -0.00683128   -0.01698755
     atom   24 type  1   force =     0.04187599   -0.02186562    0.01014656
     atom   25 type  1   force =    -0.00477465    0.00704266    0.01102269
     atom   26 type  1   force =     0.03883750   -0.01268519   -0.00231118
     atom   27 type  1   force =    -0.01988338    0.03614826   -0.00881817
     atom   28 type  1   force =    -0.01385054   -0.00138207    0.01072343
     atom   29 type  1   force =     0.02150113   -0.00632072    0.03019248
     atom   30 type  1   force =    -0.00675295   -0.01911970   -0.00123464
     atom   31 type  1   force =    -0.02268236   -0.01784558   -0.00039633
     atom   32 type  1   force =    -0.00407408    0.01758945    0.03601347
     atom   33 type  1   force =    -0.01536964    0.00106285   -0.00761031
     atom   34 type  1   force =     0.00114824    0.01415051    0.00282966
     atom   35 type  1   force =    -0.02044482   -0.00938464    0.00601438
     atom   36 type  1   force =     0.05174915    0.00895431   -0.01037283
     atom   37 type  1   force =    -0.00633278    0.00728435   -0.03254144
     atom   38 type  1   force =     0.01045956   -0.00605825   -0.01592522
     atom   39 type  1   force =     0.01203986    0.04426194    0.00856796
     atom   40 type  1   force =    -0.00927592   -0.01069629   -0.00858320
     atom   41 type  1   force =    -0.02174186   -0.02324261   -0.02109216
     atom   42 type  1   force =     0.00469086    0.01213921    0.00898578
     atom   43 type  1   force =     0.00819049   -0.01266218    0.00608172
     atom   44 type  1   force =     0.00592655   -0.01392224    0.00776665
     atom   45 type  1   force =    -0.01894674   -0.02463465    0.01369154
     atom   46 type  1   force =     0.03309139    0.00447175    0.01688448
     atom   47 type  1   force =     0.03092875    0.03344408   -0.05514020
     atom   48 type  1   force =     0.02350567    0.00118837    0.01138741
     atom   49 type  1   force =    -0.01254292    0.00921478   -0.00887263
     atom   50 type  1   force =    -0.02304688    0.00721188    0.01347737
     atom   51 type  1   force =    -0.00275339    0.00312310    0.01108763
     atom   52 type  1   force =     0.00305452   -0.00866849   -0.02250758
     atom   53 type  1   force =    -0.00007925   -0.02434492    0.01699575
     atom   54 type  1   force =    -0.01498760   -0.04784999    0.01683171
     atom   55 type  1   force =     0.01200989   -0.02756295    0.03324412
     atom   56 type  1   force =    -0.00506771   -0.00109896   -0.00954303
     atom   57 type  1   force =    -0.00534892    0.03187994    0.01428923
     atom   58 type  1   force =    -0.00460165    0.00219812    0.01152528
     atom   59 type  1   force =    -0.00718514   -0.00479388    0.00577435
     atom   60 type  1   force =     0.01652251   -0.00774003    0.03449209
     atom   61 type  1   force =     0.01260386    0.00875321   -0.02925324
     atom   62 type  1   force =     0.01050780    0.01021564   -0.00634216
     atom   63 type  1   force =     0.01220403    0.01905427    0.02352730
     atom   64 type  1   force =    -0.00780338    0.00957442   -0.00704931

     Total force =     0.249229     Total SCF correction =     0.001781


     Computing stress (Cartesian axis) and pressure

          total   stress  (Ry/bohr**3)                   (kbar)     P=      -48.60
  -0.00035690   0.00007359   0.00003705          -52.50       10.83        5.45
   0.00007359  -0.00037242  -0.00006525           10.83      -54.78       -9.60
   0.00003705  -0.00006525  -0.00026179            5.45       -9.60      -38.51

 
     init_run     :      0.92s CPU      4.19s WALL (       1 calls)
     electrons    :      1.65s CPU      1.82s WALL (       1 calls)
     forces       :      0.03s CPU      0.03s WALL (       1 calls)
     stress       :      0.14s CPU      0.14s WALL (       1 calls)

     Called by init_run:
     wfcinit      :      0.42s CPU      3.51s WALL (       1 calls)
                                        3.51s GPU  (       1 calls)
     potinit      :      0.04s CPU      0.12s WALL (       1 calls)
     hinit0       :      0.45s CPU      0.47s WALL (       1 calls)

     Called by electrons:
     c_bands      :      1.06s CPU      1.16s WALL (      19 calls)
     sum_band     :      0.30s CPU      0.34s WALL (      19 calls)
     v_of_rho     :      0.13s CPU      0.22s WALL (      19 calls)
     mix_rho      :      0.13s CPU      0.15s WALL (      19 calls)

     Called by c_bands:
     init_us_2    :      0.05s CPU      0.05s WALL (      39 calls)
     init_us_2:gp :      0.05s CPU      0.05s WALL (      39 calls)
     regterg      :      0.93s CPU      1.02s WALL (      19 calls)

     Called by *egterg:
     rdiaghg      :      0.39s CPU      1.05s WALL (      87 calls)
                                        1.03s GPU  (      87 calls)
     h_psi        :      0.80s CPU      3.28s WALL (      89 calls)
                                        3.28s GPU  (      89 calls)
     g_psi        :      0.00s CPU      0.00s WALL (      69 calls)
                                        0.00s GPU  (      69 calls)

     Called by h_psi:
     h_psi:calbec :      0.40s CPU      2.82s WALL (      89 calls)
                                        2.82s GPU  (      89 calls)
     vloc_psi     :      0.35s CPU      0.41s WALL (      89 calls)
                                        0.40s GPU  (      89 calls)
     add_vuspsi   :      0.03s CPU      0.05s WALL (      89 calls)
                                        0.05s GPU  (      89 calls)

     General routines
     calbec       :      0.41s CPU      2.83s WALL (      94 calls)
     fft          :      0.55s CPU      0.67s WALL (     159 calls)
                                        0.12s GPU  (     101 calls)
     ffts         :      0.03s CPU      0.03s WALL (      19 calls)
     fftw         :      0.42s CPU      0.55s WALL (    2011 calls)
                                        0.48s GPU  (    2011 calls)
 
     Parallel routines
 
     PWSCF        :      2.77s CPU      6.25s WALL

 
   This run was terminated on:  10:49:26  10May2023            

=------------------------------------------------------------------------------=
   JOB DONE.
=------------------------------------------------------------------------------=
