An instance of this daemon is already running

     Program PWSCF v.7.1 starts on 10May2023 at 10:43:17 

     This program is part of the open-source Quantum ESPRESSO suite
     for quantum simulation of materials; please cite
         "P. Giannozzi et al., J. Phys.:Condens. Matter 21 395502 (2009);
         "P. Giannozzi et al., J. Phys.:Condens. Matter 29 465901 (2017);
         "P. Giannozzi et al., J. Chem. Phys. 152 154105 (2020);
          URL http://www.quantum-espresso.org", 
     in publications or presentations arising from this work. More details at
     http://www.quantum-espresso.org/quote

     Parallel version (MPI & OpenMP), running on       4 processor cores
     Number of MPI processes:                 4
     Threads/MPI process:                     1

     MPI processes distributed on     1 nodes
     153206 MiB available memory on the printing compute node when the environment starts
 
     Reading input from pw-si-18.in
Warning: card &CELL ignored
Warning: card / ignored

     Current dimensions of program PWSCF are:
     Max number of different atomic species (ntypx) = 10
     Max number of k-points (npk) =  40000
     Max angular momentum in pseudopotentials (lmaxx) =  4

     IMPORTANT: XC functional enforced from input :
     Exchange-correlation= PBE
                           (   1   4   3   4   0   0   0)
     Any further DFT definition will be discarded
     Please, verify this is what you really want


     gamma-point specific algorithms are used
 
     K-points division:     npool     =       2
     R & G space division:  proc/nbgrp/npool/nimage =       2
     Subspace diagonalization in iterative solution of the eigenvalue problem:
     a serial algorithm will be used

     Message from routine divide_et_impera:
     suboptimal parallelization: some nodes have no k-points
 
     Parallelization info
     --------------------
     sticks:   dense  smooth     PW     G-vecs:    dense   smooth      PW
     Min        1916    1916    502                89532    89532   12150
     Max        1917    1917    503                89537    89537   12153
     Sum        3833    3833   1005               179069   179069   24303
 
     Using Slab Decomposition
 


     bravais-lattice index     =            0
     lattice parameter (alat)  =      20.0565  a.u.
     unit-cell volume          =    8067.9723 (a.u.)^3
     number of atoms/cell      =           64
     number of atomic types    =            1
     number of electrons       =       256.00
     number of Kohn-Sham states=          154
     kinetic-energy cutoff     =      30.0000  Ry
     charge density cutoff     =     120.0000  Ry
     scf convergence threshold =      1.0E-06
     mixing beta               =       0.5000
     number of iterations used =            8  plain     mixing
     Exchange-correlation= PBE
                           (   1   4   3   4   0   0   0)

     GPU acceleration is ACTIVE.
     GPU-aware MPI enabled

     Message from routine print_cuda_info:
     High GPU oversubscription detected. Are you sure this is what you want?

     celldm(1)=  20.056484  celldm(2)=   0.000000  celldm(3)=   0.000000
     celldm(4)=   0.000000  celldm(5)=   0.000000  celldm(6)=   0.000000

     crystal axes: (cart. coord. in units of alat)
               a(1) = (   1.000000   0.000000   0.000000 )  
               a(2) = (   0.000000   1.000000   0.000000 )  
               a(3) = (   0.000000   0.000000   1.000000 )  

     reciprocal axes: (cart. coord. in units 2 pi/alat)
               b(1) = (  1.000000  0.000000  0.000000 )  
               b(2) = (  0.000000  1.000000  0.000000 )  
               b(3) = (  0.000000  0.000000  1.000000 )  


     PseudoPot. # 1 for Si read from file:
     /home/ppiaggi/pseudos/Si_ONCV_PBE_sr.upf
     MD5 check sum: 8553c464762ac42b85b1eed164b4d029
     Pseudo is Norm-conserving, Zval =  4.0
     Generated using ONCVPSP code by D. R. Hamann
     Using radial grid of 1510 points,  4 beta functions with: 
                l(1) =   0
                l(2) =   0
                l(3) =   1
                l(4) =   1

     atomic species   valence    mass     pseudopotential
        Si             4.00    28.08500     Si( 1.00)

     No symmetry found



   Cartesian axes

     site n.     atom                  positions (alat units)
         1           Si  tau(   1) = (   0.8898650   0.5690560   0.3414930  )
         2           Si  tau(   2) = (   0.2351230   0.6758740   0.0216657  )
         3           Si  tau(   3) = (   0.5836340   0.3817250   0.4693480  )
         4           Si  tau(   4) = (   0.5273310   0.8057830   0.3270000  )
         5           Si  tau(   5) = (   0.4884540   0.9462550   0.0311369  )
         6           Si  tau(   6) = (   0.8818070   0.2620250   0.1384920  )
         7           Si  tau(   7) = (   0.5873470   0.7521450   0.6407540  )
         8           Si  tau(   8) = (   0.7371250   0.9486210   0.8940200  )
         9           Si  tau(   9) = (   0.9624430   0.2303790   0.7652010  )
        10           Si  tau(  10) = (   0.3807620   0.2599610   0.7152080  )
        11           Si  tau(  11) = (   0.9560940   0.5173100   0.0220984  )
        12           Si  tau(  12) = (   0.9674990   0.9964000   0.6021180  )
        13           Si  tau(  13) = (   0.1614530   0.5500960   0.8161740  )
        14           Si  tau(  14) = (   0.0818746   0.0965858   0.8927110  )
        15           Si  tau(  15) = (   0.6096760   0.4238770   0.0448418  )
        16           Si  tau(  16) = (   0.7924220   0.6840650   0.5798230  )
        17           Si  tau(  17) = (   0.3883770   0.7150300   0.5002490  )
        18           Si  tau(  18) = (   0.1582820   0.4974620   0.5758030  )
        19           Si  tau(  19) = (   0.3691730   0.8211040   0.1658370  )
        20           Si  tau(  20) = (   0.7600460   0.9989290   0.3885720  )
        21           Si  tau(  21) = (   0.3915740   0.5002600   0.5390190  )
        22           Si  tau(  22) = (   0.2024720   0.8000310   0.6985290  )
        23           Si  tau(  23) = (   0.4382890   0.0453014   0.7968220  )
        24           Si  tau(  24) = (   0.6533680   0.1514410   0.1794580  )
        25           Si  tau(  25) = (   0.0659220   0.6756600   0.1378270  )
        26           Si  tau(  26) = (   0.9701760   0.1711310   0.4439750  )
        27           Si  tau(  27) = (   0.2672020   0.0841681   0.0338562  )
        28           Si  tau(  28) = (   0.4553760   0.2274620   0.0723727  )
        29           Si  tau(  29) = (   0.6371970   0.1817250   0.8869780  )
        30           Si  tau(  30) = (   0.8538190   0.8502770   0.7485520  )
        31           Si  tau(  31) = (   0.2658840   0.0242287   0.4442870  )
        32           Si  tau(  32) = (   0.9606810   0.3898200   0.5766820  )
        33           Si  tau(  33) = (   0.1881030   0.9578990   0.2514620  )
        34           Si  tau(  34) = (   0.6247240   0.9959400   0.6504780  )
        35           Si  tau(  35) = (   0.6361550   0.4996790   0.8317840  )
        36           Si  tau(  36) = (   0.4157880   0.5298990   0.0914127  )
        37           Si  tau(  37) = (   0.5802750   0.3256480   0.6757390  )
        38           Si  tau(  38) = (   0.3352580   0.2473580   0.2926400  )
        39           Si  tau(  39) = (   0.4111400   0.5583010   0.7813700  )
        40           Si  tau(  40) = (   0.7631400   0.7461260   0.0657010  )
        41           Si  tau(  41) = (   0.4865310   0.9875940   0.4605840  )
        42           Si  tau(  42) = (   0.6608250   0.9329600   0.1990880  )
        43           Si  tau(  43) = (   0.2353240   0.2563330   0.5428840  )
        44           Si  tau(  44) = (   0.7635560   0.1645040   0.6689860  )
        45           Si  tau(  45) = (   0.8686100   0.5417890   0.7444400  )
        46           Si  tau(  46) = (   0.9505580   0.7047080   0.8713310  )
        47           Si  tau(  47) = (   0.5661710   0.7115770   0.9777270  )
        48           Si  tau(  48) = (   0.7683920   0.5628810   0.1706340  )
        49           Si  tau(  49) = (   0.4296400   0.7833780   0.7864510  )
        50           Si  tau(  50) = (   0.3268310   0.4582500   0.3202450  )
        51           Si  tau(  51) = (   0.8199710   0.3480620   0.3372320  )
        52           Si  tau(  52) = (   0.8301980   0.3373300   0.9090980  )
        53           Si  tau(  53) = (   0.1188480   0.3134110   0.9950910  )
        54           Si  tau(  54) = (   0.5567920   0.5657670   0.2978650  )
        55           Si  tau(  55) = (   0.1224810   0.5818750   0.3377630  )
        56           Si  tau(  56) = (   0.3274980   0.3776930   0.9301350  )
        57           Si  tau(  57) = (   0.1823990   0.0301877   0.6605500  )
        58           Si  tau(  58) = (   0.9667500   0.8071530   0.4482330  )
        59           Si  tau(  59) = (   0.1256530   0.8684220   0.9166330  )
        60           Si  tau(  60) = (   0.5296800   0.1750640   0.3601520  )
        61           Si  tau(  61) = (   0.9758740   0.8652810   0.2017260  )
        62           Si  tau(  62) = (   0.1038850   0.1996150   0.2370810  )
        63           Si  tau(  63) = (   0.1868870   0.7727680   0.4405600  )
        64           Si  tau(  64) = (   0.8935450   0.0172735   0.0719152  )

     number of k points=     1  Fermi-Dirac smearing, width (Ry)=  0.0100
                       cart. coord. in units 2pi/alat
        k(    1) = (   0.0000000   0.0000000   0.0000000), wk =   2.0000000

     Dense  grid:    89535 G-vectors     FFT dimensions: (  72,  72,  72)

     Estimated max dynamical RAM per process >     143.92 MB

     Estimated total dynamical RAM >     553.83 MB

     Initial potential from superposition of free atoms

     starting charge     255.9608, renormalised to     256.0000
     Starting wfcs are  256 randomized atomic wfcs

     total cpu time spent up to now is        4.3 secs

     Self-consistent Calculation

     iteration #  1     ecut=    30.00 Ry     beta= 0.50
     Davidson diagonalization with overlap
     ethr =  1.00E-02,  avg # of iterations =  3.0

     Threshold (ethr) on eigenvalues was too large:
     Diagonalizing with lowered threshold

     Davidson diagonalization with overlap
     ethr =  4.34E-04,  avg # of iterations =  4.0

     total cpu time spent up to now is        4.5 secs

     total energy              =    -501.21253823 Ry
     estimated scf accuracy    <       1.33414877 Ry

     iteration #  2     ecut=    30.00 Ry     beta= 0.50
     Davidson diagonalization with overlap
     ethr =  5.21E-04,  avg # of iterations =  4.0

     total cpu time spent up to now is        4.6 secs

     total energy              =    -500.78507134 Ry
     estimated scf accuracy    <       4.99796174 Ry

     iteration #  3     ecut=    30.00 Ry     beta= 0.50
     Davidson diagonalization with overlap
     ethr =  5.21E-04,  avg # of iterations =  3.0

     total cpu time spent up to now is        4.7 secs

     total energy              =    -501.24385103 Ry
     estimated scf accuracy    <       2.71368736 Ry

     iteration #  4     ecut=    30.00 Ry     beta= 0.50
     Davidson diagonalization with overlap
     ethr =  5.21E-04,  avg # of iterations =  2.0

     total cpu time spent up to now is        4.8 secs

     total energy              =    -501.44797229 Ry
     estimated scf accuracy    <       0.50496554 Ry

     iteration #  5     ecut=    30.00 Ry     beta= 0.50
     Davidson diagonalization with overlap
     ethr =  1.97E-04,  avg # of iterations =  2.0

     total cpu time spent up to now is        4.9 secs

     total energy              =    -501.47514723 Ry
     estimated scf accuracy    <       0.28618096 Ry

     iteration #  6     ecut=    30.00 Ry     beta= 0.50
     Davidson diagonalization with overlap
     ethr =  1.12E-04,  avg # of iterations =  2.0

     total cpu time spent up to now is        4.9 secs

     total energy              =    -501.50395373 Ry
     estimated scf accuracy    <       0.14628841 Ry

     iteration #  7     ecut=    30.00 Ry     beta= 0.50
     Davidson diagonalization with overlap
     ethr =  5.71E-05,  avg # of iterations =  1.0

     total cpu time spent up to now is        5.0 secs

     total energy              =    -501.51633000 Ry
     estimated scf accuracy    <       0.00826754 Ry

     iteration #  8     ecut=    30.00 Ry     beta= 0.50
     Davidson diagonalization with overlap
     c_bands:  1 eigenvalues not converged
     ethr =  3.23E-06,  avg # of iterations = 20.0

     total cpu time spent up to now is        5.2 secs

     total energy              =    -501.51693650 Ry
     estimated scf accuracy    <       0.01958412 Ry

     iteration #  9     ecut=    30.00 Ry     beta= 0.50
     Davidson diagonalization with overlap
     ethr =  3.23E-06,  avg # of iterations =  8.0

     total cpu time spent up to now is        5.3 secs

     total energy              =    -501.51863608 Ry
     estimated scf accuracy    <       0.00315034 Ry

     iteration # 10     ecut=    30.00 Ry     beta= 0.50
     Davidson diagonalization with overlap
     ethr =  1.23E-06,  avg # of iterations =  2.0

     total cpu time spent up to now is        5.4 secs

     total energy              =    -501.51884431 Ry
     estimated scf accuracy    <       0.00106946 Ry

     iteration # 11     ecut=    30.00 Ry     beta= 0.50
     Davidson diagonalization with overlap
     ethr =  4.18E-07,  avg # of iterations =  2.0

     total cpu time spent up to now is        5.5 secs

     total energy              =    -501.51891682 Ry
     estimated scf accuracy    <       0.00066043 Ry

     iteration # 12     ecut=    30.00 Ry     beta= 0.50
     Davidson diagonalization with overlap
     ethr =  2.58E-07,  avg # of iterations =  2.0

     total cpu time spent up to now is        5.6 secs

     total energy              =    -501.51897643 Ry
     estimated scf accuracy    <       0.00021824 Ry

     iteration # 13     ecut=    30.00 Ry     beta= 0.50
     Davidson diagonalization with overlap
     ethr =  8.53E-08,  avg # of iterations =  2.0

     total cpu time spent up to now is        5.7 secs

     total energy              =    -501.51899304 Ry
     estimated scf accuracy    <       0.00015818 Ry

     iteration # 14     ecut=    30.00 Ry     beta= 0.50
     Davidson diagonalization with overlap
     ethr =  6.18E-08,  avg # of iterations =  1.0

     total cpu time spent up to now is        5.7 secs

     total energy              =    -501.51900459 Ry
     estimated scf accuracy    <       0.00002028 Ry

     iteration # 15     ecut=    30.00 Ry     beta= 0.50
     Davidson diagonalization with overlap
     ethr =  7.92E-09,  avg # of iterations =  3.0

     total cpu time spent up to now is        5.8 secs

     total energy              =    -501.51900516 Ry
     estimated scf accuracy    <       0.00001666 Ry

     iteration # 16     ecut=    30.00 Ry     beta= 0.50
     Davidson diagonalization with overlap
     ethr =  6.51E-09,  avg # of iterations =  2.0

     total cpu time spent up to now is        5.9 secs

     total energy              =    -501.51900713 Ry
     estimated scf accuracy    <       0.00001632 Ry

     iteration # 17     ecut=    30.00 Ry     beta= 0.50
     Davidson diagonalization with overlap
     ethr =  6.38E-09,  avg # of iterations =  1.0

     total cpu time spent up to now is        6.0 secs

     End of self-consistent calculation

          k = 0.0000 0.0000 0.0000 ( 11168 PWs)   bands (ev):

    -5.3434  -4.4207  -4.2813  -4.2760  -4.1747  -4.0095  -3.8490  -3.3623
    -3.2721  -3.1888  -3.1087  -3.0192  -2.9984  -2.9017  -2.8329  -2.7454
    -2.6495  -2.5522  -2.4666  -2.2498  -1.8834  -1.8482  -1.7277  -1.5050
    -1.4710  -1.2673  -1.2074  -0.8837  -0.8356  -0.7045  -0.4894  -0.4309
    -0.3180  -0.1566  -0.0503  -0.0063   0.0765   0.1756   0.3041   0.3158
     0.4625   0.5216   0.5562   0.6884   0.7759   0.8371   0.9627   1.0457
     1.0931   1.1453   1.2237   1.3183   1.4282   1.5477   1.7159   1.8151
     1.8403   1.9560   2.1333   2.1496   2.1987   2.3065   2.4512   2.5004
     2.6620   2.6673   2.7488   2.8478   2.9318   2.9664   3.0613   3.1222
     3.1355   3.2306   3.3100   3.3750   3.4871   3.5680   3.6375   3.8300
     3.8416   4.1751   4.3217   4.4337   4.4687   4.5649   4.6086   4.7103
     4.7850   4.8814   4.9561   4.9811   5.0712   5.1169   5.1315   5.2658
     5.3274   5.3788   5.4794   5.5085   5.5862   5.6160   5.6965   5.7152
     5.7591   5.8181   5.8804   5.9695   6.0362   6.1121   6.1257   6.2008
     6.2688   6.2945   6.3580   6.4374   6.5092   6.5539   6.6359   6.7381
     6.7792   6.8241   6.9045   6.9901   7.0562   7.0888   7.1782   7.2114
     7.2850   7.3033   7.3481   7.4393   7.5421   7.5736   7.6341   7.7075
     7.7448   7.8215   7.8389   7.9100   7.9991   8.0387   8.0427   8.2103
     8.2522   8.3199   8.3937   8.4487   8.4642   8.5595   8.6025   8.7502
     8.7979   8.8907

     the Fermi energy is     7.2403 ev

!    total energy              =    -501.51900771 Ry
     estimated scf accuracy    <       0.00000072 Ry
     smearing contrib. (-TS)   =      -0.14996727 Ry
     internal energy E=F+TS    =    -501.36904044 Ry

     The total energy is F=E-TS. E is the sum of the following terms:
     one-electron contribution =     189.35919444 Ry
     hartree contribution      =      24.38080652 Ry
     xc contribution           =    -151.33534708 Ry
     ewald contribution        =    -563.77369432 Ry

     convergence has been achieved in  17 iterations

     Forces acting on atoms (cartesian axes, Ry/au):

     atom    1 type  1   force =     0.03217078   -0.01054247    0.06134064
     atom    2 type  1   force =     0.08248690    0.03035303   -0.02809404
     atom    3 type  1   force =     0.01686530    0.00412976   -0.06938290
     atom    4 type  1   force =    -0.02340924   -0.01465303    0.01063734
     atom    5 type  1   force =     0.01902537    0.01808875   -0.04784561
     atom    6 type  1   force =    -0.00761227   -0.03079269   -0.03095137
     atom    7 type  1   force =     0.01224918    0.03229747   -0.03277843
     atom    8 type  1   force =    -0.02856938    0.04904049    0.07330201
     atom    9 type  1   force =    -0.00977346    0.02037302   -0.03642494
     atom   10 type  1   force =    -0.03681719   -0.02621499    0.03223045
     atom   11 type  1   force =    -0.01145551   -0.01725657   -0.01738174
     atom   12 type  1   force =    -0.01229600   -0.00272576   -0.02469616
     atom   13 type  1   force =     0.00730358    0.02686687   -0.00300825
     atom   14 type  1   force =     0.00129945   -0.02081417    0.01039178
     atom   15 type  1   force =     0.02352655   -0.01364658    0.01111173
     atom   16 type  1   force =     0.01454154    0.01105148    0.00594020
     atom   17 type  1   force =     0.04787426    0.00762484    0.01277856
     atom   18 type  1   force =     0.00308592   -0.01737835   -0.00011694
     atom   19 type  1   force =    -0.04926500   -0.00000232   -0.00466686
     atom   20 type  1   force =     0.03580609    0.00747028    0.03562810
     atom   21 type  1   force =    -0.01292333   -0.00936414    0.03232644
     atom   22 type  1   force =     0.02523029   -0.01021256    0.00700704
     atom   23 type  1   force =     0.01949862   -0.00364537    0.02133423
     atom   24 type  1   force =     0.02104559    0.02171800   -0.02759084
     atom   25 type  1   force =    -0.04064462   -0.02195220    0.05068305
     atom   26 type  1   force =    -0.01652708    0.01544680   -0.01346583
     atom   27 type  1   force =     0.00910923   -0.00318610    0.01599256
     atom   28 type  1   force =     0.01269856    0.00612159   -0.01106383
     atom   29 type  1   force =     0.01990478   -0.01377319   -0.01260268
     atom   30 type  1   force =    -0.00068958    0.00139265   -0.07729614
     atom   31 type  1   force =     0.01308087    0.01790454    0.02306444
     atom   32 type  1   force =     0.01574742   -0.03719784    0.02775142
     atom   33 type  1   force =    -0.01054958   -0.00760362   -0.03933795
     atom   34 type  1   force =    -0.05538453   -0.04015906   -0.01610316
     atom   35 type  1   force =     0.01093040   -0.01414291   -0.02565534
     atom   36 type  1   force =    -0.00019208    0.02728266    0.01830962
     atom   37 type  1   force =     0.07337588    0.00860618    0.06127803
     atom   38 type  1   force =    -0.04580076   -0.02168937   -0.01005334
     atom   39 type  1   force =    -0.00599802   -0.02120138   -0.01300412
     atom   40 type  1   force =     0.00789569    0.08010713   -0.02519614
     atom   41 type  1   force =     0.01466251   -0.01711591    0.01916659
     atom   42 type  1   force =     0.02216321   -0.04144376   -0.04338299
     atom   43 type  1   force =    -0.00896380    0.00410562   -0.00669113
     atom   44 type  1   force =    -0.00762042    0.01062371    0.00805008
     atom   45 type  1   force =    -0.03744705   -0.02127187   -0.02276525
     atom   46 type  1   force =     0.03802596   -0.02070222    0.06101637
     atom   47 type  1   force =    -0.03760641   -0.00806954   -0.03287064
     atom   48 type  1   force =    -0.04373213   -0.05479899   -0.02648480
     atom   49 type  1   force =    -0.02268294    0.02094335    0.02625330
     atom   50 type  1   force =    -0.00174274    0.05035686   -0.01773468
     atom   51 type  1   force =    -0.00642027   -0.00704380    0.02903231
     atom   52 type  1   force =    -0.02107039    0.01264638    0.04643386
     atom   53 type  1   force =    -0.01200378   -0.00159992    0.01413706
     atom   54 type  1   force =    -0.00760617    0.00330614   -0.00593279
     atom   55 type  1   force =     0.01914067   -0.00105225    0.02391046
     atom   56 type  1   force =     0.00010562   -0.01879462   -0.02616203
     atom   57 type  1   force =    -0.00862516   -0.00784610    0.01138978
     atom   58 type  1   force =    -0.05440520    0.03705389   -0.00765053
     atom   59 type  1   force =    -0.00314829   -0.02151093   -0.02306546
     atom   60 type  1   force =     0.01174809    0.03826501    0.02421314
     atom   61 type  1   force =     0.02596636   -0.00851312    0.06142582
     atom   62 type  1   force =     0.01448006   -0.02045924   -0.01029743
     atom   63 type  1   force =    -0.00829896    0.00720549   -0.00047087
     atom   64 type  1   force =    -0.02176334    0.03799496   -0.04591121

     Total force =     0.388109     Total SCF correction =     0.001591


     Computing stress (Cartesian axis) and pressure

          total   stress  (Ry/bohr**3)                   (kbar)     P=      -20.97
  -0.00017448  -0.00001516   0.00002820          -25.67       -2.23        4.15
  -0.00001516  -0.00016439  -0.00004638           -2.23      -24.18       -6.82
   0.00002820  -0.00004638  -0.00008887            4.15       -6.82      -13.07

 
     init_run     :      1.08s CPU      4.25s WALL (       1 calls)
     electrons    :      1.53s CPU      1.66s WALL (       1 calls)
     forces       :      0.03s CPU      0.03s WALL (       1 calls)
     stress       :      0.12s CPU      0.14s WALL (       1 calls)

     Called by init_run:
     wfcinit      :      0.58s CPU      3.61s WALL (       1 calls)
                                        3.61s GPU  (       1 calls)
     potinit      :      0.03s CPU      0.11s WALL (       1 calls)
     hinit0       :      0.45s CPU      0.48s WALL (       1 calls)

     Called by electrons:
     c_bands      :      1.00s CPU      1.07s WALL (      18 calls)
     sum_band     :      0.28s CPU      0.32s WALL (      18 calls)
     v_of_rho     :      0.11s CPU      0.20s WALL (      18 calls)
     mix_rho      :      0.12s CPU      0.13s WALL (      18 calls)

     Called by c_bands:
     init_us_2    :      0.04s CPU      0.05s WALL (      37 calls)
     init_us_2:gp :      0.04s CPU      0.05s WALL (      37 calls)
     regterg      :      0.86s CPU      0.92s WALL (      18 calls)

     Called by *egterg:
     rdiaghg      :      0.37s CPU      1.02s WALL (      81 calls)
                                        1.00s GPU  (      81 calls)
     h_psi        :      0.92s CPU      3.35s WALL (      83 calls)
                                        3.34s GPU  (      83 calls)
     g_psi        :      0.00s CPU      0.00s WALL (      64 calls)
                                        0.00s GPU  (      64 calls)

     Called by h_psi:
     h_psi:calbec :      0.54s CPU      2.91s WALL (      83 calls)
                                        2.91s GPU  (      83 calls)
     vloc_psi     :      0.32s CPU      0.38s WALL (      83 calls)
                                        0.38s GPU  (      83 calls)
     add_vuspsi   :      0.03s CPU      0.05s WALL (      83 calls)
                                        0.05s GPU  (      83 calls)

     General routines
     calbec       :      0.55s CPU      2.91s WALL (      88 calls)
     fft          :      0.54s CPU      0.64s WALL (     151 calls)
                                        0.11s GPU  (      96 calls)
     ffts         :      0.02s CPU      0.03s WALL (      18 calls)
     fftw         :      0.40s CPU      0.53s WALL (    1904 calls)
                                        0.46s GPU  (    1904 calls)
 
     Parallel routines
 
     PWSCF        :      2.79s CPU      6.17s WALL

 
   This run was terminated on:  10:43:23  10May2023            

=------------------------------------------------------------------------------=
   JOB DONE.
=------------------------------------------------------------------------------=
