An instance of this daemon is already running
An instance of this daemon is already running
An instance of this daemon is already running

     Program PWSCF v.7.1 starts on 10May2023 at 10:52:55 

     This program is part of the open-source Quantum ESPRESSO suite
     for quantum simulation of materials; please cite
         "P. Giannozzi et al., J. Phys.:Condens. Matter 21 395502 (2009);
         "P. Giannozzi et al., J. Phys.:Condens. Matter 29 465901 (2017);
         "P. Giannozzi et al., J. Chem. Phys. 152 154105 (2020);
          URL http://www.quantum-espresso.org", 
     in publications or presentations arising from this work. More details at
     http://www.quantum-espresso.org/quote

     Parallel version (MPI & OpenMP), running on       4 processor cores
     Number of MPI processes:                 4
     Threads/MPI process:                     1

     MPI processes distributed on     1 nodes
     153143 MiB available memory on the printing compute node when the environment starts
 
     Reading input from pw-si-83.in
Warning: card &CELL ignored
Warning: card / ignored

     Current dimensions of program PWSCF are:
     Max number of different atomic species (ntypx) = 10
     Max number of k-points (npk) =  40000
     Max angular momentum in pseudopotentials (lmaxx) =  4

     IMPORTANT: XC functional enforced from input :
     Exchange-correlation= PBE
                           (   1   4   3   4   0   0   0)
     Any further DFT definition will be discarded
     Please, verify this is what you really want


     gamma-point specific algorithms are used
 
     K-points division:     npool     =       2
     R & G space division:  proc/nbgrp/npool/nimage =       2
     Subspace diagonalization in iterative solution of the eigenvalue problem:
     a serial algorithm will be used

     Message from routine divide_et_impera:
     suboptimal parallelization: some nodes have no k-points
 
     Parallelization info
     --------------------
     sticks:   dense  smooth     PW     G-vecs:    dense   smooth      PW
     Min        1915    1915    502                89270    89270   12102
     Max        1918    1918    503                89271    89271   12105
     Sum        3833    3833   1005               178541   178541   24207
 
     Using Slab Decomposition
 


     bravais-lattice index     =            0
     lattice parameter (alat)  =      20.0353  a.u.
     unit-cell volume          =    8042.4596 (a.u.)^3
     number of atoms/cell      =           64
     number of atomic types    =            1
     number of electrons       =       256.00
     number of Kohn-Sham states=          154
     kinetic-energy cutoff     =      30.0000  Ry
     charge density cutoff     =     120.0000  Ry
     scf convergence threshold =      1.0E-06
     mixing beta               =       0.5000
     number of iterations used =            8  plain     mixing
     Exchange-correlation= PBE
                           (   1   4   3   4   0   0   0)

     GPU acceleration is ACTIVE.
     GPU-aware MPI enabled

     Message from routine print_cuda_info:
     High GPU oversubscription detected. Are you sure this is what you want?

     celldm(1)=  20.035321  celldm(2)=   0.000000  celldm(3)=   0.000000
     celldm(4)=   0.000000  celldm(5)=   0.000000  celldm(6)=   0.000000

     crystal axes: (cart. coord. in units of alat)
               a(1) = (   1.000000   0.000000   0.000000 )  
               a(2) = (   0.000000   1.000000   0.000000 )  
               a(3) = (   0.000000   0.000000   1.000000 )  

     reciprocal axes: (cart. coord. in units 2 pi/alat)
               b(1) = (  1.000000  0.000000  0.000000 )  
               b(2) = (  0.000000  1.000000  0.000000 )  
               b(3) = (  0.000000  0.000000  1.000000 )  


     PseudoPot. # 1 for Si read from file:
     /home/ppiaggi/pseudos/Si_ONCV_PBE_sr.upf
     MD5 check sum: 8553c464762ac42b85b1eed164b4d029
     Pseudo is Norm-conserving, Zval =  4.0
     Generated using ONCVPSP code by D. R. Hamann
     Using radial grid of 1510 points,  4 beta functions with: 
                l(1) =   0
                l(2) =   0
                l(3) =   1
                l(4) =   1

     atomic species   valence    mass     pseudopotential
        Si             4.00    28.08500     Si( 1.00)

     No symmetry found



   Cartesian axes

     site n.     atom                  positions (alat units)
         1           Si  tau(   1) = (   0.9687310   0.0009574   0.2020250  )
         2           Si  tau(   2) = (   0.5607020   0.8570970   0.4722850  )
         3           Si  tau(   3) = (   0.7831700   0.0886588   0.3982790  )
         4           Si  tau(   4) = (   0.2346320   0.4050820   0.8035410  )
         5           Si  tau(   5) = (   0.8197310   0.7982740   0.5453510  )
         6           Si  tau(   6) = (   0.4934120   0.3171800   0.6464340  )
         7           Si  tau(   7) = (   0.7351870   0.1949020   0.0000300  )
         8           Si  tau(   8) = (   0.7696290   0.7989000   0.2869010  )
         9           Si  tau(   9) = (   0.9778070   0.9136000   0.4144040  )
        10           Si  tau(  10) = (   0.9660340   0.2267480   0.4926150  )
        11           Si  tau(  11) = (   0.9871810   0.6199560   0.4874010  )
        12           Si  tau(  12) = (   0.3415520   0.7812770   0.3320710  )
        13           Si  tau(  13) = (   0.1703700   0.3915080   0.1018750  )
        14           Si  tau(  14) = (   0.7257300   0.3182090   0.6514990  )
        15           Si  tau(  15) = (   0.7779070   0.3702890   0.4254340  )
        16           Si  tau(  16) = (   0.3324050   0.9455970   0.9714810  )
        17           Si  tau(  17) = (   0.7244540   0.6037710   0.0984447  )
        18           Si  tau(  18) = (   0.5026230   0.7898430   0.7927820  )
        19           Si  tau(  19) = (   0.7406200   0.8615480   0.9361220  )
        20           Si  tau(  20) = (   0.7464470   0.0087156   0.1133670  )
        21           Si  tau(  21) = (   0.1724850   0.1900400   0.8749530  )
        22           Si  tau(  22) = (   0.2790080   0.2723970   0.3980040  )
        23           Si  tau(  23) = (   0.4803310   0.2579580   0.0586297  )
        24           Si  tau(  24) = (   0.1321550   0.3670670   0.5201370  )
        25           Si  tau(  25) = (   0.3077340   0.0681767   0.6502490  )
        26           Si  tau(  26) = (   0.0926947   0.9355490   0.0231160  )
        27           Si  tau(  27) = (   0.0740392   0.4903930   0.2805340  )
        28           Si  tau(  28) = (   0.2836000   0.1491680   0.0985494  )
        29           Si  tau(  29) = (   0.5743000   0.2702500   0.3192410  )
        30           Si  tau(  30) = (   0.6802240   0.5917500   0.4592290  )
        31           Si  tau(  31) = (   0.8460120   0.5049420   0.2469100  )
        32           Si  tau(  32) = (   0.4427620   0.4822860   0.8611470  )
        33           Si  tau(  33) = (   0.1089440   0.9497410   0.7660190  )
        34           Si  tau(  34) = (   0.0634902   0.7362950   0.7260480  )
        35           Si  tau(  35) = (   0.5991770   0.0236087   0.7922000  )
        36           Si  tau(  36) = (   0.6580080   0.0359085   0.5707800  )
        37           Si  tau(  37) = (   0.9868750   0.4718890   0.7037490  )
        38           Si  tau(  38) = (   0.2454210   0.5767160   0.6317270  )
        39           Si  tau(  39) = (   0.0612216   0.7242560   0.2443370  )
        40           Si  tau(  40) = (   0.9800190   0.3005780   0.9085550  )
        41           Si  tau(  41) = (   0.5229370   0.8596170   0.0638461  )
        42           Si  tau(  42) = (   0.5770230   0.9938270   0.2687320  )
        43           Si  tau(  43) = (   0.8814160   0.3113970   0.1250820  )
        44           Si  tau(  44) = (   0.0430423   0.2043950   0.2484830  )
        45           Si  tau(  45) = (   0.0950015   0.5623330   0.9377870  )
        46           Si  tau(  46) = (   0.1768360   0.0459473   0.4598040  )
        47           Si  tau(  47) = (   0.8282320   0.7315200   0.7605980  )
        48           Si  tau(  48) = (   0.7797620   0.5082810   0.7882420  )
        49           Si  tau(  49) = (   0.6576810   0.4283550   0.9679550  )
        50           Si  tau(  50) = (   0.3487750   0.0225085   0.2933670  )
        51           Si  tau(  51) = (   0.3753730   0.5168700   0.0936570  )
        52           Si  tau(  52) = (   0.2628050   0.7351790   0.1332820  )
        53           Si  tau(  53) = (   0.9310760   0.7430870   0.0411988  )
        54           Si  tau(  54) = (   0.4672750   0.1350020   0.4973310  )
        55           Si  tau(  55) = (   0.3036060   0.6886710   0.8649640  )
        56           Si  tau(  56) = (   0.9559830   0.0540960   0.6619530  )
        57           Si  tau(  57) = (   0.4451860   0.5161430   0.5012000  )
        58           Si  tau(  58) = (   0.4033910   0.4493230   0.3092930  )
        59           Si  tau(  59) = (   0.4232320   0.1815420   0.8149370  )
        60           Si  tau(  60) = (   0.3912720   0.8596600   0.6410010  )
        61           Si  tau(  61) = (   0.5439840   0.6881190   0.2510080  )
        62           Si  tau(  62) = (   0.6057740   0.6023300   0.7066660  )
        63           Si  tau(  63) = (   0.7923720   0.1523730   0.7924330  )
        64           Si  tau(  64) = (   0.1933690   0.7772600   0.4886180  )

     number of k points=     1  Fermi-Dirac smearing, width (Ry)=  0.0100
                       cart. coord. in units 2pi/alat
        k(    1) = (   0.0000000   0.0000000   0.0000000), wk =   2.0000000

     Dense  grid:    89271 G-vectors     FFT dimensions: (  72,  72,  72)

     Estimated max dynamical RAM per process >     143.53 MB

     Estimated total dynamical RAM >     552.34 MB

     Initial potential from superposition of free atoms

     starting charge     255.9608, renormalised to     256.0000
     Starting wfcs are  256 randomized atomic wfcs

     total cpu time spent up to now is        4.4 secs

     Self-consistent Calculation

     iteration #  1     ecut=    30.00 Ry     beta= 0.50
     Davidson diagonalization with overlap
     ethr =  1.00E-02,  avg # of iterations =  3.0

     Threshold (ethr) on eigenvalues was too large:
     Diagonalizing with lowered threshold

     Davidson diagonalization with overlap
     ethr =  4.09E-04,  avg # of iterations =  4.0

     total cpu time spent up to now is        4.6 secs

     total energy              =    -501.09051585 Ry
     estimated scf accuracy    <       1.24889774 Ry

     iteration #  2     ecut=    30.00 Ry     beta= 0.50
     Davidson diagonalization with overlap
     ethr =  4.88E-04,  avg # of iterations =  5.0

     total cpu time spent up to now is        4.7 secs

     total energy              =    -500.52045966 Ry
     estimated scf accuracy    <       7.14673886 Ry

     iteration #  3     ecut=    30.00 Ry     beta= 0.50
     Davidson diagonalization with overlap
     ethr =  4.88E-04,  avg # of iterations =  5.0

     total cpu time spent up to now is        4.8 secs

     total energy              =    -501.18636441 Ry
     estimated scf accuracy    <       1.87206069 Ry

     iteration #  4     ecut=    30.00 Ry     beta= 0.50
     Davidson diagonalization with overlap
     ethr =  4.88E-04,  avg # of iterations =  2.0

     total cpu time spent up to now is        4.9 secs

     total energy              =    -501.32897507 Ry
     estimated scf accuracy    <       0.54759329 Ry

     iteration #  5     ecut=    30.00 Ry     beta= 0.50
     Davidson diagonalization with overlap
     ethr =  2.14E-04,  avg # of iterations =  2.0

     total cpu time spent up to now is        5.0 secs

     total energy              =    -501.35952142 Ry
     estimated scf accuracy    <       0.19649822 Ry

     iteration #  6     ecut=    30.00 Ry     beta= 0.50
     Davidson diagonalization with overlap
     ethr =  7.68E-05,  avg # of iterations =  2.0

     total cpu time spent up to now is        5.1 secs

     total energy              =    -501.38010700 Ry
     estimated scf accuracy    <       0.19161521 Ry

     iteration #  7     ecut=    30.00 Ry     beta= 0.50
     Davidson diagonalization with overlap
     ethr =  7.48E-05,  avg # of iterations =  1.0

     total cpu time spent up to now is        5.2 secs

     total energy              =    -501.39308506 Ry
     estimated scf accuracy    <       0.01063759 Ry

     iteration #  8     ecut=    30.00 Ry     beta= 0.50
     Davidson diagonalization with overlap
     c_bands:  1 eigenvalues not converged
     ethr =  4.16E-06,  avg # of iterations = 20.0

     total cpu time spent up to now is        5.3 secs

     total energy              =    -501.39425301 Ry
     estimated scf accuracy    <       0.02236971 Ry

     iteration #  9     ecut=    30.00 Ry     beta= 0.50
     Davidson diagonalization with overlap
     ethr =  4.16E-06,  avg # of iterations =  3.0

     total cpu time spent up to now is        5.4 secs

     total energy              =    -501.39603535 Ry
     estimated scf accuracy    <       0.00362283 Ry

     iteration # 10     ecut=    30.00 Ry     beta= 0.50
     Davidson diagonalization with overlap
     ethr =  1.42E-06,  avg # of iterations =  2.0

     total cpu time spent up to now is        5.5 secs

     total energy              =    -501.39629705 Ry
     estimated scf accuracy    <       0.00072310 Ry

     iteration # 11     ecut=    30.00 Ry     beta= 0.50
     Davidson diagonalization with overlap
     ethr =  2.82E-07,  avg # of iterations =  3.0

     total cpu time spent up to now is        5.6 secs

     total energy              =    -501.39631952 Ry
     estimated scf accuracy    <       0.00044290 Ry

     iteration # 12     ecut=    30.00 Ry     beta= 0.50
     Davidson diagonalization with overlap
     ethr =  1.73E-07,  avg # of iterations =  3.0

     total cpu time spent up to now is        5.7 secs

     total energy              =    -501.39636446 Ry
     estimated scf accuracy    <       0.00058446 Ry

     iteration # 13     ecut=    30.00 Ry     beta= 0.50
     Davidson diagonalization with overlap
     ethr =  1.73E-07,  avg # of iterations =  2.0

     total cpu time spent up to now is        5.8 secs

     total energy              =    -501.39640072 Ry
     estimated scf accuracy    <       0.00004538 Ry

     iteration # 14     ecut=    30.00 Ry     beta= 0.50
     Davidson diagonalization with overlap
     ethr =  1.77E-08,  avg # of iterations =  4.0

     total cpu time spent up to now is        5.9 secs

     total energy              =    -501.39640578 Ry
     estimated scf accuracy    <       0.00001828 Ry

     iteration # 15     ecut=    30.00 Ry     beta= 0.50
     Davidson diagonalization with overlap
     ethr =  7.14E-09,  avg # of iterations =  3.0

     total cpu time spent up to now is        6.0 secs

     total energy              =    -501.39640593 Ry
     estimated scf accuracy    <       0.00002481 Ry

     iteration # 16     ecut=    30.00 Ry     beta= 0.50
     Davidson diagonalization with overlap
     ethr =  7.14E-09,  avg # of iterations =  2.0

     total cpu time spent up to now is        6.0 secs

     total energy              =    -501.39640803 Ry
     estimated scf accuracy    <       0.00001007 Ry

     iteration # 17     ecut=    30.00 Ry     beta= 0.50
     Davidson diagonalization with overlap
     ethr =  3.93E-09,  avg # of iterations =  2.0

     total cpu time spent up to now is        6.1 secs

     total energy              =    -501.39640837 Ry
     estimated scf accuracy    <       0.00000541 Ry

     iteration # 18     ecut=    30.00 Ry     beta= 0.50
     Davidson diagonalization with overlap
     ethr =  2.11E-09,  avg # of iterations =  1.0

     total cpu time spent up to now is        6.2 secs

     End of self-consistent calculation

          k = 0.0000 0.0000 0.0000 ( 11168 PWs)   bands (ev):

    -5.2350  -4.2697  -4.1650  -4.0709  -3.9814  -3.9276  -3.7615  -3.1963
    -3.1358  -3.0458  -3.0160  -2.9382  -2.8611  -2.8287  -2.7128  -2.6564
    -2.5120  -2.4480  -2.3846  -1.9300  -1.7383  -1.7114  -1.6954  -1.6677
    -1.4431  -1.4257  -0.8762  -0.8040  -0.7845  -0.5155  -0.3843  -0.3159
    -0.0997   0.0631   0.1280   0.2109   0.2329   0.2963   0.3456   0.4860
     0.5967   0.6370   0.7147   0.8070   0.8553   0.9810   0.9953   1.0614
     1.2219   1.2678   1.3225   1.3853   1.4450   1.5708   1.7181   1.7896
     1.8564   2.0167   2.0643   2.1688   2.2637   2.3489   2.4408   2.5059
     2.6136   2.7121   2.7956   2.8343   2.9044   3.0333   3.1485   3.1910
     3.2347   3.2693   3.3935   3.4197   3.4561   3.5637   3.6745   3.7245
     3.8964   4.2691   4.3963   4.4844   4.5596   4.6199   4.8017   4.9196
     4.9556   5.0765   5.1199   5.1720   5.2300   5.2604   5.3801   5.4877
     5.4997   5.5759   5.5895   5.6435   5.6915   5.7926   5.8463   5.8891
     5.9251   5.9956   6.0154   6.0934   6.1692   6.2324   6.3033   6.3325
     6.3436   6.4061   6.4424   6.5173   6.5430   6.5678   6.6836   6.7551
     6.8196   6.8435   6.8890   6.9428   7.0432   7.1443   7.2048   7.2254
     7.2623   7.3280   7.4065   7.4290   7.4616   7.5594   7.6119   7.6474
     7.7074   7.8686   7.8911   7.9689   8.0380   8.0800   8.1258   8.2030
     8.3066   8.3458   8.3631   8.4250   8.5697   8.6339   8.6836   8.7004
     8.7849   8.8542

     the Fermi energy is     7.2467 ev

!    total energy              =    -501.39640803 Ry
     estimated scf accuracy    <       0.00000097 Ry
     smearing contrib. (-TS)   =      -0.15474681 Ry
     internal energy E=F+TS    =    -501.24166121 Ry

     The total energy is F=E-TS. E is the sum of the following terms:
     one-electron contribution =     197.66757368 Ry
     hartree contribution      =      20.76257434 Ry
     xc contribution           =    -150.81425717 Ry
     ewald contribution        =    -568.85755207 Ry

     convergence has been achieved in  18 iterations

     Forces acting on atoms (cartesian axes, Ry/au):

     atom    1 type  1   force =    -0.03702848    0.00120688    0.00071320
     atom    2 type  1   force =     0.00487063   -0.00907026   -0.01457514
     atom    3 type  1   force =     0.02979949    0.00717264   -0.02492693
     atom    4 type  1   force =     0.00765873    0.00248006   -0.00871818
     atom    5 type  1   force =    -0.01201804   -0.00482861   -0.03478930
     atom    6 type  1   force =     0.02289656    0.01355833   -0.02065505
     atom    7 type  1   force =    -0.03058734    0.05498677    0.00828564
     atom    8 type  1   force =    -0.02204465    0.01295065    0.00428437
     atom    9 type  1   force =     0.00293599    0.00184668    0.00367070
     atom   10 type  1   force =    -0.03191869   -0.03832155   -0.02004126
     atom   11 type  1   force =     0.01008412    0.01189592    0.01109035
     atom   12 type  1   force =     0.04667615    0.03162573   -0.02417431
     atom   13 type  1   force =     0.01183345   -0.00104028   -0.01796763
     atom   14 type  1   force =    -0.01983960    0.01622522   -0.00884903
     atom   15 type  1   force =    -0.02150787   -0.01161755    0.01374976
     atom   16 type  1   force =    -0.01507182   -0.01012897    0.00162648
     atom   17 type  1   force =    -0.01363823    0.03322894   -0.00022319
     atom   18 type  1   force =     0.05551836   -0.02446166    0.08935465
     atom   19 type  1   force =    -0.03374852   -0.00350819   -0.00692607
     atom   20 type  1   force =     0.02447779   -0.04320257    0.04148531
     atom   21 type  1   force =     0.01404588    0.00156406    0.01507533
     atom   22 type  1   force =     0.02649014   -0.02114688   -0.04395989
     atom   23 type  1   force =     0.03087505    0.01783751   -0.01142773
     atom   24 type  1   force =    -0.01851039    0.06370472    0.03334590
     atom   25 type  1   force =    -0.02142695   -0.03634682    0.00401452
     atom   26 type  1   force =     0.01336170   -0.02099709   -0.02201020
     atom   27 type  1   force =    -0.02082827    0.02853724    0.02658424
     atom   28 type  1   force =    -0.02601672   -0.00002636   -0.00139727
     atom   29 type  1   force =     0.00938718   -0.01137670    0.00273472
     atom   30 type  1   force =    -0.02984878    0.02783519    0.01742428
     atom   31 type  1   force =     0.03599713   -0.03386769    0.02904781
     atom   32 type  1   force =     0.02154938    0.01261992    0.03013052
     atom   33 type  1   force =     0.05872408    0.01840323    0.04263947
     atom   34 type  1   force =     0.00303523   -0.04377961   -0.01068993
     atom   35 type  1   force =    -0.00214477   -0.02177699   -0.00428567
     atom   36 type  1   force =    -0.02173275   -0.00552645    0.02856020
     atom   37 type  1   force =     0.01535992    0.00081425    0.00998279
     atom   38 type  1   force =     0.00358364    0.00589472   -0.01284083
     atom   39 type  1   force =    -0.01442942   -0.01852008   -0.00610962
     atom   40 type  1   force =    -0.01840837    0.01890456    0.01198068
     atom   41 type  1   force =     0.01776002   -0.00186919    0.01052802
     atom   42 type  1   force =     0.02072922   -0.01855541   -0.00162065
     atom   43 type  1   force =     0.02282677    0.01231635   -0.01233121
     atom   44 type  1   force =     0.02197899    0.00947790    0.02300093
     atom   45 type  1   force =     0.00417737    0.01025058   -0.00452063
     atom   46 type  1   force =    -0.00326250   -0.00609672   -0.01164570
     atom   47 type  1   force =     0.02146118    0.00465205    0.01063672
     atom   48 type  1   force =     0.02246058   -0.03738752    0.01408272
     atom   49 type  1   force =    -0.02323115    0.00165435   -0.01898531
     atom   50 type  1   force =    -0.01594013   -0.00893859    0.02868973
     atom   51 type  1   force =    -0.02063954   -0.00168748   -0.00639674
     atom   52 type  1   force =    -0.00521479    0.00250870   -0.04705317
     atom   53 type  1   force =     0.01582682   -0.03034654    0.00464300
     atom   54 type  1   force =    -0.00218533    0.03123354   -0.03158662
     atom   55 type  1   force =    -0.01577051   -0.02239985    0.00246033
     atom   56 type  1   force =    -0.05279955    0.02825933   -0.04265439
     atom   57 type  1   force =     0.01802927    0.01010753    0.10041555
     atom   58 type  1   force =    -0.00474671   -0.06485389   -0.05027460
     atom   59 type  1   force =     0.00751548    0.00278937    0.01658603
     atom   60 type  1   force =    -0.07062456    0.02698499   -0.10445643
     atom   61 type  1   force =     0.03284588    0.00125529   -0.00157163
     atom   62 type  1   force =    -0.04349390    0.01612713   -0.04126484
     atom   63 type  1   force =     0.03097229    0.01234217   -0.02967488
     atom   64 type  1   force =    -0.01708615   -0.00157299    0.06178007

     Total force =     0.371829     Total SCF correction =     0.002026


     Computing stress (Cartesian axis) and pressure

          total   stress  (Ry/bohr**3)                   (kbar)     P=      -33.16
  -0.00017133   0.00000478   0.00003633          -25.20        0.70        5.34
   0.00000478  -0.00025149   0.00002283            0.70      -37.00        3.36
   0.00003633   0.00002283  -0.00025348            5.34        3.36      -37.29

 
     init_run     :      0.90s CPU      4.36s WALL (       1 calls)
     electrons    :      1.58s CPU      1.78s WALL (       1 calls)
     forces       :      0.03s CPU      0.03s WALL (       1 calls)
     stress       :      0.14s CPU      0.14s WALL (       1 calls)

     Called by init_run:
     wfcinit      :      0.40s CPU      3.71s WALL (       1 calls)
                                        3.71s GPU  (       1 calls)
     potinit      :      0.04s CPU      0.12s WALL (       1 calls)
     hinit0       :      0.45s CPU      0.47s WALL (       1 calls)

     Called by electrons:
     c_bands      :      1.04s CPU      1.16s WALL (      19 calls)
     sum_band     :      0.28s CPU      0.33s WALL (      19 calls)
     v_of_rho     :      0.12s CPU      0.20s WALL (      19 calls)
     mix_rho      :      0.13s CPU      0.14s WALL (      19 calls)

     Called by c_bands:
     init_us_2    :      0.05s CPU      0.05s WALL (      39 calls)
     init_us_2:gp :      0.05s CPU      0.05s WALL (      39 calls)
     regterg      :      0.90s CPU      1.01s WALL (      19 calls)

     Called by *egterg:
     rdiaghg      :      0.37s CPU      1.02s WALL (      87 calls)
                                        1.00s GPU  (      87 calls)
     h_psi        :      0.77s CPU      3.50s WALL (      89 calls)
                                        3.50s GPU  (      89 calls)
     g_psi        :      0.00s CPU      0.00s WALL (      69 calls)
                                        0.00s GPU  (      69 calls)

     Called by h_psi:
     h_psi:calbec :      0.38s CPU      3.03s WALL (      89 calls)
                                        3.03s GPU  (      89 calls)
     vloc_psi     :      0.34s CPU      0.42s WALL (      89 calls)
                                        0.42s GPU  (      89 calls)
     add_vuspsi   :      0.03s CPU      0.05s WALL (      89 calls)
                                        0.05s GPU  (      89 calls)

     General routines
     calbec       :      0.38s CPU      3.03s WALL (      94 calls)
     fft          :      0.54s CPU      0.65s WALL (     159 calls)
                                        0.11s GPU  (     101 calls)
     ffts         :      0.03s CPU      0.03s WALL (      19 calls)
     fftw         :      0.41s CPU      0.56s WALL (    2009 calls)
                                        0.50s GPU  (    2009 calls)
 
     Parallel routines
 
     PWSCF        :      2.68s CPU      6.38s WALL

 
   This run was terminated on:  10:53: 1  10May2023            

=------------------------------------------------------------------------------=
   JOB DONE.
=------------------------------------------------------------------------------=
