An instance of this daemon is already running

     Program PWSCF v.7.1 starts on 10May2023 at 10:51:16 

     This program is part of the open-source Quantum ESPRESSO suite
     for quantum simulation of materials; please cite
         "P. Giannozzi et al., J. Phys.:Condens. Matter 21 395502 (2009);
         "P. Giannozzi et al., J. Phys.:Condens. Matter 29 465901 (2017);
         "P. Giannozzi et al., J. Chem. Phys. 152 154105 (2020);
          URL http://www.quantum-espresso.org", 
     in publications or presentations arising from this work. More details at
     http://www.quantum-espresso.org/quote

     Parallel version (MPI & OpenMP), running on       4 processor cores
     Number of MPI processes:                 4
     Threads/MPI process:                     1

     MPI processes distributed on     1 nodes
     153144 MiB available memory on the printing compute node when the environment starts
 
     Reading input from pw-si-72.in
Warning: card &CELL ignored
Warning: card / ignored

     Current dimensions of program PWSCF are:
     Max number of different atomic species (ntypx) = 10
     Max number of k-points (npk) =  40000
     Max angular momentum in pseudopotentials (lmaxx) =  4

     IMPORTANT: XC functional enforced from input :
     Exchange-correlation= PBE
                           (   1   4   3   4   0   0   0)
     Any further DFT definition will be discarded
     Please, verify this is what you really want


     gamma-point specific algorithms are used
 
     K-points division:     npool     =       2
     R & G space division:  proc/nbgrp/npool/nimage =       2
     Subspace diagonalization in iterative solution of the eigenvalue problem:
     a serial algorithm will be used

     Message from routine divide_et_impera:
     suboptimal parallelization: some nodes have no k-points
 
     Parallelization info
     --------------------
     sticks:   dense  smooth     PW     G-vecs:    dense   smooth      PW
     Min        1954    1954    520                92054    92054   12584
     Max        1955    1955    521                92061    92061   12589
     Sum        3909    3909   1041               184115   184115   25173
 
     Using Slab Decomposition
 


     bravais-lattice index     =            0
     lattice parameter (alat)  =      20.2456  a.u.
     unit-cell volume          =    8298.3109 (a.u.)^3
     number of atoms/cell      =           64
     number of atomic types    =            1
     number of electrons       =       256.00
     number of Kohn-Sham states=          154
     kinetic-energy cutoff     =      30.0000  Ry
     charge density cutoff     =     120.0000  Ry
     scf convergence threshold =      1.0E-06
     mixing beta               =       0.5000
     number of iterations used =            8  plain     mixing
     Exchange-correlation= PBE
                           (   1   4   3   4   0   0   0)

     GPU acceleration is ACTIVE.
     GPU-aware MPI enabled

     Message from routine print_cuda_info:
     High GPU oversubscription detected. Are you sure this is what you want?

     celldm(1)=  20.245565  celldm(2)=   0.000000  celldm(3)=   0.000000
     celldm(4)=   0.000000  celldm(5)=   0.000000  celldm(6)=   0.000000

     crystal axes: (cart. coord. in units of alat)
               a(1) = (   1.000000   0.000000   0.000000 )  
               a(2) = (   0.000000   1.000000   0.000000 )  
               a(3) = (   0.000000   0.000000   1.000000 )  

     reciprocal axes: (cart. coord. in units 2 pi/alat)
               b(1) = (  1.000000  0.000000  0.000000 )  
               b(2) = (  0.000000  1.000000  0.000000 )  
               b(3) = (  0.000000  0.000000  1.000000 )  


     PseudoPot. # 1 for Si read from file:
     /home/ppiaggi/pseudos/Si_ONCV_PBE_sr.upf
     MD5 check sum: 8553c464762ac42b85b1eed164b4d029
     Pseudo is Norm-conserving, Zval =  4.0
     Generated using ONCVPSP code by D. R. Hamann
     Using radial grid of 1510 points,  4 beta functions with: 
                l(1) =   0
                l(2) =   0
                l(3) =   1
                l(4) =   1

     atomic species   valence    mass     pseudopotential
        Si             4.00    28.08500     Si( 1.00)

     No symmetry found



   Cartesian axes

     site n.     atom                  positions (alat units)
         1           Si  tau(   1) = (   0.1453470   0.7658180   0.3721800  )
         2           Si  tau(   2) = (   0.1614800   0.4499350   0.8282100  )
         3           Si  tau(   3) = (   0.2034100   0.5416250   0.1939340  )
         4           Si  tau(   4) = (   0.4828380   0.1379340   0.2487260  )
         5           Si  tau(   5) = (   0.5005310   0.9255400   0.0069305  )
         6           Si  tau(   6) = (   0.9653750   0.9226470   0.7444520  )
         7           Si  tau(   7) = (   0.2059230   0.3958680   0.5545420  )
         8           Si  tau(   8) = (   0.4166250   0.2367840   0.6734440  )
         9           Si  tau(   9) = (   0.3950200   0.2690010   0.4404910  )
        10           Si  tau(  10) = (   0.9956670   0.5207970   0.7179150  )
        11           Si  tau(  11) = (   0.6641480   0.9255150   0.4890450  )
        12           Si  tau(  12) = (   0.0862610   0.1697730   0.5595300  )
        13           Si  tau(  13) = (   0.8516030   0.5809710   0.2468530  )
        14           Si  tau(  14) = (   0.5946840   0.6064100   0.5286780  )
        15           Si  tau(  15) = (   0.6483240   0.0368649   0.8725290  )
        16           Si  tau(  16) = (   0.3437330   0.9272520   0.5245050  )
        17           Si  tau(  17) = (   0.9422170   0.6271770   0.4817870  )
        18           Si  tau(  18) = (   0.7762350   0.8456030   0.8716410  )
        19           Si  tau(  19) = (   0.4469150   0.7397220   0.1408580  )
        20           Si  tau(  20) = (   0.6490450   0.1654270   0.5212850  )
        21           Si  tau(  21) = (   0.3771800   0.8585610   0.8223110  )
        22           Si  tau(  22) = (   0.3467250   0.6392980   0.8411250  )
        23           Si  tau(  23) = (   0.3386320   0.0944043   0.0027847  )
        24           Si  tau(  24) = (   0.6557910   0.2883410   0.8974810  )
        25           Si  tau(  25) = (   0.5062860   0.9059460   0.3301030  )
        26           Si  tau(  26) = (   0.1301240   0.7109650   0.9097170  )
        27           Si  tau(  27) = (   0.6124190   0.7127730   0.7664730  )
        28           Si  tau(  28) = (   0.5607260   0.4785730   0.2074360  )
        29           Si  tau(  29) = (   0.0822848   0.9807900   0.1064290  )
        30           Si  tau(  30) = (   0.6833280   0.0050645   0.1457260  )
        31           Si  tau(  31) = (   0.7748780   0.2705470   0.0882833  )
        32           Si  tau(  32) = (   0.8953350   0.0625981   0.5611020  )
        33           Si  tau(  33) = (   0.7999030   0.8560340   0.2632900  )
        34           Si  tau(  34) = (   0.9293270   0.7582890   0.0585202  )
        35           Si  tau(  35) = (   0.2065150   0.7531330   0.1503400  )
        36           Si  tau(  36) = (   0.3959990   0.2976790   0.9029650  )
        37           Si  tau(  37) = (   0.6062300   0.3811900   0.6394440  )
        38           Si  tau(  38) = (   0.2456070   0.1100100   0.4175250  )
        39           Si  tau(  39) = (   0.4772780   0.0037709   0.6759550  )
        40           Si  tau(  40) = (   0.1178730   0.3344870   0.0225179  )
        41           Si  tau(  41) = (   0.3821710   0.5761410   0.6293240  )
        42           Si  tau(  42) = (   0.0763343   0.4798610   0.3840340  )
        43           Si  tau(  43) = (   0.1668260   0.9626560   0.8799240  )
        44           Si  tau(  44) = (   0.3697760   0.5369500   0.3601650  )
        45           Si  tau(  45) = (   0.8061220   0.2189850   0.7155350  )
        46           Si  tau(  46) = (   0.0282969   0.2807400   0.2638860  )
        47           Si  tau(  47) = (   0.2131660   0.1404900   0.2110350  )
        48           Si  tau(  48) = (   0.3542600   0.3471570   0.1226350  )
        49           Si  tau(  49) = (   0.8999930   0.3610860   0.5733700  )
        50           Si  tau(  50) = (   0.0482377   0.7500420   0.6760060  )
        51           Si  tau(  51) = (   0.6654120   0.2847950   0.2852440  )
        52           Si  tau(  52) = (   0.6755550   0.5161580   0.8387560  )
        53           Si  tau(  53) = (   0.1734750   0.1939090   0.7679680  )
        54           Si  tau(  54) = (   0.6035900   0.6894410   0.3093910  )
        55           Si  tau(  55) = (   0.7329070   0.4556960   0.4554720  )
        56           Si  tau(  56) = (   0.2461920   0.7378850   0.5887090  )
        57           Si  tau(  57) = (   0.9079270   0.4308810   0.0805728  )
        58           Si  tau(  58) = (   0.9629460   0.1927840   0.8646000  )
        59           Si  tau(  59) = (   0.8859010   0.5670200   0.9043200  )
        60           Si  tau(  60) = (   0.8574000   0.1514690   0.3407970  )
        61           Si  tau(  61) = (   0.4954910   0.5364840   0.9843440  )
        62           Si  tau(  62) = (   0.8992070   0.0553498   0.0219769  )
        63           Si  tau(  63) = (   0.0020446   0.9317130   0.3374850  )
        64           Si  tau(  64) = (   0.7611760   0.7681050   0.5952810  )

     number of k points=     1  Fermi-Dirac smearing, width (Ry)=  0.0100
                       cart. coord. in units 2pi/alat
        k(    1) = (   0.0000000   0.0000000   0.0000000), wk =   2.0000000

     Dense  grid:    92058 G-vectors     FFT dimensions: (  72,  72,  72)

     Estimated max dynamical RAM per process >     147.58 MB

     Estimated total dynamical RAM >     567.83 MB

     Initial potential from superposition of free atoms

     starting charge     255.9608, renormalised to     256.0000
     Starting wfcs are  256 randomized atomic wfcs

     total cpu time spent up to now is        4.4 secs

     Self-consistent Calculation

     iteration #  1     ecut=    30.00 Ry     beta= 0.50
     Davidson diagonalization with overlap
     ethr =  1.00E-02,  avg # of iterations =  3.0

     Threshold (ethr) on eigenvalues was too large:
     Diagonalizing with lowered threshold

     Davidson diagonalization with overlap
     ethr =  3.64E-04,  avg # of iterations =  4.0

     total cpu time spent up to now is        4.6 secs

     total energy              =    -501.32989753 Ry
     estimated scf accuracy    <       1.10420717 Ry

     iteration #  2     ecut=    30.00 Ry     beta= 0.50
     Davidson diagonalization with overlap
     ethr =  4.31E-04,  avg # of iterations =  4.0

     total cpu time spent up to now is        4.7 secs

     total energy              =    -500.97771183 Ry
     estimated scf accuracy    <       3.45442537 Ry

     iteration #  3     ecut=    30.00 Ry     beta= 0.50
     Davidson diagonalization with overlap
     ethr =  4.31E-04,  avg # of iterations =  4.0

     total cpu time spent up to now is        4.8 secs

     total energy              =    -501.32952614 Ry
     estimated scf accuracy    <       2.04668779 Ry

     iteration #  4     ecut=    30.00 Ry     beta= 0.50
     Davidson diagonalization with overlap
     ethr =  4.31E-04,  avg # of iterations =  2.0

     total cpu time spent up to now is        4.9 secs

     total energy              =    -501.46009130 Ry
     estimated scf accuracy    <       0.44525995 Ry

     iteration #  5     ecut=    30.00 Ry     beta= 0.50
     Davidson diagonalization with overlap
     ethr =  1.74E-04,  avg # of iterations =  2.0

     total cpu time spent up to now is        5.0 secs

     total energy              =    -501.49434187 Ry
     estimated scf accuracy    <       0.17496337 Ry

     iteration #  6     ecut=    30.00 Ry     beta= 0.50
     Davidson diagonalization with overlap
     ethr =  6.83E-05,  avg # of iterations =  2.0

     total cpu time spent up to now is        5.0 secs

     total energy              =    -501.51257907 Ry
     estimated scf accuracy    <       0.15350534 Ry

     iteration #  7     ecut=    30.00 Ry     beta= 0.50
     Davidson diagonalization with overlap
     ethr =  6.00E-05,  avg # of iterations =  1.0

     total cpu time spent up to now is        5.1 secs

     total energy              =    -501.52306646 Ry
     estimated scf accuracy    <       0.01096924 Ry

     iteration #  8     ecut=    30.00 Ry     beta= 0.50
     Davidson diagonalization with overlap
     ethr =  4.28E-06,  avg # of iterations = 18.0

     total cpu time spent up to now is        5.3 secs

     total energy              =    -501.52439972 Ry
     estimated scf accuracy    <       0.01604731 Ry

     iteration #  9     ecut=    30.00 Ry     beta= 0.50
     Davidson diagonalization with overlap
     ethr =  4.28E-06,  avg # of iterations =  2.0

     total cpu time spent up to now is        5.4 secs

     total energy              =    -501.52580649 Ry
     estimated scf accuracy    <       0.00276712 Ry

     iteration # 10     ecut=    30.00 Ry     beta= 0.50
     Davidson diagonalization with overlap
     ethr =  1.08E-06,  avg # of iterations =  2.0

     total cpu time spent up to now is        5.5 secs

     total energy              =    -501.52604466 Ry
     estimated scf accuracy    <       0.00048991 Ry

     iteration # 11     ecut=    30.00 Ry     beta= 0.50
     Davidson diagonalization with overlap
     ethr =  1.91E-07,  avg # of iterations =  4.0

     total cpu time spent up to now is        5.6 secs

     total energy              =    -501.52606961 Ry
     estimated scf accuracy    <       0.00060890 Ry

     iteration # 12     ecut=    30.00 Ry     beta= 0.50
     Davidson diagonalization with overlap
     ethr =  1.91E-07,  avg # of iterations =  2.0

     total cpu time spent up to now is        5.7 secs

     total energy              =    -501.52612346 Ry
     estimated scf accuracy    <       0.00012730 Ry

     iteration # 13     ecut=    30.00 Ry     beta= 0.50
     Davidson diagonalization with overlap
     ethr =  4.97E-08,  avg # of iterations =  2.0

     total cpu time spent up to now is        5.8 secs

     total energy              =    -501.52613373 Ry
     estimated scf accuracy    <       0.00006383 Ry

     iteration # 14     ecut=    30.00 Ry     beta= 0.50
     Davidson diagonalization with overlap
     ethr =  2.49E-08,  avg # of iterations =  2.0

     total cpu time spent up to now is        5.9 secs

     total energy              =    -501.52613915 Ry
     estimated scf accuracy    <       0.00002295 Ry

     iteration # 15     ecut=    30.00 Ry     beta= 0.50
     Davidson diagonalization with overlap
     ethr =  8.96E-09,  avg # of iterations =  2.0

     total cpu time spent up to now is        5.9 secs

     total energy              =    -501.52614036 Ry
     estimated scf accuracy    <       0.00000572 Ry

     iteration # 16     ecut=    30.00 Ry     beta= 0.50
     Davidson diagonalization with overlap
     ethr =  2.23E-09,  avg # of iterations =  3.0

     total cpu time spent up to now is        6.0 secs

     total energy              =    -501.52614122 Ry
     estimated scf accuracy    <       0.00000584 Ry

     iteration # 17     ecut=    30.00 Ry     beta= 0.50
     Davidson diagonalization with overlap
     ethr =  2.23E-09,  avg # of iterations =  2.0

     total cpu time spent up to now is        6.1 secs

     total energy              =    -501.52614144 Ry
     estimated scf accuracy    <       0.00000523 Ry

     iteration # 18     ecut=    30.00 Ry     beta= 0.50
     Davidson diagonalization with overlap
     ethr =  2.04E-09,  avg # of iterations =  1.0

     total cpu time spent up to now is        6.2 secs

     End of self-consistent calculation

          k = 0.0000 0.0000 0.0000 ( 11492 PWs)   bands (ev):

    -5.4048  -4.4527  -4.4144  -4.3005  -4.1511  -4.0996  -4.0630  -3.4589
    -3.3809  -3.3598  -3.2321  -3.1883  -3.1076  -3.0514  -2.9962  -2.9418
    -2.8498  -2.6870  -2.6073  -2.1950  -2.1868  -2.1171  -1.9502  -1.8530
    -1.7758  -1.5983  -1.3966  -1.1339  -0.9500  -0.8526  -0.6989  -0.6006
    -0.4510  -0.2991  -0.2588  -0.1495  -0.0559  -0.0267  -0.0002   0.1308
     0.2346   0.2854   0.3757   0.4178   0.5529   0.5849   0.7094   0.7413
     0.9057   1.0266   1.0572   1.0805   1.2003   1.2295   1.3715   1.5441
     1.5951   1.6981   1.7214   1.8682   2.0218   2.0708   2.1574   2.2723
     2.3703   2.4757   2.5287   2.6815   2.7490   2.7896   2.8533   2.9667
     2.9752   3.0371   3.0862   3.1547   3.2425   3.2604   3.3757   3.5359
     3.6996   3.7522   3.9752   4.0568   4.1636   4.2719   4.3548   4.4830
     4.5184   4.5792   4.6819   4.7475   4.8355   4.8606   4.9781   5.0516
     5.1335   5.1860   5.2398   5.2960   5.3124   5.4074   5.4565   5.5388
     5.5644   5.6238   5.6840   5.7102   5.7280   5.8145   5.8783   5.9478
     6.0193   6.0664   6.0815   6.1937   6.2597   6.2950   6.3522   6.3940
     6.4372   6.4847   6.5167   6.5776   6.6371   6.7237   6.7354   6.7938
     6.8830   6.9014   7.0737   7.1319   7.2048   7.2981   7.3355   7.4002
     7.4474   7.4814   7.5410   7.6270   7.6936   7.7388   7.7757   7.8514
     7.9125   7.9836   8.0625   8.0984   8.1635   8.2621   8.3394   8.3931
     8.4769   8.5743

     the Fermi energy is     6.8675 ev

!    total energy              =    -501.52614135 Ry
     estimated scf accuracy    <       0.00000055 Ry
     smearing contrib. (-TS)   =      -0.13778983 Ry
     internal energy E=F+TS    =    -501.38835152 Ry

     The total energy is F=E-TS. E is the sum of the following terms:
     one-electron contribution =     186.33530084 Ry
     hartree contribution      =      23.08261484 Ry
     xc contribution           =    -150.33923851 Ry
     ewald contribution        =    -560.46702869 Ry

     convergence has been achieved in  18 iterations

     Forces acting on atoms (cartesian axes, Ry/au):

     atom    1 type  1   force =    -0.00440839   -0.01680787    0.02201221
     atom    2 type  1   force =     0.06710071   -0.00978467   -0.00136106
     atom    3 type  1   force =     0.01306758   -0.04819184    0.03247991
     atom    4 type  1   force =     0.01976324   -0.01614572   -0.00319778
     atom    5 type  1   force =    -0.01324948    0.01277950    0.00632602
     atom    6 type  1   force =    -0.06071849    0.05689235    0.02521464
     atom    7 type  1   force =     0.03149227    0.00125976    0.00009238
     atom    8 type  1   force =     0.01810453   -0.02047101    0.00032369
     atom    9 type  1   force =    -0.00523366    0.03645968    0.00284873
     atom   10 type  1   force =    -0.02488668    0.03084387   -0.02495509
     atom   11 type  1   force =    -0.00713598    0.04616658   -0.02209327
     atom   12 type  1   force =     0.00943825    0.03752561    0.01000307
     atom   13 type  1   force =    -0.00875020    0.01765083    0.03036633
     atom   14 type  1   force =    -0.02454972    0.04633667    0.00181514
     atom   15 type  1   force =    -0.01454198    0.00000154    0.00125061
     atom   16 type  1   force =     0.00352327    0.00982431   -0.07096009
     atom   17 type  1   force =    -0.01582656    0.02553221   -0.01854629
     atom   18 type  1   force =     0.04436948    0.00728406   -0.01039301
     atom   19 type  1   force =    -0.01720389    0.00805984   -0.01039299
     atom   20 type  1   force =     0.00186647   -0.02597252   -0.00093574
     atom   21 type  1   force =     0.00810449    0.00341982    0.01319263
     atom   22 type  1   force =    -0.00762278   -0.02684613    0.00101905
     atom   23 type  1   force =    -0.00555273   -0.00665439    0.02752038
     atom   24 type  1   force =    -0.02642452   -0.02797182    0.00478316
     atom   25 type  1   force =    -0.02676198    0.01448915    0.03975385
     atom   26 type  1   force =    -0.01176203    0.01246331    0.01252377
     atom   27 type  1   force =     0.00659036    0.03096191   -0.02452638
     atom   28 type  1   force =    -0.02223837    0.01615826   -0.01691081
     atom   29 type  1   force =     0.02601268   -0.02526605    0.02601548
     atom   30 type  1   force =    -0.00079856    0.02853597   -0.01823256
     atom   31 type  1   force =    -0.02052432   -0.05522557   -0.01723379
     atom   32 type  1   force =    -0.01823726   -0.02060329    0.00103301
     atom   33 type  1   force =    -0.00453349   -0.02896592    0.01991998
     atom   34 type  1   force =    -0.00979782   -0.00328308   -0.03072617
     atom   35 type  1   force =     0.02466346    0.01546332   -0.01627318
     atom   36 type  1   force =     0.02207701    0.00776844   -0.00778726
     atom   37 type  1   force =     0.00496846   -0.00550669    0.03073727
     atom   38 type  1   force =     0.00615443   -0.04144662    0.05081645
     atom   39 type  1   force =     0.04073211    0.04760289    0.01915408
     atom   40 type  1   force =    -0.01385266    0.01057030    0.01166793
     atom   41 type  1   force =     0.00106765   -0.04887732   -0.01825780
     atom   42 type  1   force =     0.01253530   -0.03276213   -0.02242963
     atom   43 type  1   force =     0.00606067    0.02279949    0.00866171
     atom   44 type  1   force =     0.02009218   -0.04123592   -0.00395619
     atom   45 type  1   force =    -0.02738230    0.00379156   -0.00998112
     atom   46 type  1   force =     0.00081474    0.02733203   -0.00640650
     atom   47 type  1   force =    -0.02726867    0.00728858   -0.07829686
     atom   48 type  1   force =    -0.02706321    0.01921282    0.00965890
     atom   49 type  1   force =     0.01485760    0.01769961    0.00721606
     atom   50 type  1   force =     0.01285094   -0.11033242   -0.00346908
     atom   51 type  1   force =     0.00286691   -0.00111315    0.02252018
     atom   52 type  1   force =    -0.00843127   -0.02669813   -0.00244880
     atom   53 type  1   force =     0.00591814   -0.01890426   -0.00297763
     atom   54 type  1   force =     0.01524702    0.01219535   -0.00171743
     atom   55 type  1   force =     0.03871227   -0.02168305   -0.04924656
     atom   56 type  1   force =     0.00257711    0.04131331   -0.04465401
     atom   57 type  1   force =     0.04781490    0.01836940    0.01918378
     atom   58 type  1   force =     0.02499923   -0.00091011    0.01992256
     atom   59 type  1   force =    -0.01316264    0.01182348    0.01184301
     atom   60 type  1   force =     0.00117880   -0.02041311    0.01344751
     atom   61 type  1   force =    -0.00028023   -0.01690382    0.02503180
     atom   62 type  1   force =    -0.06896057    0.02377145    0.00217722
     atom   63 type  1   force =    -0.02685363    0.02146304   -0.02036469
     atom   64 type  1   force =     0.00839182   -0.03213368    0.02819928

     Total force =     0.355935     Total SCF correction =     0.001508


     Computing stress (Cartesian axis) and pressure

          total   stress  (Ry/bohr**3)                   (kbar)     P=      -39.96
  -0.00020987  -0.00001560   0.00003220          -30.87       -2.29        4.74
  -0.00001560  -0.00026898  -0.00007760           -2.29      -39.57      -11.41
   0.00003220  -0.00007760  -0.00033610            4.74      -11.41      -49.44

 
     init_run     :      0.95s CPU      4.26s WALL (       1 calls)
     electrons    :      1.64s CPU      1.83s WALL (       1 calls)
     forces       :      0.03s CPU      0.03s WALL (       1 calls)
     stress       :      0.14s CPU      0.14s WALL (       1 calls)

     Called by init_run:
     wfcinit      :      0.44s CPU      3.59s WALL (       1 calls)
                                        3.59s GPU  (       1 calls)
     potinit      :      0.04s CPU      0.13s WALL (       1 calls)
     hinit0       :      0.45s CPU      0.47s WALL (       1 calls)

     Called by electrons:
     c_bands      :      1.07s CPU      1.17s WALL (      19 calls)
     sum_band     :      0.30s CPU      0.35s WALL (      19 calls)
     v_of_rho     :      0.12s CPU      0.22s WALL (      19 calls)
     mix_rho      :      0.13s CPU      0.14s WALL (      19 calls)

     Called by c_bands:
     init_us_2    :      0.05s CPU      0.05s WALL (      39 calls)
     init_us_2:gp :      0.05s CPU      0.05s WALL (      39 calls)
     regterg      :      0.92s CPU      1.03s WALL (      19 calls)

     Called by *egterg:
     rdiaghg      :      0.40s CPU      1.04s WALL (      80 calls)
                                        1.02s GPU  (      80 calls)
     h_psi        :      0.82s CPU      3.39s WALL (      82 calls)
                                        3.39s GPU  (      82 calls)
     g_psi        :      0.00s CPU      0.00s WALL (      62 calls)
                                        0.00s GPU  (      62 calls)

     Called by h_psi:
     h_psi:calbec :      0.42s CPU      2.94s WALL (      82 calls)
                                        2.94s GPU  (      82 calls)
     vloc_psi     :      0.35s CPU      0.40s WALL (      82 calls)
                                        0.40s GPU  (      82 calls)
     add_vuspsi   :      0.03s CPU      0.05s WALL (      82 calls)
                                        0.05s GPU  (      82 calls)

     General routines
     calbec       :      0.43s CPU      2.94s WALL (      87 calls)
     fft          :      0.54s CPU      0.66s WALL (     159 calls)
                                        0.12s GPU  (     101 calls)
     ffts         :      0.02s CPU      0.03s WALL (      19 calls)
     fftw         :      0.43s CPU      0.55s WALL (    1987 calls)
                                        0.48s GPU  (    1987 calls)
 
     Parallel routines
 
     PWSCF        :      2.80s CPU      6.39s WALL

 
   This run was terminated on:  10:51:22  10May2023            

=------------------------------------------------------------------------------=
   JOB DONE.
=------------------------------------------------------------------------------=
