An instance of this daemon is already running

     Program PWSCF v.7.1 starts on 10May2023 at 10:41:13 

     This program is part of the open-source Quantum ESPRESSO suite
     for quantum simulation of materials; please cite
         "P. Giannozzi et al., J. Phys.:Condens. Matter 21 395502 (2009);
         "P. Giannozzi et al., J. Phys.:Condens. Matter 29 465901 (2017);
         "P. Giannozzi et al., J. Chem. Phys. 152 154105 (2020);
          URL http://www.quantum-espresso.org", 
     in publications or presentations arising from this work. More details at
     http://www.quantum-espresso.org/quote

     Parallel version (MPI & OpenMP), running on       4 processor cores
     Number of MPI processes:                 4
     Threads/MPI process:                     1

     MPI processes distributed on     1 nodes
     153220 MiB available memory on the printing compute node when the environment starts
 
     Reading input from pw-si-4.in
Warning: card &CELL ignored
Warning: card / ignored

     Current dimensions of program PWSCF are:
     Max number of different atomic species (ntypx) = 10
     Max number of k-points (npk) =  40000
     Max angular momentum in pseudopotentials (lmaxx) =  4

     IMPORTANT: XC functional enforced from input :
     Exchange-correlation= PBE
                           (   1   4   3   4   0   0   0)
     Any further DFT definition will be discarded
     Please, verify this is what you really want


     gamma-point specific algorithms are used
 
     K-points division:     npool     =       2
     R & G space division:  proc/nbgrp/npool/nimage =       2
     Subspace diagonalization in iterative solution of the eigenvalue problem:
     a serial algorithm will be used

     Message from routine divide_et_impera:
     suboptimal parallelization: some nodes have no k-points
 
     Parallelization info
     --------------------
     sticks:   dense  smooth     PW     G-vecs:    dense   smooth      PW
     Min        1908    1908    502                88957    88957   12102
     Max        1909    1909    503                88960    88960   12105
     Sum        3817    3817   1005               177917   177917   24207
 
     Using Slab Decomposition
 


     bravais-lattice index     =            0
     lattice parameter (alat)  =      20.0145  a.u.
     unit-cell volume          =    8017.4288 (a.u.)^3
     number of atoms/cell      =           64
     number of atomic types    =            1
     number of electrons       =       256.00
     number of Kohn-Sham states=          154
     kinetic-energy cutoff     =      30.0000  Ry
     charge density cutoff     =     120.0000  Ry
     scf convergence threshold =      1.0E-06
     mixing beta               =       0.5000
     number of iterations used =            8  plain     mixing
     Exchange-correlation= PBE
                           (   1   4   3   4   0   0   0)

     GPU acceleration is ACTIVE.
     GPU-aware MPI enabled

     Message from routine print_cuda_info:
     High GPU oversubscription detected. Are you sure this is what you want?

     celldm(1)=  20.014513  celldm(2)=   0.000000  celldm(3)=   0.000000
     celldm(4)=   0.000000  celldm(5)=   0.000000  celldm(6)=   0.000000

     crystal axes: (cart. coord. in units of alat)
               a(1) = (   1.000000   0.000000   0.000000 )  
               a(2) = (   0.000000   1.000000   0.000000 )  
               a(3) = (   0.000000   0.000000   1.000000 )  

     reciprocal axes: (cart. coord. in units 2 pi/alat)
               b(1) = (  1.000000  0.000000  0.000000 )  
               b(2) = (  0.000000  1.000000  0.000000 )  
               b(3) = (  0.000000  0.000000  1.000000 )  


     PseudoPot. # 1 for Si read from file:
     /home/ppiaggi/pseudos/Si_ONCV_PBE_sr.upf
     MD5 check sum: 8553c464762ac42b85b1eed164b4d029
     Pseudo is Norm-conserving, Zval =  4.0
     Generated using ONCVPSP code by D. R. Hamann
     Using radial grid of 1510 points,  4 beta functions with: 
                l(1) =   0
                l(2) =   0
                l(3) =   1
                l(4) =   1

     atomic species   valence    mass     pseudopotential
        Si             4.00    28.08500     Si( 1.00)

     No symmetry found



   Cartesian axes

     site n.     atom                  positions (alat units)
         1           Si  tau(   1) = (   0.4038820   0.3243460   0.7757190  )
         2           Si  tau(   2) = (   0.5078410   0.0319646   0.9773670  )
         3           Si  tau(   3) = (   0.9493630   0.1833050   0.5426730  )
         4           Si  tau(   4) = (   0.6146040   0.1868500   0.7228160  )
         5           Si  tau(   5) = (   0.9160230   0.3525340   0.7294240  )
         6           Si  tau(   6) = (   0.6298330   0.5511720   0.1980910  )
         7           Si  tau(   7) = (   0.4268460   0.4779810   0.3391550  )
         8           Si  tau(   8) = (   0.2454400   0.8830490   0.8165670  )
         9           Si  tau(   9) = (   0.4407250   0.2467230   0.2487870  )
        10           Si  tau(  10) = (   0.9985620   0.5261250   0.9779790  )
        11           Si  tau(  11) = (   0.1303150   0.5194760   0.2875490  )
        12           Si  tau(  12) = (   0.5897700   0.4404690   0.9891670  )
        13           Si  tau(  13) = (   0.0389666   0.7305160   0.7444000  )
        14           Si  tau(  14) = (   0.4752980   0.9684580   0.2217090  )
        15           Si  tau(  15) = (   0.8818330   0.6420300   0.1996790  )
        16           Si  tau(  16) = (   0.2473740   0.1053220   0.6999370  )
        17           Si  tau(  17) = (   0.1741770   0.6788610   0.4889820  )
        18           Si  tau(  18) = (   0.1231350   0.2968700   0.8434220  )
        19           Si  tau(  19) = (   0.0259955   0.8601940   0.9420400  )
        20           Si  tau(  20) = (   0.2226150   0.1263060   0.9736760  )
        21           Si  tau(  21) = (   0.2980210   0.8932490   0.0321401  )
        22           Si  tau(  22) = (   0.2399300   0.9557210   0.3003910  )
        23           Si  tau(  23) = (   0.2659310   0.6428810   0.7171310  )
        24           Si  tau(  24) = (   0.7479760   0.0113002   0.5669360  )
        25           Si  tau(  25) = (   0.5972480   0.5153710   0.5050890  )
        26           Si  tau(  26) = (   0.4626440   0.6916590   0.0466371  )
        27           Si  tau(  27) = (   0.6014920   0.5126520   0.7529020  )
        28           Si  tau(  28) = (   0.1643800   0.6946010   0.1117110  )
        29           Si  tau(  29) = (   0.4261280   0.1410340   0.5483880  )
        30           Si  tau(  30) = (   0.7106750   0.2945390   0.5522170  )
        31           Si  tau(  31) = (   0.7714540   0.8516250   0.2915030  )
        32           Si  tau(  32) = (   0.7374880   0.2785410   0.8776390  )
        33           Si  tau(  33) = (   0.6800610   0.8223080   0.7789730  )
        34           Si  tau(  34) = (   0.8117110   0.0620852   0.2864890  )
        35           Si  tau(  35) = (   0.8265830   0.5750050   0.7419040  )
        36           Si  tau(  36) = (   0.9944570   0.8435760   0.5315940  )
        37           Si  tau(  37) = (   0.8330240   0.7138340   0.9698100  )
        38           Si  tau(  38) = (   0.0406780   0.0180984   0.6595800  )
        39           Si  tau(  39) = (   0.6476020   0.2046390   0.3473050  )
        40           Si  tau(  40) = (   0.7405740   0.0720360   0.0533703  )
        41           Si  tau(  41) = (   0.4331870   0.8035930   0.5803380  )
        42           Si  tau(  42) = (   0.5829670   0.7536670   0.3986790  )
        43           Si  tau(  43) = (   0.4235560   0.2646450   0.0013656  )
        44           Si  tau(  44) = (   0.5559860   0.0069074   0.4349670  )
        45           Si  tau(  45) = (   0.5180380   0.9838030   0.7461920  )
        46           Si  tau(  46) = (   0.3252370   0.5039870   0.0992545  )
        47           Si  tau(  47) = (   0.1626710   0.3052350   0.5489040  )
        48           Si  tau(  48) = (   0.8001100   0.7535490   0.5597650  )
        49           Si  tau(  49) = (   0.3524290   0.7205350   0.2834980  )
        50           Si  tau(  50) = (   0.9591450   0.3765480   0.1444930  )
        51           Si  tau(  51) = (   0.0377484   0.1683600   0.3001390  )
        52           Si  tau(  52) = (   0.0473132   0.0197985   0.1309610  )
        53           Si  tau(  53) = (   0.0184578   0.8068600   0.2872020  )
        54           Si  tau(  54) = (   0.4980560   0.6889060   0.7943700  )
        55           Si  tau(  55) = (   0.9534610   0.1920220   0.9864440  )
        56           Si  tau(  56) = (   0.2099290   0.5005830   0.8974480  )
        57           Si  tau(  57) = (   0.8709180   0.9833600   0.8380490  )
        58           Si  tau(  58) = (   0.3457410   0.4326620   0.5955750  )
        59           Si  tau(  59) = (   0.7944390   0.5428780   0.4119940  )
        60           Si  tau(  60) = (   0.7523980   0.3226630   0.1420930  )
        61           Si  tau(  61) = (   0.9988190   0.4554210   0.4736930  )
        62           Si  tau(  62) = (   0.2618460   0.9102090   0.5067450  )
        63           Si  tau(  63) = (   0.2450400   0.2005980   0.3618070  )
        64           Si  tau(  64) = (   0.6440830   0.8348220   0.1030660  )

     number of k points=     1  Fermi-Dirac smearing, width (Ry)=  0.0100
                       cart. coord. in units 2pi/alat
        k(    1) = (   0.0000000   0.0000000   0.0000000), wk =   2.0000000

     Dense  grid:    88959 G-vectors     FFT dimensions: (  72,  72,  72)

     Estimated max dynamical RAM per process >     143.12 MB

     Estimated total dynamical RAM >     550.75 MB

     Initial potential from superposition of free atoms

     starting charge     255.9608, renormalised to     256.0000
     Starting wfcs are  256 randomized atomic wfcs

     total cpu time spent up to now is        4.5 secs

     Self-consistent Calculation

     iteration #  1     ecut=    30.00 Ry     beta= 0.50
     Davidson diagonalization with overlap
     ethr =  1.00E-02,  avg # of iterations =  3.0

     Threshold (ethr) on eigenvalues was too large:
     Diagonalizing with lowered threshold

     Davidson diagonalization with overlap
     ethr =  3.57E-04,  avg # of iterations =  4.0

     total cpu time spent up to now is        4.7 secs

     total energy              =    -501.19427335 Ry
     estimated scf accuracy    <       1.10223374 Ry

     iteration #  2     ecut=    30.00 Ry     beta= 0.50
     Davidson diagonalization with overlap
     ethr =  4.31E-04,  avg # of iterations =  5.0

     total cpu time spent up to now is        4.8 secs

     total energy              =    -500.68285921 Ry
     estimated scf accuracy    <       6.39612324 Ry

     iteration #  3     ecut=    30.00 Ry     beta= 0.50
     Davidson diagonalization with overlap
     ethr =  4.31E-04,  avg # of iterations =  5.0

     total cpu time spent up to now is        4.9 secs

     total energy              =    -501.27779023 Ry
     estimated scf accuracy    <       1.72359458 Ry

     iteration #  4     ecut=    30.00 Ry     beta= 0.50
     Davidson diagonalization with overlap
     ethr =  4.31E-04,  avg # of iterations =  2.0

     total cpu time spent up to now is        5.0 secs

     total energy              =    -501.37221261 Ry
     estimated scf accuracy    <       0.56818396 Ry

     iteration #  5     ecut=    30.00 Ry     beta= 0.50
     Davidson diagonalization with overlap
     ethr =  2.22E-04,  avg # of iterations =  2.0

     total cpu time spent up to now is        5.1 secs

     total energy              =    -501.40103500 Ry
     estimated scf accuracy    <       0.49853206 Ry

     iteration #  6     ecut=    30.00 Ry     beta= 0.50
     Davidson diagonalization with overlap
     ethr =  1.95E-04,  avg # of iterations =  2.0

     total cpu time spent up to now is        5.2 secs

     total energy              =    -501.44444045 Ry
     estimated scf accuracy    <       0.05552303 Ry

     iteration #  7     ecut=    30.00 Ry     beta= 0.50
     Davidson diagonalization with overlap
     ethr =  2.17E-05,  avg # of iterations =  2.0

     total cpu time spent up to now is        5.2 secs

     total energy              =    -501.45250556 Ry
     estimated scf accuracy    <       0.01060862 Ry

     iteration #  8     ecut=    30.00 Ry     beta= 0.50
     Davidson diagonalization with overlap
     ethr =  4.14E-06,  avg # of iterations = 17.0

     total cpu time spent up to now is        5.4 secs

     total energy              =    -501.45288924 Ry
     estimated scf accuracy    <       0.02335430 Ry

     iteration #  9     ecut=    30.00 Ry     beta= 0.50
     Davidson diagonalization with overlap
     ethr =  4.14E-06,  avg # of iterations =  3.0

     total cpu time spent up to now is        5.5 secs

     total energy              =    -501.45476361 Ry
     estimated scf accuracy    <       0.00246872 Ry

     iteration # 10     ecut=    30.00 Ry     beta= 0.50
     Davidson diagonalization with overlap
     ethr =  9.64E-07,  avg # of iterations =  2.0

     total cpu time spent up to now is        5.6 secs

     total energy              =    -501.45498125 Ry
     estimated scf accuracy    <       0.00084276 Ry

     iteration # 11     ecut=    30.00 Ry     beta= 0.50
     Davidson diagonalization with overlap
     ethr =  3.29E-07,  avg # of iterations =  3.0

     total cpu time spent up to now is        5.7 secs

     total energy              =    -501.45502770 Ry
     estimated scf accuracy    <       0.00058648 Ry

     iteration # 12     ecut=    30.00 Ry     beta= 0.50
     Davidson diagonalization with overlap
     ethr =  2.29E-07,  avg # of iterations =  2.0

     total cpu time spent up to now is        5.8 secs

     total energy              =    -501.45508231 Ry
     estimated scf accuracy    <       0.00026273 Ry

     iteration # 13     ecut=    30.00 Ry     beta= 0.50
     Davidson diagonalization with overlap
     ethr =  1.03E-07,  avg # of iterations =  2.0

     total cpu time spent up to now is        5.9 secs

     total energy              =    -501.45510267 Ry
     estimated scf accuracy    <       0.00008309 Ry

     iteration # 14     ecut=    30.00 Ry     beta= 0.50
     Davidson diagonalization with overlap
     ethr =  3.25E-08,  avg # of iterations =  2.0

     total cpu time spent up to now is        6.0 secs

     total energy              =    -501.45511041 Ry
     estimated scf accuracy    <       0.00001329 Ry

     iteration # 15     ecut=    30.00 Ry     beta= 0.50
     Davidson diagonalization with overlap
     ethr =  5.19E-09,  avg # of iterations =  4.0

     total cpu time spent up to now is        6.1 secs

     total energy              =    -501.45511124 Ry
     estimated scf accuracy    <       0.00002435 Ry

     iteration # 16     ecut=    30.00 Ry     beta= 0.50
     Davidson diagonalization with overlap
     ethr =  5.19E-09,  avg # of iterations =  3.0

     total cpu time spent up to now is        6.1 secs

     total energy              =    -501.45511325 Ry
     estimated scf accuracy    <       0.00000311 Ry

     iteration # 17     ecut=    30.00 Ry     beta= 0.50
     Davidson diagonalization with overlap
     ethr =  1.22E-09,  avg # of iterations =  2.0

     total cpu time spent up to now is        6.2 secs

     total energy              =    -501.45511356 Ry
     estimated scf accuracy    <       0.00000115 Ry

     iteration # 18     ecut=    30.00 Ry     beta= 0.50
     Davidson diagonalization with overlap
     ethr =  4.48E-10,  avg # of iterations =  2.0

     total cpu time spent up to now is        6.3 secs

     End of self-consistent calculation

          k = 0.0000 0.0000 0.0000 ( 11072 PWs)   bands (ev):

    -5.1919  -4.1477  -4.0917  -4.0806  -3.9279  -3.8589  -3.7321  -3.1208
    -3.0874  -2.9636  -2.9374  -2.8771  -2.7672  -2.7012  -2.6745  -2.5383
    -2.5022  -2.4078  -2.2973  -1.8601  -1.7693  -1.7265  -1.5077  -1.4790
    -1.3839  -1.2650  -1.1858  -0.6524  -0.6184  -0.4628  -0.3231  -0.2955
    -0.0045   0.0527   0.1930   0.3372   0.3941   0.4424   0.4709   0.4915
     0.6095   0.6792   0.7487   0.8147   0.9001   0.9923   1.0800   1.1630
     1.2343   1.3225   1.3780   1.4705   1.5021   1.6121   1.7168   1.8326
     1.9466   1.9754   2.1099   2.2564   2.3499   2.3927   2.5243   2.5660
     2.6455   2.7381   2.7847   2.8973   3.0138   3.0695   3.1224   3.2006
     3.2229   3.2941   3.3842   3.4248   3.5348   3.6261   3.7782   3.9202
     3.9332   4.3536   4.4700   4.5483   4.6169   4.7086   4.8364   4.9053
     4.9433   4.9730   5.1235   5.2277   5.2875   5.3924   5.4577   5.4799
     5.5015   5.5855   5.6587   5.7174   5.8002   5.8536   5.8616   5.9294
     5.9796   6.0414   6.0606   6.0904   6.1271   6.2265   6.2355   6.2941
     6.3662   6.4667   6.5047   6.5127   6.6032   6.6577   6.7520   6.8125
     6.8769   6.9364   6.9965   7.0633   7.1440   7.1885   7.3210   7.3378
     7.3600   7.4762   7.4966   7.5369   7.5968   7.6127   7.6413   7.7264
     7.8054   7.9154   7.9319   7.9894   8.0764   8.1250   8.1706   8.2437
     8.3429   8.4280   8.4586   8.5392   8.5519   8.5920   8.6370   8.7146
     8.8309   8.8963

     the Fermi energy is     7.3444 ev

!    total energy              =    -501.45511307 Ry
     estimated scf accuracy    <       0.00000080 Ry
     smearing contrib. (-TS)   =      -0.15462403 Ry
     internal energy E=F+TS    =    -501.30048904 Ry

     The total energy is F=E-TS. E is the sum of the following terms:
     one-electron contribution =     200.05576870 Ry
     hartree contribution      =      19.94463925 Ry
     xc contribution           =    -150.62910722 Ry
     ewald contribution        =    -570.67178977 Ry

     convergence has been achieved in  18 iterations

     Forces acting on atoms (cartesian axes, Ry/au):

     atom    1 type  1   force =     0.03388210   -0.02624967    0.01042763
     atom    2 type  1   force =    -0.00045130   -0.00175781    0.00597065
     atom    3 type  1   force =    -0.02126849    0.03093826   -0.02328371
     atom    4 type  1   force =    -0.04871604   -0.01227897   -0.02965532
     atom    5 type  1   force =    -0.00639656    0.00137902    0.01580555
     atom    6 type  1   force =     0.00345217   -0.00233005    0.01218835
     atom    7 type  1   force =     0.01853263   -0.00927541    0.00102650
     atom    8 type  1   force =    -0.01893447    0.00550423   -0.01117979
     atom    9 type  1   force =    -0.00212002    0.03110190   -0.01160833
     atom   10 type  1   force =    -0.00323006    0.00887962    0.00247601
     atom   11 type  1   force =    -0.01299566    0.00790904    0.00148907
     atom   12 type  1   force =     0.00632106   -0.03255567   -0.01115886
     atom   13 type  1   force =     0.00715890   -0.00501733   -0.00461432
     atom   14 type  1   force =    -0.00187117   -0.02992383   -0.00155384
     atom   15 type  1   force =    -0.01994983   -0.01192272    0.01130832
     atom   16 type  1   force =    -0.00980243    0.00988560    0.01877161
     atom   17 type  1   force =    -0.01274307   -0.00107692    0.00762440
     atom   18 type  1   force =    -0.01561096   -0.00537355   -0.01071595
     atom   19 type  1   force =    -0.00175770   -0.01949730    0.01967230
     atom   20 type  1   force =    -0.00344165    0.00200404   -0.01358213
     atom   21 type  1   force =     0.01391319   -0.02066405    0.01264090
     atom   22 type  1   force =    -0.00521298    0.01785548   -0.05379287
     atom   23 type  1   force =     0.00407703   -0.01206071   -0.01110236
     atom   24 type  1   force =     0.00437207    0.00400672   -0.00655005
     atom   25 type  1   force =    -0.03316975   -0.00301403    0.01700236
     atom   26 type  1   force =    -0.00343506    0.01303168   -0.01226662
     atom   27 type  1   force =     0.02203763   -0.06574335   -0.01836700
     atom   28 type  1   force =     0.00344963    0.01046854    0.00908628
     atom   29 type  1   force =    -0.04467365    0.01143785    0.02174789
     atom   30 type  1   force =     0.01685640    0.00605324   -0.01548923
     atom   31 type  1   force =    -0.01437922   -0.05266182    0.01094239
     atom   32 type  1   force =     0.05146935    0.01474568    0.03866474
     atom   33 type  1   force =     0.04554828    0.03047585   -0.01930175
     atom   34 type  1   force =     0.01036691    0.02829943   -0.00563680
     atom   35 type  1   force =     0.01958115    0.01850677    0.01667408
     atom   36 type  1   force =     0.04374151   -0.01520636   -0.01832444
     atom   37 type  1   force =     0.01310906    0.00296709   -0.00630849
     atom   38 type  1   force =     0.00090566    0.00745387    0.02097346
     atom   39 type  1   force =    -0.00793462    0.00855066   -0.00699485
     atom   40 type  1   force =     0.01253634    0.00413279   -0.02979741
     atom   41 type  1   force =     0.05667100    0.00652848    0.01665036
     atom   42 type  1   force =    -0.01045275   -0.00630565    0.01737492
     atom   43 type  1   force =     0.00253509   -0.00662504    0.02421173
     atom   44 type  1   force =     0.02958227   -0.03030320   -0.01041448
     atom   45 type  1   force =    -0.00144627   -0.01018460   -0.00576260
     atom   46 type  1   force =    -0.00285398    0.02296833   -0.00909954
     atom   47 type  1   force =    -0.00645317   -0.01373946    0.00562895
     atom   48 type  1   force =    -0.04426192   -0.03605188    0.01583396
     atom   49 type  1   force =     0.00360362   -0.00156844    0.00123455
     atom   50 type  1   force =     0.04554197   -0.01376124    0.00725813
     atom   51 type  1   force =    -0.05127497    0.01917339   -0.00679255
     atom   52 type  1   force =     0.02633533   -0.02380975   -0.01230863
     atom   53 type  1   force =    -0.00212204    0.01016593   -0.00395268
     atom   54 type  1   force =    -0.06771156    0.04732068    0.02731145
     atom   55 type  1   force =    -0.01019758    0.01732307   -0.00750999
     atom   56 type  1   force =    -0.00140708   -0.01630111    0.00907243
     atom   57 type  1   force =    -0.01321818    0.01100375    0.00654503
     atom   58 type  1   force =    -0.01466124    0.03486237   -0.01872033
     atom   59 type  1   force =     0.03454890    0.04206245   -0.01634194
     atom   60 type  1   force =    -0.05661407    0.00083367   -0.00803791
     atom   61 type  1   force =     0.02022573   -0.00157527   -0.00888473
     atom   62 type  1   force =    -0.01959492    0.01499580    0.02547361
     atom   63 type  1   force =     0.04836841   -0.02030799    0.03015011
     atom   64 type  1   force =    -0.00835900    0.00431789   -0.01212824

     Total force =     0.296059     Total SCF correction =     0.001835


     Computing stress (Cartesian axis) and pressure

          total   stress  (Ry/bohr**3)                   (kbar)     P=      -41.18
  -0.00026170  -0.00002298   0.00005016          -38.50       -3.38        7.38
  -0.00002298  -0.00020646  -0.00002878           -3.38      -30.37       -4.23
   0.00005016  -0.00002878  -0.00037156            7.38       -4.23      -54.66

 
     init_run     :      1.06s CPU      4.45s WALL (       1 calls)
     electrons    :      1.65s CPU      1.80s WALL (       1 calls)
     forces       :      0.03s CPU      0.03s WALL (       1 calls)
     stress       :      0.14s CPU      0.14s WALL (       1 calls)

     Called by init_run:
     wfcinit      :      0.56s CPU      3.79s WALL (       1 calls)
                                        3.79s GPU  (       1 calls)
     potinit      :      0.04s CPU      0.12s WALL (       1 calls)
     hinit0       :      0.45s CPU      0.47s WALL (       1 calls)

     Called by electrons:
     c_bands      :      1.07s CPU      1.15s WALL (      19 calls)
     sum_band     :      0.30s CPU      0.34s WALL (      19 calls)
     v_of_rho     :      0.13s CPU      0.22s WALL (      19 calls)
     mix_rho      :      0.13s CPU      0.15s WALL (      19 calls)

     Called by c_bands:
     init_us_2    :      0.05s CPU      0.05s WALL (      39 calls)
     init_us_2:gp :      0.05s CPU      0.05s WALL (      39 calls)
     regterg      :      0.94s CPU      1.01s WALL (      19 calls)

     Called by *egterg:
     rdiaghg      :      0.42s CPU      1.18s WALL (      85 calls)
                                        1.16s GPU  (      85 calls)
     h_psi        :      0.92s CPU      3.45s WALL (      87 calls)
                                        3.45s GPU  (      87 calls)
     g_psi        :      0.00s CPU      0.00s WALL (      67 calls)
                                        0.00s GPU  (      67 calls)

     Called by h_psi:
     h_psi:calbec :      0.53s CPU      2.99s WALL (      87 calls)
                                        2.99s GPU  (      87 calls)
     vloc_psi     :      0.35s CPU      0.41s WALL (      87 calls)
                                        0.41s GPU  (      87 calls)
     add_vuspsi   :      0.03s CPU      0.05s WALL (      87 calls)
                                        0.05s GPU  (      87 calls)

     General routines
     calbec       :      0.54s CPU      2.99s WALL (      92 calls)
     fft          :      0.55s CPU      0.66s WALL (     159 calls)
                                        0.11s GPU  (     101 calls)
     ffts         :      0.03s CPU      0.03s WALL (      19 calls)
     fftw         :      0.42s CPU      0.55s WALL (    2011 calls)
                                        0.48s GPU  (    2011 calls)
 
     Parallel routines
 
     PWSCF        :      2.91s CPU      6.48s WALL

 
   This run was terminated on:  10:41:20  10May2023            

=------------------------------------------------------------------------------=
   JOB DONE.
=------------------------------------------------------------------------------=
