An instance of this daemon is already running
An instance of this daemon is already running

     Program PWSCF v.7.1 starts on 10May2023 at 10:44:55 

     This program is part of the open-source Quantum ESPRESSO suite
     for quantum simulation of materials; please cite
         "P. Giannozzi et al., J. Phys.:Condens. Matter 21 395502 (2009);
         "P. Giannozzi et al., J. Phys.:Condens. Matter 29 465901 (2017);
         "P. Giannozzi et al., J. Chem. Phys. 152 154105 (2020);
          URL http://www.quantum-espresso.org", 
     in publications or presentations arising from this work. More details at
     http://www.quantum-espresso.org/quote

     Parallel version (MPI & OpenMP), running on       4 processor cores
     Number of MPI processes:                 4
     Threads/MPI process:                     1

     MPI processes distributed on     1 nodes
     153208 MiB available memory on the printing compute node when the environment starts
 
     Reading input from pw-si-29.in
Warning: card &CELL ignored
Warning: card / ignored

     Current dimensions of program PWSCF are:
     Max number of different atomic species (ntypx) = 10
     Max number of k-points (npk) =  40000
     Max angular momentum in pseudopotentials (lmaxx) =  4

     IMPORTANT: XC functional enforced from input :
     Exchange-correlation= PBE
                           (   1   4   3   4   0   0   0)
     Any further DFT definition will be discarded
     Please, verify this is what you really want


     gamma-point specific algorithms are used
 
     K-points division:     npool     =       2
     R & G space division:  proc/nbgrp/npool/nimage =       2
     Subspace diagonalization in iterative solution of the eigenvalue problem:
     a serial algorithm will be used

     Message from routine divide_et_impera:
     suboptimal parallelization: some nodes have no k-points
 
     Parallelization info
     --------------------
     sticks:   dense  smooth     PW     G-vecs:    dense   smooth      PW
     Min        1908    1908    502                89172    89172   12102
     Max        1909    1909    503                89177    89177   12105
     Sum        3817    3817   1005               178349   178349   24207
 
     Using Slab Decomposition
 


     bravais-lattice index     =            0
     lattice parameter (alat)  =      20.0275  a.u.
     unit-cell volume          =    8033.0485 (a.u.)^3
     number of atoms/cell      =           64
     number of atomic types    =            1
     number of electrons       =       256.00
     number of Kohn-Sham states=          154
     kinetic-energy cutoff     =      30.0000  Ry
     charge density cutoff     =     120.0000  Ry
     scf convergence threshold =      1.0E-06
     mixing beta               =       0.5000
     number of iterations used =            8  plain     mixing
     Exchange-correlation= PBE
                           (   1   4   3   4   0   0   0)

     GPU acceleration is ACTIVE.
     GPU-aware MPI enabled

     Message from routine print_cuda_info:
     High GPU oversubscription detected. Are you sure this is what you want?

     celldm(1)=  20.027503  celldm(2)=   0.000000  celldm(3)=   0.000000
     celldm(4)=   0.000000  celldm(5)=   0.000000  celldm(6)=   0.000000

     crystal axes: (cart. coord. in units of alat)
               a(1) = (   1.000000   0.000000   0.000000 )  
               a(2) = (   0.000000   1.000000   0.000000 )  
               a(3) = (   0.000000   0.000000   1.000000 )  

     reciprocal axes: (cart. coord. in units 2 pi/alat)
               b(1) = (  1.000000  0.000000  0.000000 )  
               b(2) = (  0.000000  1.000000  0.000000 )  
               b(3) = (  0.000000  0.000000  1.000000 )  


     PseudoPot. # 1 for Si read from file:
     /home/ppiaggi/pseudos/Si_ONCV_PBE_sr.upf
     MD5 check sum: 8553c464762ac42b85b1eed164b4d029
     Pseudo is Norm-conserving, Zval =  4.0
     Generated using ONCVPSP code by D. R. Hamann
     Using radial grid of 1510 points,  4 beta functions with: 
                l(1) =   0
                l(2) =   0
                l(3) =   1
                l(4) =   1

     atomic species   valence    mass     pseudopotential
        Si             4.00    28.08500     Si( 1.00)

     No symmetry found



   Cartesian axes

     site n.     atom                  positions (alat units)
         1           Si  tau(   1) = (   0.7927480   0.6228100   0.7196130  )
         2           Si  tau(   2) = (   0.9310900   0.0933517   0.3137680  )
         3           Si  tau(   3) = (   0.0600474   0.0590133   0.5505720  )
         4           Si  tau(   4) = (   0.2016870   0.7156200   0.9959810  )
         5           Si  tau(   5) = (   0.6937910   0.4303810   0.6390390  )
         6           Si  tau(   6) = (   0.6163640   0.9598270   0.3129700  )
         7           Si  tau(   7) = (   0.1906890   0.9445110   0.9282740  )
         8           Si  tau(   8) = (   0.9849760   0.8508310   0.8383150  )
         9           Si  tau(   9) = (   0.5114640   0.3895570   0.5203930  )
        10           Si  tau(  10) = (   0.8439850   0.4646200   0.0738910  )
        11           Si  tau(  11) = (   0.1468760   0.5319880   0.7441020  )
        12           Si  tau(  12) = (   0.4828980   0.6872340   0.3461090  )
        13           Si  tau(  13) = (   0.8456910   0.9650160   0.6369430  )
        14           Si  tau(  14) = (   0.2613250   0.3953750   0.5887160  )
        15           Si  tau(  15) = (   0.4899150   0.9244110   0.5215560  )
        16           Si  tau(  16) = (   0.4362810   0.0061253   0.1291950  )
        17           Si  tau(  17) = (   0.1356360   0.2109460   0.0268656  )
        18           Si  tau(  18) = (   0.5947910   0.9687530   0.8176980  )
        19           Si  tau(  19) = (   0.3485920   0.1453720   0.4214410  )
        20           Si  tau(  20) = (   0.0846074   0.4310890   0.9721250  )
        21           Si  tau(  21) = (   0.4930760   0.7387020   0.9268030  )
        22           Si  tau(  22) = (   0.9183310   0.3763140   0.7873320  )
        23           Si  tau(  23) = (   0.3716180   0.9421490   0.7932460  )
        24           Si  tau(  24) = (   0.7007370   0.9433430   0.0363352  )
        25           Si  tau(  25) = (   0.5462720   0.3836290   0.8429370  )
        26           Si  tau(  26) = (   0.5569220   0.2447920   0.0306483  )
        27           Si  tau(  27) = (   0.3492750   0.5877240   0.8585840  )
        28           Si  tau(  28) = (   0.6880860   0.5000850   0.2454710  )
        29           Si  tau(  29) = (   0.3304290   0.4356700   0.0267480  )
        30           Si  tau(  30) = (   0.0536971   0.2965430   0.5976500  )
        31           Si  tau(  31) = (   0.0181189   0.6976300   0.6641330  )
        32           Si  tau(  32) = (   0.7909950   0.2555240   0.9481970  )
        33           Si  tau(  33) = (   0.1650340   0.2381690   0.2702550  )
        34           Si  tau(  34) = (   0.7875070   0.1834450   0.6792720  )
        35           Si  tau(  35) = (   0.0541653   0.1536160   0.7940490  )
        36           Si  tau(  36) = (   0.9267050   0.4832550   0.5013570  )
        37           Si  tau(  37) = (   0.3947780   0.2501830   0.7192520  )
        38           Si  tau(  38) = (   0.6304210   0.7389340   0.1769230  )
        39           Si  tau(  39) = (   0.0460576   0.0066832   0.1504100  )
        40           Si  tau(  40) = (   0.6792190   0.8135080   0.6680930  )
        41           Si  tau(  41) = (   0.7446360   0.1255030   0.1752440  )
        42           Si  tau(  42) = (   0.8223860   0.7734630   0.9578730  )
        43           Si  tau(  43) = (   0.0629029   0.6013360   0.1387730  )
        44           Si  tau(  44) = (   0.2767620   0.0852889   0.6159690  )
        45           Si  tau(  45) = (   0.2798740   0.8014500   0.3909920  )
        46           Si  tau(  46) = (   0.3820660   0.7963480   0.1214720  )
        47           Si  tau(  47) = (   0.9308090   0.8027920   0.1561950  )
        48           Si  tau(  48) = (   0.0825742   0.6407850   0.3622230  )
        49           Si  tau(  49) = (   0.2516040   0.9839650   0.2772340  )
        50           Si  tau(  50) = (   0.5790870   0.1945170   0.4242060  )
        51           Si  tau(  51) = (   0.5350050   0.6475680   0.5737840  )
        52           Si  tau(  52) = (   0.3464580   0.1585410   0.9508010  )
        53           Si  tau(  53) = (   0.6867020   0.5799160   0.9377610  )
        54           Si  tau(  54) = (   0.2121660   0.4455200   0.3643870  )
        55           Si  tau(  55) = (   0.9424740   0.3896270   0.2941120  )
        56           Si  tau(  56) = (   0.5703140   0.0964184   0.6424970  )
        57           Si  tau(  57) = (   0.9094900   0.0571920   0.9369570  )
        58           Si  tau(  58) = (   0.8364020   0.8449340   0.3722840  )
        59           Si  tau(  59) = (   0.8099520   0.2579320   0.4495850  )
        60           Si  tau(  60) = (   0.7544760   0.6284460   0.4305530  )
        61           Si  tau(  61) = (   0.5257220   0.3419980   0.2363460  )
        62           Si  tau(  62) = (   0.2916100   0.7782790   0.6516240  )
        63           Si  tau(  63) = (   0.3822330   0.5307060   0.2506030  )
        64           Si  tau(  64) = (   0.0616270   0.8296630   0.4911600  )

     number of k points=     1  Fermi-Dirac smearing, width (Ry)=  0.0100
                       cart. coord. in units 2pi/alat
        k(    1) = (   0.0000000   0.0000000   0.0000000), wk =   2.0000000

     Dense  grid:    89175 G-vectors     FFT dimensions: (  72,  72,  72)

     Estimated max dynamical RAM per process >     143.38 MB

     Estimated total dynamical RAM >     551.74 MB

     Initial potential from superposition of free atoms

     starting charge     255.9608, renormalised to     256.0000
     Starting wfcs are  256 randomized atomic wfcs

     total cpu time spent up to now is        4.2 secs

     Self-consistent Calculation

     iteration #  1     ecut=    30.00 Ry     beta= 0.50
     Davidson diagonalization with overlap
     ethr =  1.00E-02,  avg # of iterations =  3.0

     Threshold (ethr) on eigenvalues was too large:
     Diagonalizing with lowered threshold

     Davidson diagonalization with overlap
     ethr =  3.81E-04,  avg # of iterations =  4.0

     total cpu time spent up to now is        4.4 secs

     total energy              =    -501.33962538 Ry
     estimated scf accuracy    <       1.15722401 Ry

     iteration #  2     ecut=    30.00 Ry     beta= 0.50
     Davidson diagonalization with overlap
     ethr =  4.52E-04,  avg # of iterations =  4.0

     total cpu time spent up to now is        4.5 secs

     total energy              =    -501.01012726 Ry
     estimated scf accuracy    <       3.73052957 Ry

     iteration #  3     ecut=    30.00 Ry     beta= 0.50
     Davidson diagonalization with overlap
     ethr =  4.52E-04,  avg # of iterations =  3.0

     total cpu time spent up to now is        4.6 secs

     total energy              =    -501.34639536 Ry
     estimated scf accuracy    <       2.24713376 Ry

     iteration #  4     ecut=    30.00 Ry     beta= 0.50
     Davidson diagonalization with overlap
     ethr =  4.52E-04,  avg # of iterations =  2.0

     total cpu time spent up to now is        4.7 secs

     total energy              =    -501.51724080 Ry
     estimated scf accuracy    <       0.59606150 Ry

     iteration #  5     ecut=    30.00 Ry     beta= 0.50
     Davidson diagonalization with overlap
     ethr =  2.33E-04,  avg # of iterations =  2.0

     total cpu time spent up to now is        4.8 secs

     total energy              =    -501.55422085 Ry
     estimated scf accuracy    <       0.19254043 Ry

     iteration #  6     ecut=    30.00 Ry     beta= 0.50
     Davidson diagonalization with overlap
     ethr =  7.52E-05,  avg # of iterations =  2.0

     total cpu time spent up to now is        4.8 secs

     total energy              =    -501.57514817 Ry
     estimated scf accuracy    <       0.14382845 Ry

     iteration #  7     ecut=    30.00 Ry     beta= 0.50
     Davidson diagonalization with overlap
     ethr =  5.62E-05,  avg # of iterations =  1.0

     total cpu time spent up to now is        4.9 secs

     total energy              =    -501.58733399 Ry
     estimated scf accuracy    <       0.00664062 Ry

     iteration #  8     ecut=    30.00 Ry     beta= 0.50
     Davidson diagonalization with overlap
     ethr =  2.59E-06,  avg # of iterations = 16.0

     total cpu time spent up to now is        5.1 secs

     total energy              =    -501.58816981 Ry
     estimated scf accuracy    <       0.00952646 Ry

     iteration #  9     ecut=    30.00 Ry     beta= 0.50
     Davidson diagonalization with overlap
     ethr =  2.59E-06,  avg # of iterations =  3.0

     total cpu time spent up to now is        5.2 secs

     total energy              =    -501.58905517 Ry
     estimated scf accuracy    <       0.00399199 Ry

     iteration # 10     ecut=    30.00 Ry     beta= 0.50
     Davidson diagonalization with overlap
     ethr =  1.56E-06,  avg # of iterations =  2.0

     total cpu time spent up to now is        5.3 secs

     total energy              =    -501.58935858 Ry
     estimated scf accuracy    <       0.00050446 Ry

     iteration # 11     ecut=    30.00 Ry     beta= 0.50
     Davidson diagonalization with overlap
     ethr =  1.97E-07,  avg # of iterations =  2.0

     total cpu time spent up to now is        5.3 secs

     total energy              =    -501.58941710 Ry
     estimated scf accuracy    <       0.00009656 Ry

     iteration # 12     ecut=    30.00 Ry     beta= 0.50
     Davidson diagonalization with overlap
     ethr =  3.77E-08,  avg # of iterations =  5.0

     total cpu time spent up to now is        5.5 secs

     total energy              =    -501.58941052 Ry
     estimated scf accuracy    <       0.00052880 Ry

     iteration # 13     ecut=    30.00 Ry     beta= 0.50
     Davidson diagonalization with overlap
     ethr =  3.77E-08,  avg # of iterations =  3.0

     total cpu time spent up to now is        5.6 secs

     total energy              =    -501.58944632 Ry
     estimated scf accuracy    <       0.00003369 Ry

     iteration # 14     ecut=    30.00 Ry     beta= 0.50
     Davidson diagonalization with overlap
     ethr =  1.32E-08,  avg # of iterations =  3.0

     total cpu time spent up to now is        5.7 secs

     total energy              =    -501.58944859 Ry
     estimated scf accuracy    <       0.00001993 Ry

     iteration # 15     ecut=    30.00 Ry     beta= 0.50
     Davidson diagonalization with overlap
     ethr =  7.79E-09,  avg # of iterations =  2.0

     total cpu time spent up to now is        5.7 secs

     total energy              =    -501.58944978 Ry
     estimated scf accuracy    <       0.00000747 Ry

     iteration # 16     ecut=    30.00 Ry     beta= 0.50
     Davidson diagonalization with overlap
     ethr =  2.92E-09,  avg # of iterations =  3.0

     total cpu time spent up to now is        5.8 secs

     total energy              =    -501.58944973 Ry
     estimated scf accuracy    <       0.00001851 Ry

     iteration # 17     ecut=    30.00 Ry     beta= 0.50
     Davidson diagonalization with overlap
     ethr =  2.92E-09,  avg # of iterations =  2.0

     total cpu time spent up to now is        5.9 secs

     End of self-consistent calculation

          k = 0.0000 0.0000 0.0000 ( 11072 PWs)   bands (ev):

    -5.2443  -4.2793  -4.2020  -4.1358  -3.9929  -3.8460  -3.8021  -3.2556
    -3.1190  -3.0591  -3.0280  -2.9396  -2.8645  -2.7599  -2.6687  -2.6200
    -2.5326  -2.4609  -2.3445  -1.9198  -1.7879  -1.7777  -1.7200  -1.5996
    -1.5410  -1.4236  -1.1875  -0.7117  -0.6188  -0.5334  -0.3986  -0.2955
    -0.2163  -0.0077   0.1567   0.2854   0.3148   0.3797   0.4090   0.5020
     0.5216   0.6575   0.6840   0.7392   0.8371   0.9136   0.9965   1.0479
     1.1608   1.2243   1.3284   1.4162   1.4935   1.5785   1.6686   1.7990
     1.8705   1.9509   2.0897   2.1689   2.3738   2.4485   2.5252   2.5955
     2.7483   2.7864   2.8151   2.8863   2.9613   3.0398   3.0736   3.1585
     3.2114   3.2648   3.3547   3.4489   3.5244   3.5917   3.6292   3.7242
     3.8643   4.3147   4.4164   4.5154   4.5697   4.6375   4.6754   4.7885
     4.9206   5.0235   5.0571   5.0962   5.2577   5.3009   5.3632   5.3998
     5.5345   5.5701   5.6049   5.6696   5.7181   5.7460   5.7648   5.8471
     5.9261   5.9699   6.0019   6.0485   6.0665   6.1526   6.2405   6.2846
     6.3098   6.3889   6.4814   6.5296   6.5601   6.6620   6.6924   6.7183
     6.8108   6.8630   6.9006   6.9628   7.0898   7.1134   7.1473   7.2314
     7.2885   7.3329   7.3953   7.4803   7.5392   7.5766   7.6911   7.7973
     7.8143   7.8641   7.9405   8.0000   8.1218   8.1322   8.1715   8.2485
     8.3020   8.3555   8.4278   8.5182   8.6178   8.6676   8.6856   8.8041
     8.8515   8.8915

     the Fermi energy is     7.2592 ev

!    total energy              =    -501.58945037 Ry
     estimated scf accuracy    <       0.00000080 Ry
     smearing contrib. (-TS)   =      -0.14506901 Ry
     internal energy E=F+TS    =    -501.44438136 Ry

     The total energy is F=E-TS. E is the sum of the following terms:
     one-electron contribution =     197.20773319 Ry
     hartree contribution      =      21.07249689 Ry
     xc contribution           =    -151.00358641 Ry
     ewald contribution        =    -568.72102504 Ry

     convergence has been achieved in  17 iterations

     Forces acting on atoms (cartesian axes, Ry/au):

     atom    1 type  1   force =     0.00726553   -0.00613618    0.02900417
     atom    2 type  1   force =    -0.02043516    0.04363188    0.04069450
     atom    3 type  1   force =    -0.01366107   -0.00775891   -0.00322764
     atom    4 type  1   force =     0.03478786    0.01405387    0.00354355
     atom    5 type  1   force =     0.02371889    0.00428854    0.01853951
     atom    6 type  1   force =    -0.00328625    0.00420475    0.00234644
     atom    7 type  1   force =    -0.02980494   -0.01099707    0.00538572
     atom    8 type  1   force =     0.02999372    0.01933366   -0.04553494
     atom    9 type  1   force =    -0.01811319    0.02150348   -0.00852532
     atom   10 type  1   force =     0.01353283   -0.00415415    0.01788021
     atom   11 type  1   force =     0.03786334   -0.01647788    0.02166957
     atom   12 type  1   force =     0.01344167    0.04197663    0.02036968
     atom   13 type  1   force =     0.04658844    0.01502946    0.02415113
     atom   14 type  1   force =    -0.01952914   -0.00446738   -0.00662036
     atom   15 type  1   force =    -0.01855351   -0.00129095   -0.01815676
     atom   16 type  1   force =     0.00175418    0.01087393    0.01290398
     atom   17 type  1   force =     0.01454607    0.00270820    0.01912491
     atom   18 type  1   force =     0.00936522   -0.05244789    0.04576620
     atom   19 type  1   force =     0.00335235   -0.01524321   -0.03781628
     atom   20 type  1   force =    -0.00410614   -0.00175621   -0.02343401
     atom   21 type  1   force =     0.03803389    0.00665278    0.01189313
     atom   22 type  1   force =     0.00960753   -0.02682082    0.00004393
     atom   23 type  1   force =    -0.02735083    0.00356864   -0.02933508
     atom   24 type  1   force =    -0.00959609    0.00856815   -0.01906307
     atom   25 type  1   force =     0.00615951    0.02520360   -0.00737927
     atom   26 type  1   force =     0.00396110    0.00200848    0.01026963
     atom   27 type  1   force =    -0.05111019   -0.01166032   -0.00485945
     atom   28 type  1   force =     0.01573627    0.02891587    0.00273105
     atom   29 type  1   force =    -0.00017421   -0.00125388    0.02214043
     atom   30 type  1   force =    -0.01408308    0.00080994    0.02088902
     atom   31 type  1   force =    -0.01389826   -0.01123081    0.02443508
     atom   32 type  1   force =    -0.01107713    0.00888537   -0.00214829
     atom   33 type  1   force =    -0.02391033    0.01352659   -0.00997549
     atom   34 type  1   force =    -0.00444326    0.00995446   -0.00607071
     atom   35 type  1   force =    -0.00075823    0.01724007    0.00161633
     atom   36 type  1   force =    -0.01059859    0.02620500   -0.00325182
     atom   37 type  1   force =     0.02011310   -0.00377904    0.02815987
     atom   38 type  1   force =    -0.01883309    0.00663734    0.00661143
     atom   39 type  1   force =     0.03062762   -0.03983344   -0.04449606
     atom   40 type  1   force =    -0.02386237   -0.00440225    0.01394061
     atom   41 type  1   force =    -0.01820101   -0.01638124   -0.00379616
     atom   42 type  1   force =    -0.02312190   -0.01082725    0.02378996
     atom   43 type  1   force =    -0.02220460    0.01469937    0.00229768
     atom   44 type  1   force =    -0.00609402   -0.04283399    0.02519484
     atom   45 type  1   force =    -0.01312605   -0.02911521    0.03902941
     atom   46 type  1   force =     0.01441398   -0.03678707   -0.00987887
     atom   47 type  1   force =     0.00279834   -0.00368888    0.01184605
     atom   48 type  1   force =     0.02189547   -0.03225812    0.00102256
     atom   49 type  1   force =     0.00835532    0.03342917   -0.02620267
     atom   50 type  1   force =     0.00719193   -0.00148335   -0.04102380
     atom   51 type  1   force =     0.02435513    0.00296798   -0.02859880
     atom   52 type  1   force =     0.02670900   -0.00118074    0.00125019
     atom   53 type  1   force =     0.00810452    0.03098098   -0.02358859
     atom   54 type  1   force =    -0.00675064    0.00253328    0.02228296
     atom   55 type  1   force =    -0.00542729   -0.02753496   -0.01423202
     atom   56 type  1   force =    -0.01389248    0.06266932   -0.00633311
     atom   57 type  1   force =    -0.00342486   -0.00626043    0.01000541
     atom   58 type  1   force =    -0.00231101   -0.00425135   -0.02366673
     atom   59 type  1   force =    -0.00790966    0.00453161    0.00411004
     atom   60 type  1   force =    -0.01768568   -0.01823256   -0.00048981
     atom   61 type  1   force =     0.00573584    0.01811522    0.00278576
     atom   62 type  1   force =     0.01587362    0.00382879   -0.03668273
     atom   63 type  1   force =    -0.01502911   -0.07763391   -0.06187341
     atom   64 type  1   force =    -0.00351892    0.01864303   -0.00146366

     Total force =     0.297467     Total SCF correction =     0.001659


     Computing stress (Cartesian axis) and pressure

          total   stress  (Ry/bohr**3)                   (kbar)     P=      -33.84
  -0.00017599   0.00000432  -0.00002184          -25.89        0.64       -3.21
   0.00000432  -0.00020311  -0.00000230            0.64      -29.88       -0.34
  -0.00002184  -0.00000230  -0.00031096           -3.21       -0.34      -45.74

 
     init_run     :      0.94s CPU      4.12s WALL (       1 calls)
     electrons    :      1.55s CPU      1.72s WALL (       1 calls)
     forces       :      0.03s CPU      0.03s WALL (       1 calls)
     stress       :      0.14s CPU      0.14s WALL (       1 calls)

     Called by init_run:
     wfcinit      :      0.44s CPU      3.45s WALL (       1 calls)
                                        3.45s GPU  (       1 calls)
     potinit      :      0.03s CPU      0.11s WALL (       1 calls)
     hinit0       :      0.45s CPU      0.47s WALL (       1 calls)

     Called by electrons:
     c_bands      :      1.01s CPU      1.10s WALL (      18 calls)
     sum_band     :      0.28s CPU      0.32s WALL (      18 calls)
     v_of_rho     :      0.12s CPU      0.22s WALL (      18 calls)
     mix_rho      :      0.11s CPU      0.13s WALL (      18 calls)

     Called by c_bands:
     init_us_2    :      0.05s CPU      0.05s WALL (      37 calls)
     init_us_2:gp :      0.05s CPU      0.05s WALL (      37 calls)
     regterg      :      0.88s CPU      0.96s WALL (      18 calls)

     Called by *egterg:
     rdiaghg      :      0.38s CPU      0.99s WALL (      79 calls)
                                        0.98s GPU  (      79 calls)
     h_psi        :      0.79s CPU      3.24s WALL (      81 calls)
                                        3.23s GPU  (      81 calls)
     g_psi        :      0.00s CPU      0.00s WALL (      62 calls)
                                        0.00s GPU  (      62 calls)

     Called by h_psi:
     h_psi:calbec :      0.41s CPU      2.79s WALL (      81 calls)
                                        2.79s GPU  (      81 calls)
     vloc_psi     :      0.33s CPU      0.39s WALL (      81 calls)
                                        0.39s GPU  (      81 calls)
     add_vuspsi   :      0.03s CPU      0.05s WALL (      81 calls)
                                        0.05s GPU  (      81 calls)

     General routines
     calbec       :      0.41s CPU      2.79s WALL (      86 calls)
     fft          :      0.53s CPU      0.66s WALL (     151 calls)
                                        0.13s GPU  (      96 calls)
     ffts         :      0.03s CPU      0.03s WALL (      18 calls)
     fftw         :      0.41s CPU      0.53s WALL (    1900 calls)
                                        0.47s GPU  (    1900 calls)
 
     Parallel routines
 
     PWSCF        :      2.69s CPU      6.08s WALL

 
   This run was terminated on:  10:45: 1  10May2023            

=------------------------------------------------------------------------------=
   JOB DONE.
=------------------------------------------------------------------------------=
