An instance of this daemon is already running

     Program PWSCF v.7.1 starts on 10May2023 at 10:46:42 

     This program is part of the open-source Quantum ESPRESSO suite
     for quantum simulation of materials; please cite
         "P. Giannozzi et al., J. Phys.:Condens. Matter 21 395502 (2009);
         "P. Giannozzi et al., J. Phys.:Condens. Matter 29 465901 (2017);
         "P. Giannozzi et al., J. Chem. Phys. 152 154105 (2020);
          URL http://www.quantum-espresso.org", 
     in publications or presentations arising from this work. More details at
     http://www.quantum-espresso.org/quote

     Parallel version (MPI & OpenMP), running on       4 processor cores
     Number of MPI processes:                 4
     Threads/MPI process:                     1

     MPI processes distributed on     1 nodes
     153212 MiB available memory on the printing compute node when the environment starts
 
     Reading input from pw-si-41.in
Warning: card &CELL ignored
Warning: card / ignored

     Current dimensions of program PWSCF are:
     Max number of different atomic species (ntypx) = 10
     Max number of k-points (npk) =  40000
     Max angular momentum in pseudopotentials (lmaxx) =  4

     IMPORTANT: XC functional enforced from input :
     Exchange-correlation= PBE
                           (   1   4   3   4   0   0   0)
     Any further DFT definition will be discarded
     Please, verify this is what you really want


     gamma-point specific algorithms are used
 
     K-points division:     npool     =       2
     R & G space division:  proc/nbgrp/npool/nimage =       2
     Subspace diagonalization in iterative solution of the eigenvalue problem:
     a serial algorithm will be used

     Message from routine divide_et_impera:
     suboptimal parallelization: some nodes have no k-points
 
     Parallelization info
     --------------------
     sticks:   dense  smooth     PW     G-vecs:    dense   smooth      PW
     Min        1930    1930    504                90041    90041   12201
     Max        1931    1931    505                90042    90042   12204
     Sum        3861    3861   1009               180083   180083   24405
 
     Using Slab Decomposition
 


     bravais-lattice index     =            0
     lattice parameter (alat)  =      20.0901  a.u.
     unit-cell volume          =    8108.6569 (a.u.)^3
     number of atoms/cell      =           64
     number of atomic types    =            1
     number of electrons       =       256.00
     number of Kohn-Sham states=          154
     kinetic-energy cutoff     =      30.0000  Ry
     charge density cutoff     =     120.0000  Ry
     scf convergence threshold =      1.0E-06
     mixing beta               =       0.5000
     number of iterations used =            8  plain     mixing
     Exchange-correlation= PBE
                           (   1   4   3   4   0   0   0)

     GPU acceleration is ACTIVE.
     GPU-aware MPI enabled

     Message from routine print_cuda_info:
     High GPU oversubscription detected. Are you sure this is what you want?

     celldm(1)=  20.090141  celldm(2)=   0.000000  celldm(3)=   0.000000
     celldm(4)=   0.000000  celldm(5)=   0.000000  celldm(6)=   0.000000

     crystal axes: (cart. coord. in units of alat)
               a(1) = (   1.000000   0.000000   0.000000 )  
               a(2) = (   0.000000   1.000000   0.000000 )  
               a(3) = (   0.000000   0.000000   1.000000 )  

     reciprocal axes: (cart. coord. in units 2 pi/alat)
               b(1) = (  1.000000  0.000000  0.000000 )  
               b(2) = (  0.000000  1.000000  0.000000 )  
               b(3) = (  0.000000  0.000000  1.000000 )  


     PseudoPot. # 1 for Si read from file:
     /home/ppiaggi/pseudos/Si_ONCV_PBE_sr.upf
     MD5 check sum: 8553c464762ac42b85b1eed164b4d029
     Pseudo is Norm-conserving, Zval =  4.0
     Generated using ONCVPSP code by D. R. Hamann
     Using radial grid of 1510 points,  4 beta functions with: 
                l(1) =   0
                l(2) =   0
                l(3) =   1
                l(4) =   1

     atomic species   valence    mass     pseudopotential
        Si             4.00    28.08500     Si( 1.00)

     No symmetry found



   Cartesian axes

     site n.     atom                  positions (alat units)
         1           Si  tau(   1) = (   0.1457290   0.4586580   0.2485000  )
         2           Si  tau(   2) = (   0.6051680   0.2131040   0.2937130  )
         3           Si  tau(   3) = (   0.4525240   0.1881320   0.6422330  )
         4           Si  tau(   4) = (   0.4109110   0.5236100   0.7408160  )
         5           Si  tau(   5) = (   0.6207780   0.4416140   0.4924910  )
         6           Si  tau(   6) = (   0.3455700   0.9296390   0.8985780  )
         7           Si  tau(   7) = (   0.3444860   0.6771260   0.4471480  )
         8           Si  tau(   8) = (   0.8469540   0.3431760   0.9923060  )
         9           Si  tau(   9) = (   0.2127620   0.6158750   0.7578860  )
        10           Si  tau(  10) = (   0.2360320   0.0363747   0.0565878  )
        11           Si  tau(  11) = (   0.9549130   0.8939790   0.7304680  )
        12           Si  tau(  12) = (   0.9238280   0.7226080   0.9682580  )
        13           Si  tau(  13) = (   0.1688230   0.9549430   0.5201900  )
        14           Si  tau(  14) = (   0.0947933   0.5972600   0.4160360  )
        15           Si  tau(  15) = (   0.9839680   0.9667490   0.2967260  )
        16           Si  tau(  16) = (   0.6809530   0.9946450   0.4826050  )
        17           Si  tau(  17) = (   0.2633650   0.0377030   0.3003650  )
        18           Si  tau(  18) = (   0.8510370   0.3661390   0.3138540  )
        19           Si  tau(  19) = (   0.9783710   0.5065870   0.1006560  )
        20           Si  tau(  20) = (   0.6477180   0.4826920   0.7623120  )
        21           Si  tau(  21) = (   0.9393170   0.9922530   0.9514800  )
        22           Si  tau(  22) = (   0.9459720   0.1937160   0.1980850  )
        23           Si  tau(  23) = (   0.9426780   0.0184717   0.5305830  )
        24           Si  tau(  24) = (   0.3310610   0.2617510   0.1092280  )
        25           Si  tau(  25) = (   0.3856180   0.4579640   0.5227210  )
        26           Si  tau(  26) = (   0.2426800   0.7034130   0.9690200  )
        27           Si  tau(  27) = (   0.7662210   0.9109220   0.2680950  )
        28           Si  tau(  28) = (   0.4867560   0.7838040   0.2604590  )
        29           Si  tau(  29) = (   0.9388370   0.6968740   0.2781100  )
        30           Si  tau(  30) = (   0.2763490   0.2873870   0.5197580  )
        31           Si  tau(  31) = (   0.6781650   0.2160130   0.5100140  )
        32           Si  tau(  32) = (   0.8798330   0.2454130   0.5996810  )
        33           Si  tau(  33) = (   0.9030340   0.6494450   0.7179760  )
        34           Si  tau(  34) = (   0.6981810   0.6830930   0.5996660  )
        35           Si  tau(  35) = (   0.4350880   0.4269460   0.9782660  )
        36           Si  tau(  36) = (   0.5158600   0.7829570   0.8494450  )
        37           Si  tau(  37) = (   0.4211610   0.3053490   0.3043800  )
        38           Si  tau(  38) = (   0.2976850   0.0533038   0.7160840  )
        39           Si  tau(  39) = (   0.5043230   0.0921086   0.9882630  )
        40           Si  tau(  40) = (   0.1182210   0.3754560   0.6886820  )
        41           Si  tau(  41) = (   0.0684694   0.2096440   0.9790120  )
        42           Si  tau(  42) = (   0.7288170   0.8919310   0.6701610  )
        43           Si  tau(  43) = (   0.7649340   0.0851688   0.0987482  )
        44           Si  tau(  44) = (   0.0857052   0.1400450   0.7497320  )
        45           Si  tau(  45) = (   0.7360960   0.7850560   0.0757758  )
        46           Si  tau(  46) = (   0.1530850   0.2380610   0.3141750  )
        47           Si  tau(  47) = (   0.8803010   0.4290020   0.7655890  )
        48           Si  tau(  48) = (   0.7569330   0.1868570   0.7987640  )
        49           Si  tau(  49) = (   0.6158980   0.6032030   0.9678440  )
        50           Si  tau(  50) = (   0.1176780   0.7548460   0.6066350  )
        51           Si  tau(  51) = (   0.7332910   0.6960480   0.3645070  )
        52           Si  tau(  52) = (   0.2179950   0.8036410   0.2801760  )
        53           Si  tau(  53) = (   0.7601660   0.5343530   0.1871270  )
        54           Si  tau(  54) = (   0.5489350   0.2623610   0.8309410  )
        55           Si  tau(  55) = (   0.5101090   0.5183290   0.2852670  )
        56           Si  tau(  56) = (   0.9957840   0.3797230   0.4777460  )
        57           Si  tau(  57) = (   0.0915364   0.8499370   0.0841946  )
        58           Si  tau(  58) = (   0.4278500   0.9714130   0.5133620  )
        59           Si  tau(  59) = (   0.1633880   0.4247170   0.9574620  )
        60           Si  tau(  60) = (   0.6660830   0.9344490   0.8708380  )
        61           Si  tau(  61) = (   0.6297290   0.3281040   0.0990238  )
        62           Si  tau(  62) = (   0.3375100   0.6009910   0.1493750  )
        63           Si  tau(  63) = (   0.4964950   0.0192013   0.2290590  )
        64           Si  tau(  64) = (   0.4697210   0.7245850   0.6406560  )

     number of k points=     1  Fermi-Dirac smearing, width (Ry)=  0.0100
                       cart. coord. in units 2pi/alat
        k(    1) = (   0.0000000   0.0000000   0.0000000), wk =   2.0000000

     Dense  grid:    90042 G-vectors     FFT dimensions: (  72,  72,  72)

     Estimated max dynamical RAM per process >     144.59 MB

     Estimated total dynamical RAM >     556.39 MB

     Initial potential from superposition of free atoms

     starting charge     255.9608, renormalised to     256.0000
     Starting wfcs are  256 randomized atomic wfcs

     total cpu time spent up to now is        4.2 secs

     Self-consistent Calculation

     iteration #  1     ecut=    30.00 Ry     beta= 0.50
     Davidson diagonalization with overlap
     ethr =  1.00E-02,  avg # of iterations =  3.0

     Threshold (ethr) on eigenvalues was too large:
     Diagonalizing with lowered threshold

     Davidson diagonalization with overlap
     ethr =  4.29E-04,  avg # of iterations =  4.0

     total cpu time spent up to now is        4.4 secs

     total energy              =    -501.20813318 Ry
     estimated scf accuracy    <       1.29535465 Ry

     iteration #  2     ecut=    30.00 Ry     beta= 0.50
     Davidson diagonalization with overlap
     ethr =  5.06E-04,  avg # of iterations =  5.0

     total cpu time spent up to now is        4.5 secs

     total energy              =    -500.72986492 Ry
     estimated scf accuracy    <       5.92277440 Ry

     iteration #  3     ecut=    30.00 Ry     beta= 0.50
     Davidson diagonalization with overlap
     ethr =  5.06E-04,  avg # of iterations =  5.0

     total cpu time spent up to now is        4.6 secs

     total energy              =    -501.28790956 Ry
     estimated scf accuracy    <       2.24990569 Ry

     iteration #  4     ecut=    30.00 Ry     beta= 0.50
     Davidson diagonalization with overlap
     ethr =  5.06E-04,  avg # of iterations =  2.0

     total cpu time spent up to now is        4.7 secs

     total energy              =    -501.43811670 Ry
     estimated scf accuracy    <       0.67892423 Ry

     iteration #  5     ecut=    30.00 Ry     beta= 0.50
     Davidson diagonalization with overlap
     ethr =  2.65E-04,  avg # of iterations =  2.0

     total cpu time spent up to now is        4.8 secs

     total energy              =    -501.47235441 Ry
     estimated scf accuracy    <       0.47659386 Ry

     iteration #  6     ecut=    30.00 Ry     beta= 0.50
     Davidson diagonalization with overlap
     ethr =  1.86E-04,  avg # of iterations =  2.0

     total cpu time spent up to now is        4.8 secs

     total energy              =    -501.51647866 Ry
     estimated scf accuracy    <       0.10697428 Ry

     iteration #  7     ecut=    30.00 Ry     beta= 0.50
     Davidson diagonalization with overlap
     ethr =  4.18E-05,  avg # of iterations =  2.0

     total cpu time spent up to now is        4.9 secs

     total energy              =    -501.52852059 Ry
     estimated scf accuracy    <       0.01078446 Ry

     iteration #  8     ecut=    30.00 Ry     beta= 0.50
     Davidson diagonalization with overlap
     ethr =  4.21E-06,  avg # of iterations = 14.0

     total cpu time spent up to now is        5.1 secs

     total energy              =    -501.52906201 Ry
     estimated scf accuracy    <       0.02328467 Ry

     iteration #  9     ecut=    30.00 Ry     beta= 0.50
     Davidson diagonalization with overlap
     ethr =  4.21E-06,  avg # of iterations =  3.0

     total cpu time spent up to now is        5.2 secs

     total energy              =    -501.53114552 Ry
     estimated scf accuracy    <       0.00245091 Ry

     iteration # 10     ecut=    30.00 Ry     beta= 0.50
     Davidson diagonalization with overlap
     ethr =  9.57E-07,  avg # of iterations =  2.0

     total cpu time spent up to now is        5.3 secs

     total energy              =    -501.53137710 Ry
     estimated scf accuracy    <       0.00084932 Ry

     iteration # 11     ecut=    30.00 Ry     beta= 0.50
     Davidson diagonalization with overlap
     ethr =  3.32E-07,  avg # of iterations =  3.0

     total cpu time spent up to now is        5.4 secs

     total energy              =    -501.53141012 Ry
     estimated scf accuracy    <       0.00079628 Ry

     iteration # 12     ecut=    30.00 Ry     beta= 0.50
     Davidson diagonalization with overlap
     ethr =  3.11E-07,  avg # of iterations =  2.0

     total cpu time spent up to now is        5.5 secs

     total energy              =    -501.53147507 Ry
     estimated scf accuracy    <       0.00025172 Ry

     iteration # 13     ecut=    30.00 Ry     beta= 0.50
     Davidson diagonalization with overlap
     ethr =  9.83E-08,  avg # of iterations =  4.0

     total cpu time spent up to now is        5.6 secs

     total energy              =    -501.53149030 Ry
     estimated scf accuracy    <       0.00025905 Ry

     iteration # 14     ecut=    30.00 Ry     beta= 0.50
     Davidson diagonalization with overlap
     ethr =  9.83E-08,  avg # of iterations =  2.0

     total cpu time spent up to now is        5.6 secs

     total energy              =    -501.53150880 Ry
     estimated scf accuracy    <       0.00000931 Ry

     iteration # 15     ecut=    30.00 Ry     beta= 0.50
     Davidson diagonalization with overlap
     ethr =  3.64E-09,  avg # of iterations =  5.0

     total cpu time spent up to now is        5.8 secs

     total energy              =    -501.53150912 Ry
     estimated scf accuracy    <       0.00002608 Ry

     iteration # 16     ecut=    30.00 Ry     beta= 0.50
     Davidson diagonalization with overlap
     ethr =  3.64E-09,  avg # of iterations =  4.0

     total cpu time spent up to now is        5.9 secs

     total energy              =    -501.53151108 Ry
     estimated scf accuracy    <       0.00001775 Ry

     iteration # 17     ecut=    30.00 Ry     beta= 0.50
     Davidson diagonalization with overlap
     ethr =  3.64E-09,  avg # of iterations =  2.0

     total cpu time spent up to now is        5.9 secs

     total energy              =    -501.53151212 Ry
     estimated scf accuracy    <       0.00000442 Ry

     iteration # 18     ecut=    30.00 Ry     beta= 0.50
     Davidson diagonalization with overlap
     ethr =  1.73E-09,  avg # of iterations =  2.0

     total cpu time spent up to now is        6.0 secs

     total energy              =    -501.53151245 Ry
     estimated scf accuracy    <       0.00000306 Ry

     iteration # 19     ecut=    30.00 Ry     beta= 0.50
     Davidson diagonalization with overlap
     ethr =  1.20E-09,  avg # of iterations =  1.0

     total cpu time spent up to now is        6.1 secs

     End of self-consistent calculation

          k = 0.0000 0.0000 0.0000 ( 11288 PWs)   bands (ev):

    -5.3315  -4.3630  -4.3366  -4.1167  -4.0824  -4.0632  -3.9270  -3.3212
    -3.2467  -3.1570  -3.1198  -3.0363  -2.9034  -2.8077  -2.7659  -2.7468
    -2.6665  -2.5711  -2.4712  -2.0706  -1.9509  -1.8829  -1.8415  -1.5904
    -1.4168  -1.3866  -1.3142  -0.8019  -0.7229  -0.6431  -0.5487  -0.3160
    -0.2387  -0.1605  -0.0304   0.1233   0.1918   0.2646   0.2919   0.3055
     0.3645   0.4883   0.5427   0.6953   0.7121   0.7700   0.8777   0.9615
     1.0847   1.1797   1.3219   1.3880   1.4826   1.5640   1.6430   1.6999
     1.7273   1.8743   2.0680   2.1416   2.2626   2.2700   2.3349   2.4370
     2.4867   2.5526   2.5580   2.6442   2.7282   2.9027   3.0044   3.0856
     3.1311   3.2166   3.2818   3.3957   3.4674   3.5246   3.6278   3.7250
     3.9967   4.1785   4.3270   4.3714   4.5456   4.6371   4.6714   4.7474
     4.7644   4.8040   4.8908   5.0094   5.1111   5.1657   5.1922   5.2555
     5.2659   5.3318   5.3974   5.4427   5.5539   5.6162   5.6340   5.6905
     5.7398   5.8204   5.8334   5.9133   6.0105   6.0289   6.1254   6.1754
     6.2766   6.3296   6.3932   6.4739   6.5032   6.6209   6.6459   6.6811
     6.7382   6.7794   6.8516   6.8697   7.0004   7.0918   7.1075   7.1804
     7.3083   7.3247   7.4142   7.4546   7.4916   7.5510   7.6526   7.7235
     7.7351   7.7770   7.8306   7.8818   7.9352   8.0695   8.1409   8.1780
     8.2308   8.2540   8.3418   8.3572   8.4267   8.5077   8.5833   8.6107
     8.7118   8.7183

     the Fermi energy is     7.2266 ev

!    total energy              =    -501.53151260 Ry
     estimated scf accuracy    <       0.00000013 Ry
     smearing contrib. (-TS)   =      -0.13910162 Ry
     internal energy E=F+TS    =    -501.39241098 Ry

     The total energy is F=E-TS. E is the sum of the following terms:
     one-electron contribution =     190.73512688 Ry
     hartree contribution      =      23.27891112 Ry
     xc contribution           =    -150.89356638 Ry
     ewald contribution        =    -564.51288260 Ry

     convergence has been achieved in  19 iterations

     Forces acting on atoms (cartesian axes, Ry/au):

     atom    1 type  1   force =     0.02657365    0.00917758   -0.01609824
     atom    2 type  1   force =     0.08089864   -0.04799034   -0.01183698
     atom    3 type  1   force =    -0.00392451   -0.01528494   -0.03302540
     atom    4 type  1   force =     0.02170710    0.00393666    0.00272194
     atom    5 type  1   force =    -0.00973297    0.00530184   -0.00080328
     atom    6 type  1   force =     0.01965253   -0.01601486   -0.01234497
     atom    7 type  1   force =    -0.00202850   -0.00438528   -0.00942249
     atom    8 type  1   force =     0.00395387   -0.01862080   -0.04071337
     atom    9 type  1   force =    -0.00349706   -0.00388837    0.03720051
     atom   10 type  1   force =    -0.02591316    0.03998752    0.04263845
     atom   11 type  1   force =     0.00127630    0.00214903    0.01053941
     atom   12 type  1   force =     0.02121206   -0.01838778    0.00369892
     atom   13 type  1   force =     0.02954674   -0.00843077    0.00251887
     atom   14 type  1   force =     0.00601458    0.01749618    0.03627071
     atom   15 type  1   force =    -0.00459250    0.00078061   -0.00943200
     atom   16 type  1   force =    -0.02438912   -0.00344865   -0.04058054
     atom   17 type  1   force =     0.02765116   -0.02020695   -0.01076995
     atom   18 type  1   force =    -0.03463403   -0.00283750   -0.00914495
     atom   19 type  1   force =    -0.01497788    0.03845432    0.00030774
     atom   20 type  1   force =     0.00457216   -0.01149355   -0.01051631
     atom   21 type  1   force =    -0.02756481    0.00407124   -0.02386568
     atom   22 type  1   force =     0.00802664   -0.01048928   -0.01452996
     atom   23 type  1   force =    -0.00439829    0.02885686   -0.00687117
     atom   24 type  1   force =    -0.00937927   -0.01932534   -0.01765720
     atom   25 type  1   force =     0.05898924    0.09177563   -0.00697185
     atom   26 type  1   force =    -0.00625800    0.01181853   -0.02935614
     atom   27 type  1   force =    -0.00252406   -0.01291983    0.01128508
     atom   28 type  1   force =    -0.02456947   -0.00789030    0.00905691
     atom   29 type  1   force =     0.01543723    0.00976942   -0.03263511
     atom   30 type  1   force =    -0.02625343   -0.06329802   -0.01206086
     atom   31 type  1   force =    -0.02178469    0.03015921   -0.02338549
     atom   32 type  1   force =    -0.00639302   -0.04565665    0.03928231
     atom   33 type  1   force =     0.00159954    0.02732606    0.01203687
     atom   34 type  1   force =    -0.00463147   -0.02108518   -0.01533102
     atom   35 type  1   force =     0.01056521    0.00854601   -0.00123702
     atom   36 type  1   force =    -0.02841240   -0.02703488    0.01693445
     atom   37 type  1   force =    -0.07253933    0.04746666    0.02154853
     atom   38 type  1   force =    -0.04203049   -0.02419804   -0.00330039
     atom   39 type  1   force =     0.01016019   -0.00275553    0.02543395
     atom   40 type  1   force =    -0.01714950   -0.00277259    0.01434587
     atom   41 type  1   force =    -0.00325971   -0.01813921   -0.00558352
     atom   42 type  1   force =     0.04384248   -0.01556548    0.01090199
     atom   43 type  1   force =     0.00244319    0.00715362   -0.00504908
     atom   44 type  1   force =    -0.00156348    0.00654241    0.01827734
     atom   45 type  1   force =    -0.01086597   -0.01921671   -0.02832694
     atom   46 type  1   force =     0.01034955    0.02065730    0.00581032
     atom   47 type  1   force =    -0.01109398   -0.03330365    0.01823501
     atom   48 type  1   force =     0.03809142   -0.00649243    0.01935725
     atom   49 type  1   force =    -0.01773368    0.02036881   -0.00735583
     atom   50 type  1   force =    -0.02903128   -0.02300137   -0.00858392
     atom   51 type  1   force =    -0.02224481    0.00516275    0.00282955
     atom   52 type  1   force =     0.01810794   -0.00632023    0.01099005
     atom   53 type  1   force =    -0.01139850    0.00322928    0.01316238
     atom   54 type  1   force =    -0.01031146    0.02765426    0.00864314
     atom   55 type  1   force =     0.00311890   -0.02060324    0.02147943
     atom   56 type  1   force =     0.04408720    0.03201193   -0.00506817
     atom   57 type  1   force =    -0.01265238   -0.00766258    0.01463102
     atom   58 type  1   force =     0.01393183    0.00977725    0.00825248
     atom   59 type  1   force =     0.01385869   -0.00840337    0.00299571
     atom   60 type  1   force =     0.02658163    0.05202573    0.05170450
     atom   61 type  1   force =     0.00631682   -0.00447744    0.00869685
     atom   62 type  1   force =    -0.01825625   -0.00809023   -0.01262719
     atom   63 type  1   force =    -0.00962717    0.00875256   -0.01652428
     atom   64 type  1   force =     0.00705009    0.00928210   -0.02077829

     Total force =     0.317825     Total SCF correction =     0.000624


     Computing stress (Cartesian axis) and pressure

          total   stress  (Ry/bohr**3)                   (kbar)     P=      -34.56
  -0.00023221   0.00002695   0.00001798          -34.16        3.97        2.65
   0.00002695  -0.00016584   0.00000823            3.97      -24.40        1.21
   0.00001798   0.00000823  -0.00030684            2.65        1.21      -45.14

 
     init_run     :      0.92s CPU      4.10s WALL (       1 calls)
     electrons    :      1.72s CPU      1.93s WALL (       1 calls)
     forces       :      0.03s CPU      0.03s WALL (       1 calls)
     stress       :      0.14s CPU      0.14s WALL (       1 calls)

     Called by init_run:
     wfcinit      :      0.42s CPU      3.45s WALL (       1 calls)
                                        3.45s GPU  (       1 calls)
     potinit      :      0.04s CPU      0.11s WALL (       1 calls)
     hinit0       :      0.45s CPU      0.47s WALL (       1 calls)

     Called by electrons:
     c_bands      :      1.13s CPU      1.26s WALL (      20 calls)
     sum_band     :      0.30s CPU      0.35s WALL (      20 calls)
     v_of_rho     :      0.13s CPU      0.21s WALL (      20 calls)
     mix_rho      :      0.14s CPU      0.15s WALL (      20 calls)

     Called by c_bands:
     init_us_2    :      0.05s CPU      0.05s WALL (      41 calls)
     init_us_2:gp :      0.05s CPU      0.05s WALL (      41 calls)
     regterg      :      0.97s CPU      1.09s WALL (      20 calls)

     Called by *egterg:
     rdiaghg      :      0.42s CPU      1.07s WALL (      88 calls)
                                        1.05s GPU  (      88 calls)
     h_psi        :      0.80s CPU      3.27s WALL (      90 calls)
                                        3.26s GPU  (      90 calls)
     g_psi        :      0.00s CPU      0.00s WALL (      69 calls)
                                        0.00s GPU  (      69 calls)

     Called by h_psi:
     h_psi:calbec :      0.40s CPU      2.78s WALL (      90 calls)
                                        2.78s GPU  (      90 calls)
     vloc_psi     :      0.36s CPU      0.43s WALL (      90 calls)
                                        0.42s GPU  (      90 calls)
     add_vuspsi   :      0.03s CPU      0.05s WALL (      90 calls)
                                        0.05s GPU  (      90 calls)

     General routines
     calbec       :      0.40s CPU      2.79s WALL (      95 calls)
     fft          :      0.54s CPU      0.65s WALL (     167 calls)
                                        0.11s GPU  (     106 calls)
     ffts         :      0.03s CPU      0.03s WALL (      20 calls)
     fftw         :      0.45s CPU      0.58s WALL (    2108 calls)
                                        0.51s GPU  (    2108 calls)
 
     Parallel routines
 
     PWSCF        :      2.84s CPU      6.27s WALL

 
   This run was terminated on:  10:46:48  10May2023            

=------------------------------------------------------------------------------=
   JOB DONE.
=------------------------------------------------------------------------------=
