An instance of this daemon is already running
An instance of this daemon is already running

     Program PWSCF v.7.1 starts on 10May2023 at 10:45:13 

     This program is part of the open-source Quantum ESPRESSO suite
     for quantum simulation of materials; please cite
         "P. Giannozzi et al., J. Phys.:Condens. Matter 21 395502 (2009);
         "P. Giannozzi et al., J. Phys.:Condens. Matter 29 465901 (2017);
         "P. Giannozzi et al., J. Chem. Phys. 152 154105 (2020);
          URL http://www.quantum-espresso.org", 
     in publications or presentations arising from this work. More details at
     http://www.quantum-espresso.org/quote

     Parallel version (MPI & OpenMP), running on       4 processor cores
     Number of MPI processes:                 4
     Threads/MPI process:                     1

     MPI processes distributed on     1 nodes
     153216 MiB available memory on the printing compute node when the environment starts
 
     Reading input from pw-si-31.in
Warning: card &CELL ignored
Warning: card / ignored

     Current dimensions of program PWSCF are:
     Max number of different atomic species (ntypx) = 10
     Max number of k-points (npk) =  40000
     Max angular momentum in pseudopotentials (lmaxx) =  4

     IMPORTANT: XC functional enforced from input :
     Exchange-correlation= PBE
                           (   1   4   3   4   0   0   0)
     Any further DFT definition will be discarded
     Please, verify this is what you really want


     gamma-point specific algorithms are used
 
     K-points division:     npool     =       2
     R & G space division:  proc/nbgrp/npool/nimage =       2
     Subspace diagonalization in iterative solution of the eigenvalue problem:
     a serial algorithm will be used

     Message from routine divide_et_impera:
     suboptimal parallelization: some nodes have no k-points
 
     Parallelization info
     --------------------
     sticks:   dense  smooth     PW     G-vecs:    dense   smooth      PW
     Min        1946    1946    516                91133    91133   12416
     Max        1947    1947    517                91134    91134   12421
     Sum        3893    3893   1033               182267   182267   24837
 
     Using Slab Decomposition
 


     bravais-lattice index     =            0
     lattice parameter (alat)  =      20.1746  a.u.
     unit-cell volume          =    8211.3836 (a.u.)^3
     number of atoms/cell      =           64
     number of atomic types    =            1
     number of electrons       =       256.00
     number of Kohn-Sham states=          154
     kinetic-energy cutoff     =      30.0000  Ry
     charge density cutoff     =     120.0000  Ry
     scf convergence threshold =      1.0E-06
     mixing beta               =       0.5000
     number of iterations used =            8  plain     mixing
     Exchange-correlation= PBE
                           (   1   4   3   4   0   0   0)

     GPU acceleration is ACTIVE.
     GPU-aware MPI enabled

     Message from routine print_cuda_info:
     High GPU oversubscription detected. Are you sure this is what you want?

     celldm(1)=  20.174624  celldm(2)=   0.000000  celldm(3)=   0.000000
     celldm(4)=   0.000000  celldm(5)=   0.000000  celldm(6)=   0.000000

     crystal axes: (cart. coord. in units of alat)
               a(1) = (   1.000000   0.000000   0.000000 )  
               a(2) = (   0.000000   1.000000   0.000000 )  
               a(3) = (   0.000000   0.000000   1.000000 )  

     reciprocal axes: (cart. coord. in units 2 pi/alat)
               b(1) = (  1.000000  0.000000  0.000000 )  
               b(2) = (  0.000000  1.000000  0.000000 )  
               b(3) = (  0.000000  0.000000  1.000000 )  


     PseudoPot. # 1 for Si read from file:
     /home/ppiaggi/pseudos/Si_ONCV_PBE_sr.upf
     MD5 check sum: 8553c464762ac42b85b1eed164b4d029
     Pseudo is Norm-conserving, Zval =  4.0
     Generated using ONCVPSP code by D. R. Hamann
     Using radial grid of 1510 points,  4 beta functions with: 
                l(1) =   0
                l(2) =   0
                l(3) =   1
                l(4) =   1

     atomic species   valence    mass     pseudopotential
        Si             4.00    28.08500     Si( 1.00)

     No symmetry found



   Cartesian axes

     site n.     atom                  positions (alat units)
         1           Si  tau(   1) = (   0.4409820   0.0747750   0.8092450  )
         2           Si  tau(   2) = (   0.2411490   0.5386290   0.4413500  )
         3           Si  tau(   3) = (   0.3151880   0.7973740   0.8457740  )
         4           Si  tau(   4) = (   0.6213680   0.0205715   0.2814420  )
         5           Si  tau(   5) = (   0.6035630   0.0368778   0.0274355  )
         6           Si  tau(   6) = (   0.8441360   0.2811450   0.0890453  )
         7           Si  tau(   7) = (   0.7467490   0.8326160   0.0649226  )
         8           Si  tau(   8) = (   0.7785500   0.3009780   0.4976200  )
         9           Si  tau(   9) = (   0.5489800   0.8238850   0.2962950  )
        10           Si  tau(  10) = (   0.8177110   0.1220000   0.2173840  )
        11           Si  tau(  11) = (   0.4847870   0.7091190   0.1054060  )
        12           Si  tau(  12) = (   0.8795060   0.5242990   0.3289450  )
        13           Si  tau(  13) = (   0.8381380   0.1614300   0.8446360  )
        14           Si  tau(  14) = (   0.1442290   0.0263516   0.6450160  )
        15           Si  tau(  15) = (   0.0152246   0.0413873   0.3087720  )
        16           Si  tau(  16) = (   0.0903830   0.3526860   0.4016450  )
        17           Si  tau(  17) = (   0.0691068   0.2375290   0.0970033  )
        18           Si  tau(  18) = (   0.4946410   0.7255000   0.6485460  )
        19           Si  tau(  19) = (   0.3302890   0.0718943   0.1411680  )
        20           Si  tau(  20) = (   0.4170340   0.2191920   0.5088600  )
        21           Si  tau(  21) = (   0.2119020   0.1932720   0.3017690  )
        22           Si  tau(  22) = (   0.7515490   0.5268940   0.9025890  )
        23           Si  tau(  23) = (   0.3747200   0.3210370   0.8705870  )
        24           Si  tau(  24) = (   0.9650700   0.1658700   0.4879560  )
        25           Si  tau(  25) = (   0.5143070   0.2437900   0.0801018  )
        26           Si  tau(  26) = (   0.0673370   0.6699470   0.8361210  )
        27           Si  tau(  27) = (   0.0484415   0.4853240   0.6723480  )
        28           Si  tau(  28) = (   0.1161880   0.9791870   0.0646589  )
        29           Si  tau(  29) = (   0.3830110   0.4060810   0.6601150  )
        30           Si  tau(  30) = (   0.6705040   0.7211020   0.7830950  )
        31           Si  tau(  31) = (   0.9030240   0.8162740   0.8612400  )
        32           Si  tau(  32) = (   0.2644270   0.6380290   0.6265410  )
        33           Si  tau(  33) = (   0.4505920   0.4615410   0.1972370  )
        34           Si  tau(  34) = (   0.8958370   0.0104196   0.0028247  )
        35           Si  tau(  35) = (   0.9713690   0.4994730   0.9726230  )
        36           Si  tau(  36) = (   0.6051030   0.6745480   0.4541380  )
        37           Si  tau(  37) = (   0.6896920   0.0250029   0.5258510  )
        38           Si  tau(  38) = (   0.2832420   0.6529380   0.0357761  )
        39           Si  tau(  39) = (   0.0590523   0.8189380   0.3693730  )
        40           Si  tau(  40) = (   0.6595550   0.5865210   0.1209800  )
        41           Si  tau(  41) = (   0.6050380   0.2377670   0.6726870  )
        42           Si  tau(  42) = (   0.5643700   0.2313720   0.3591990  )
        43           Si  tau(  43) = (   0.4551040   0.4865200   0.4159820  )
        44           Si  tau(  44) = (   0.1795340   0.2074640   0.8991030  )
        45           Si  tau(  45) = (   0.8724620   0.5254400   0.5476130  )
        46           Si  tau(  46) = (   0.6571530   0.3144190   0.8993420  )
        47           Si  tau(  47) = (   0.3302180   0.0025967   0.5021290  )
        48           Si  tau(  48) = (   0.3414320   0.8950670   0.3140160  )
        49           Si  tau(  49) = (   0.8405610   0.7307840   0.2548230  )
        50           Si  tau(  50) = (   0.8659660   0.7297910   0.6356210  )
        51           Si  tau(  51) = (   0.0669747   0.8041690   0.5940660  )
        52           Si  tau(  52) = (   0.7876900   0.8284440   0.4480580  )
        53           Si  tau(  53) = (   0.2223780   0.6914920   0.2744000  )
        54           Si  tau(  54) = (   0.1737480   0.2727450   0.6192490  )
        55           Si  tau(  55) = (   0.6471090   0.4828070   0.6354940  )
        56           Si  tau(  56) = (   0.0329664   0.7475160   0.1031550  )
        57           Si  tau(  57) = (   0.2212570   0.9979820   0.8435600  )
        58           Si  tau(  58) = (   0.0625474   0.5014450   0.2062530  )
        59           Si  tau(  59) = (   0.0158223   0.3066340   0.8180180  )
        60           Si  tau(  60) = (   0.5107000   0.9646450   0.6322080  )
        61           Si  tau(  61) = (   0.2671260   0.4328630   0.0602881  )
        62           Si  tau(  62) = (   0.5116520   0.8486470   0.9254890  )
        63           Si  tau(  63) = (   0.7095420   0.4080150   0.2585590  )
        64           Si  tau(  64) = (   0.8842440   0.0158636   0.6721460  )

     number of k points=     1  Fermi-Dirac smearing, width (Ry)=  0.0100
                       cart. coord. in units 2pi/alat
        k(    1) = (   0.0000000   0.0000000   0.0000000), wk =   2.0000000

     Dense  grid:    91134 G-vectors     FFT dimensions: (  72,  72,  72)

     Estimated max dynamical RAM per process >     146.21 MB

     Estimated total dynamical RAM >     562.59 MB

     Initial potential from superposition of free atoms

     starting charge     255.9608, renormalised to     256.0000
     Starting wfcs are  256 randomized atomic wfcs

     total cpu time spent up to now is        4.1 secs

     Self-consistent Calculation

     iteration #  1     ecut=    30.00 Ry     beta= 0.50
     Davidson diagonalization with overlap
     ethr =  1.00E-02,  avg # of iterations =  3.0

     Threshold (ethr) on eigenvalues was too large:
     Diagonalizing with lowered threshold

     Davidson diagonalization with overlap
     ethr =  4.12E-04,  avg # of iterations =  4.0

     total cpu time spent up to now is        4.3 secs

     total energy              =    -501.32657090 Ry
     estimated scf accuracy    <       1.25573097 Ry

     iteration #  2     ecut=    30.00 Ry     beta= 0.50
     Davidson diagonalization with overlap
     ethr =  4.91E-04,  avg # of iterations =  4.0

     total cpu time spent up to now is        4.4 secs

     total energy              =    -500.96454318 Ry
     estimated scf accuracy    <       3.90164058 Ry

     iteration #  3     ecut=    30.00 Ry     beta= 0.50
     Davidson diagonalization with overlap
     ethr =  4.91E-04,  avg # of iterations =  3.0

     total cpu time spent up to now is        4.5 secs

     total energy              =    -501.33119551 Ry
     estimated scf accuracy    <       2.38279368 Ry

     iteration #  4     ecut=    30.00 Ry     beta= 0.50
     Davidson diagonalization with overlap
     ethr =  4.91E-04,  avg # of iterations =  2.0

     total cpu time spent up to now is        4.6 secs

     total energy              =    -501.47379613 Ry
     estimated scf accuracy    <       0.89294358 Ry

     iteration #  5     ecut=    30.00 Ry     beta= 0.50
     Davidson diagonalization with overlap
     ethr =  3.49E-04,  avg # of iterations =  2.0

     total cpu time spent up to now is        4.7 secs

     total energy              =    -501.51741933 Ry
     estimated scf accuracy    <       0.64395138 Ry

     iteration #  6     ecut=    30.00 Ry     beta= 0.50
     Davidson diagonalization with overlap
     ethr =  2.52E-04,  avg # of iterations =  2.0

     total cpu time spent up to now is        4.7 secs

     total energy              =    -501.57219239 Ry
     estimated scf accuracy    <       0.07441060 Ry

     iteration #  7     ecut=    30.00 Ry     beta= 0.50
     Davidson diagonalization with overlap
     ethr =  2.91E-05,  avg # of iterations = 10.0

     total cpu time spent up to now is        4.9 secs

     total energy              =    -501.58224409 Ry
     estimated scf accuracy    <       0.02806082 Ry

     iteration #  8     ecut=    30.00 Ry     beta= 0.50
     Davidson diagonalization with overlap
     ethr =  1.10E-05,  avg # of iterations =  3.0

     total cpu time spent up to now is        5.0 secs

     total energy              =    -501.58525364 Ry
     estimated scf accuracy    <       0.01797909 Ry

     iteration #  9     ecut=    30.00 Ry     beta= 0.50
     Davidson diagonalization with overlap
     ethr =  7.02E-06,  avg # of iterations =  2.0

     total cpu time spent up to now is        5.0 secs

     total energy              =    -501.58661612 Ry
     estimated scf accuracy    <       0.00254081 Ry

     iteration # 10     ecut=    30.00 Ry     beta= 0.50
     Davidson diagonalization with overlap
     ethr =  9.93E-07,  avg # of iterations =  9.0

     total cpu time spent up to now is        5.2 secs

     total energy              =    -501.58679303 Ry
     estimated scf accuracy    <       0.00401589 Ry

     iteration # 11     ecut=    30.00 Ry     beta= 0.50
     Davidson diagonalization with overlap
     ethr =  9.93E-07,  avg # of iterations =  2.0

     total cpu time spent up to now is        5.3 secs

     total energy              =    -501.58710174 Ry
     estimated scf accuracy    <       0.00024927 Ry

     iteration # 12     ecut=    30.00 Ry     beta= 0.50
     Davidson diagonalization with overlap
     ethr =  9.74E-08,  avg # of iterations =  5.0

     total cpu time spent up to now is        5.4 secs

     total energy              =    -501.58713027 Ry
     estimated scf accuracy    <       0.00030793 Ry

     iteration # 13     ecut=    30.00 Ry     beta= 0.50
     Davidson diagonalization with overlap
     ethr =  9.74E-08,  avg # of iterations =  3.0

     total cpu time spent up to now is        5.5 secs

     total energy              =    -501.58715286 Ry
     estimated scf accuracy    <       0.00028426 Ry

     iteration # 14     ecut=    30.00 Ry     beta= 0.50
     Davidson diagonalization with overlap
     ethr =  9.74E-08,  avg # of iterations =  1.0

     total cpu time spent up to now is        5.5 secs

     total energy              =    -501.58716972 Ry
     estimated scf accuracy    <       0.00002935 Ry

     iteration # 15     ecut=    30.00 Ry     beta= 0.50
     Davidson diagonalization with overlap
     ethr =  1.15E-08,  avg # of iterations =  3.0

     total cpu time spent up to now is        5.6 secs

     total energy              =    -501.58717361 Ry
     estimated scf accuracy    <       0.00002406 Ry

     iteration # 16     ecut=    30.00 Ry     beta= 0.50
     Davidson diagonalization with overlap
     ethr =  9.40E-09,  avg # of iterations =  2.0

     total cpu time spent up to now is        5.7 secs

     total energy              =    -501.58717552 Ry
     estimated scf accuracy    <       0.00000356 Ry

     iteration # 17     ecut=    30.00 Ry     beta= 0.50
     Davidson diagonalization with overlap
     ethr =  1.39E-09,  avg # of iterations =  3.0

     total cpu time spent up to now is        5.8 secs

     total energy              =    -501.58717586 Ry
     estimated scf accuracy    <       0.00000256 Ry

     iteration # 18     ecut=    30.00 Ry     beta= 0.50
     Davidson diagonalization with overlap
     ethr =  9.99E-10,  avg # of iterations =  3.0

     total cpu time spent up to now is        5.9 secs

     total energy              =    -501.58717595 Ry
     estimated scf accuracy    <       0.00000398 Ry

     iteration # 19     ecut=    30.00 Ry     beta= 0.50
     Davidson diagonalization with overlap
     ethr =  9.99E-10,  avg # of iterations =  2.0

     total cpu time spent up to now is        6.0 secs

     End of self-consistent calculation

          k = 0.0000 0.0000 0.0000 ( 11444 PWs)   bands (ev):

    -5.3978  -4.5039  -4.3437  -4.3308  -4.2077  -4.1297  -3.9284  -3.4643
    -3.3714  -3.3033  -3.1935  -3.0852  -3.0543  -2.9804  -2.9247  -2.8950
    -2.7823  -2.6933  -2.4333  -2.2490  -2.1216  -2.0965  -1.9790  -1.8597
    -1.6888  -1.5448  -1.4460  -1.0705  -0.9994  -0.8279  -0.6219  -0.5642
    -0.4256  -0.3367  -0.1841  -0.1297  -0.0091   0.0817   0.1317   0.2205
     0.3059   0.3608   0.4660   0.5488   0.6632   0.7052   0.8158   0.8805
     0.9471   0.9666   1.0195   1.1689   1.1902   1.2564   1.4166   1.5604
     1.7084   1.7417   1.8058   1.8794   2.0063   2.1259   2.2793   2.3665
     2.5065   2.6387   2.6443   2.7558   2.7890   2.8142   2.8754   2.9320
     3.0518   3.0848   3.1888   3.2277   3.2684   3.3894   3.4888   3.6767
     3.7594   3.9567   4.0235   4.2226   4.2587   4.3038   4.5016   4.5929
     4.6526   4.7331   4.7806   4.8365   4.9159   4.9561   5.0460   5.1138
     5.1621   5.1929   5.2185   5.2914   5.3141   5.3971   5.4383   5.4995
     5.5924   5.6312   5.7153   5.7871   5.8414   5.9382   5.9539   5.9919
     6.0843   6.1562   6.1648   6.2606   6.3104   6.4647   6.5092   6.5587
     6.5717   6.6564   6.6952   6.7511   6.8196   6.8450   6.9388   6.9822
     7.0501   7.1537   7.1743   7.2235   7.2888   7.3096   7.3637   7.5219
     7.5671   7.5955   7.7073   7.7419   7.8281   7.8629   7.9768   8.0556
     8.1099   8.1578   8.2492   8.2730   8.3225   8.3730   8.4816   8.5250
     8.5833   8.5909

     the Fermi energy is     7.0237 ev

!    total energy              =    -501.58717559 Ry
     estimated scf accuracy    <       0.00000071 Ry
     smearing contrib. (-TS)   =      -0.15025697 Ry
     internal energy E=F+TS    =    -501.43691862 Ry

     The total energy is F=E-TS. E is the sum of the following terms:
     one-electron contribution =     184.71031455 Ry
     hartree contribution      =      24.89777221 Ry
     xc contribution           =    -150.91795373 Ry
     ewald contribution        =    -560.12705164 Ry

     convergence has been achieved in  19 iterations

     Forces acting on atoms (cartesian axes, Ry/au):

     atom    1 type  1   force =     0.01149360    0.00811986    0.03855259
     atom    2 type  1   force =    -0.01280021   -0.01933622   -0.05079975
     atom    3 type  1   force =    -0.03097778   -0.03584280   -0.01231151
     atom    4 type  1   force =     0.04902173    0.06432193   -0.00422705
     atom    5 type  1   force =    -0.01465984   -0.02682247   -0.00849626
     atom    6 type  1   force =    -0.00029702    0.06303326   -0.03546941
     atom    7 type  1   force =     0.00399495    0.01403440   -0.00908480
     atom    8 type  1   force =    -0.03353237   -0.01733713    0.00115130
     atom    9 type  1   force =    -0.03960094   -0.05081850   -0.01418942
     atom   10 type  1   force =     0.00041823   -0.08240511    0.03502985
     atom   11 type  1   force =     0.01145269    0.01733161    0.01211438
     atom   12 type  1   force =     0.00348868    0.02131245    0.01525093
     atom   13 type  1   force =    -0.00002339    0.00772733   -0.00228444
     atom   14 type  1   force =    -0.00777544   -0.01107109   -0.04790332
     atom   15 type  1   force =     0.02708793    0.00884953    0.00587859
     atom   16 type  1   force =     0.02245303    0.02495121    0.01618399
     atom   17 type  1   force =     0.02696540   -0.00918704    0.02093159
     atom   18 type  1   force =    -0.01504950    0.02402466   -0.03223966
     atom   19 type  1   force =    -0.01057997   -0.01103055    0.02653321
     atom   20 type  1   force =    -0.04928668    0.01023017    0.03377157
     atom   21 type  1   force =    -0.02338279   -0.02913818   -0.03643996
     atom   22 type  1   force =    -0.02620417    0.01191245    0.01837315
     atom   23 type  1   force =    -0.00288995   -0.02390050    0.04050883
     atom   24 type  1   force =    -0.00244871   -0.00033147    0.02118011
     atom   25 type  1   force =    -0.03068129    0.01286113   -0.02379085
     atom   26 type  1   force =    -0.00450874   -0.04831261    0.01266716
     atom   27 type  1   force =     0.01763369   -0.00076719    0.02598241
     atom   28 type  1   force =     0.00048451   -0.00116166   -0.02839019
     atom   29 type  1   force =    -0.00714274   -0.00916313   -0.02006108
     atom   30 type  1   force =     0.02479461   -0.02939334    0.03426887
     atom   31 type  1   force =    -0.02130362    0.03896508    0.01371645
     atom   32 type  1   force =    -0.00146754    0.01915425    0.04169782
     atom   33 type  1   force =     0.01370060   -0.00701778   -0.03719563
     atom   34 type  1   force =    -0.00679235    0.00016858   -0.00478827
     atom   35 type  1   force =     0.00170323    0.00370628   -0.02862891
     atom   36 type  1   force =    -0.01313682   -0.02003416    0.01451632
     atom   37 type  1   force =     0.03392850    0.01041290   -0.02342820
     atom   38 type  1   force =    -0.02532126    0.02085477    0.00054261
     atom   39 type  1   force =    -0.03068736    0.02147796   -0.00393479
     atom   40 type  1   force =     0.02492417   -0.02268625   -0.02852919
     atom   41 type  1   force =     0.01144761    0.01590879   -0.00371938
     atom   42 type  1   force =     0.06152035    0.01453924   -0.03270937
     atom   43 type  1   force =     0.02237793   -0.00490863    0.00555855
     atom   44 type  1   force =     0.05433928   -0.01176096    0.04703981
     atom   45 type  1   force =    -0.01069416   -0.02047256    0.01656798
     atom   46 type  1   force =     0.02565509    0.00235827   -0.01033794
     atom   47 type  1   force =    -0.00871965    0.03305311    0.03774463
     atom   48 type  1   force =    -0.00435014    0.00899154   -0.03923196
     atom   49 type  1   force =     0.03538453    0.00292624   -0.02173471
     atom   50 type  1   force =    -0.01577426    0.00791195    0.00573048
     atom   51 type  1   force =     0.03696843    0.01938945   -0.01362225
     atom   52 type  1   force =    -0.02847035    0.00393264    0.02226291
     atom   53 type  1   force =    -0.01986973    0.01636782   -0.02578805
     atom   54 type  1   force =     0.00389217    0.01208814   -0.00348168
     atom   55 type  1   force =    -0.00181996   -0.00773449    0.00115336
     atom   56 type  1   force =     0.00688533   -0.01044944    0.02516031
     atom   57 type  1   force =     0.00586987   -0.01264733    0.03108806
     atom   58 type  1   force =     0.01630060    0.00952742   -0.02384504
     atom   59 type  1   force =    -0.06346577    0.04894111   -0.00592038
     atom   60 type  1   force =    -0.03364495   -0.05441160    0.00573223
     atom   61 type  1   force =     0.00584886   -0.01074772   -0.00319782
     atom   62 type  1   force =     0.05492453    0.01531935    0.02125650
     atom   63 type  1   force =    -0.01288277   -0.02563838   -0.01078885
     atom   64 type  1   force =    -0.00471792   -0.00017659   -0.00157645

     Total force =     0.346019     Total SCF correction =     0.001741


     Computing stress (Cartesian axis) and pressure

          total   stress  (Ry/bohr**3)                   (kbar)     P=      -29.28
  -0.00020620  -0.00008177   0.00003031          -30.33      -12.03        4.46
  -0.00008177  -0.00026328   0.00001868          -12.03      -38.73        2.75
   0.00003031   0.00001868  -0.00012765            4.46        2.75      -18.78

 
     init_run     :      0.92s CPU      4.05s WALL (       1 calls)
     electrons    :      1.70s CPU      1.90s WALL (       1 calls)
     forces       :      0.03s CPU      0.04s WALL (       1 calls)
     stress       :      0.14s CPU      0.14s WALL (       1 calls)

     Called by init_run:
     wfcinit      :      0.41s CPU      3.36s WALL (       1 calls)
                                        3.36s GPU  (       1 calls)
     potinit      :      0.04s CPU      0.15s WALL (       1 calls)
     hinit0       :      0.45s CPU      0.47s WALL (       1 calls)

     Called by electrons:
     c_bands      :      1.09s CPU      1.21s WALL (      20 calls)
     sum_band     :      0.30s CPU      0.37s WALL (      20 calls)
     v_of_rho     :      0.14s CPU      0.25s WALL (      20 calls)
     mix_rho      :      0.14s CPU      0.15s WALL (      20 calls)

     Called by c_bands:
     init_us_2    :      0.05s CPU      0.05s WALL (      41 calls)
     init_us_2:gp :      0.05s CPU      0.05s WALL (      41 calls)
     regterg      :      0.95s CPU      1.05s WALL (      20 calls)

     Called by *egterg:
     rdiaghg      :      0.40s CPU      1.05s WALL (      87 calls)
                                        1.03s GPU  (      87 calls)
     h_psi        :      0.80s CPU      3.18s WALL (      89 calls)
                                        3.18s GPU  (      89 calls)
     g_psi        :      0.00s CPU      0.00s WALL (      68 calls)
                                        0.00s GPU  (      68 calls)

     Called by h_psi:
     h_psi:calbec :      0.39s CPU      2.71s WALL (      89 calls)
                                        2.71s GPU  (      89 calls)
     vloc_psi     :      0.36s CPU      0.42s WALL (      89 calls)
                                        0.42s GPU  (      89 calls)
     add_vuspsi   :      0.04s CPU      0.05s WALL (      89 calls)
                                        0.05s GPU  (      89 calls)

     General routines
     calbec       :      0.39s CPU      2.71s WALL (      94 calls)
     fft          :      0.55s CPU      0.69s WALL (     167 calls)
                                        0.14s GPU  (     106 calls)
     ffts         :      0.03s CPU      0.03s WALL (      20 calls)
     fftw         :      0.44s CPU      0.58s WALL (    2102 calls)
                                        0.51s GPU  (    2102 calls)
 
     Parallel routines
 
     PWSCF        :      2.82s CPU      6.20s WALL

 
   This run was terminated on:  10:45:19  10May2023            

=------------------------------------------------------------------------------=
   JOB DONE.
=------------------------------------------------------------------------------=
