An instance of this daemon is already running
An instance of this daemon is already running

     Program PWSCF v.7.1 starts on 10May2023 at 10:46:16 

     This program is part of the open-source Quantum ESPRESSO suite
     for quantum simulation of materials; please cite
         "P. Giannozzi et al., J. Phys.:Condens. Matter 21 395502 (2009);
         "P. Giannozzi et al., J. Phys.:Condens. Matter 29 465901 (2017);
         "P. Giannozzi et al., J. Chem. Phys. 152 154105 (2020);
          URL http://www.quantum-espresso.org", 
     in publications or presentations arising from this work. More details at
     http://www.quantum-espresso.org/quote

     Parallel version (MPI & OpenMP), running on       4 processor cores
     Number of MPI processes:                 4
     Threads/MPI process:                     1

     MPI processes distributed on     1 nodes
     153193 MiB available memory on the printing compute node when the environment starts
 
     Reading input from pw-si-38.in
Warning: card &CELL ignored
Warning: card / ignored

     Current dimensions of program PWSCF are:
     Max number of different atomic species (ntypx) = 10
     Max number of k-points (npk) =  40000
     Max angular momentum in pseudopotentials (lmaxx) =  4

     IMPORTANT: XC functional enforced from input :
     Exchange-correlation= PBE
                           (   1   4   3   4   0   0   0)
     Any further DFT definition will be discarded
     Please, verify this is what you really want


     gamma-point specific algorithms are used
 
     K-points division:     npool     =       2
     R & G space division:  proc/nbgrp/npool/nimage =       2
     Subspace diagonalization in iterative solution of the eigenvalue problem:
     a serial algorithm will be used

     Message from routine divide_et_impera:
     suboptimal parallelization: some nodes have no k-points
 
     Parallelization info
     --------------------
     sticks:   dense  smooth     PW     G-vecs:    dense   smooth      PW
     Min        1968    1968    520                92591    92591   12632
     Max        1969    1969    521                92592    92592   12637
     Sum        3937    3937   1041               185183   185183   25269
 
     Using Slab Decomposition
 


     bravais-lattice index     =            0
     lattice parameter (alat)  =      20.2824  a.u.
     unit-cell volume          =    8343.7122 (a.u.)^3
     number of atoms/cell      =           64
     number of atomic types    =            1
     number of electrons       =       256.00
     number of Kohn-Sham states=          154
     kinetic-energy cutoff     =      30.0000  Ry
     charge density cutoff     =     120.0000  Ry
     scf convergence threshold =      1.0E-06
     mixing beta               =       0.5000
     number of iterations used =            8  plain     mixing
     Exchange-correlation= PBE
                           (   1   4   3   4   0   0   0)

     GPU acceleration is ACTIVE.
     GPU-aware MPI enabled

     Message from routine print_cuda_info:
     High GPU oversubscription detected. Are you sure this is what you want?

     celldm(1)=  20.282420  celldm(2)=   0.000000  celldm(3)=   0.000000
     celldm(4)=   0.000000  celldm(5)=   0.000000  celldm(6)=   0.000000

     crystal axes: (cart. coord. in units of alat)
               a(1) = (   1.000000   0.000000   0.000000 )  
               a(2) = (   0.000000   1.000000   0.000000 )  
               a(3) = (   0.000000   0.000000   1.000000 )  

     reciprocal axes: (cart. coord. in units 2 pi/alat)
               b(1) = (  1.000000  0.000000  0.000000 )  
               b(2) = (  0.000000  1.000000  0.000000 )  
               b(3) = (  0.000000  0.000000  1.000000 )  


     PseudoPot. # 1 for Si read from file:
     /home/ppiaggi/pseudos/Si_ONCV_PBE_sr.upf
     MD5 check sum: 8553c464762ac42b85b1eed164b4d029
     Pseudo is Norm-conserving, Zval =  4.0
     Generated using ONCVPSP code by D. R. Hamann
     Using radial grid of 1510 points,  4 beta functions with: 
                l(1) =   0
                l(2) =   0
                l(3) =   1
                l(4) =   1

     atomic species   valence    mass     pseudopotential
        Si             4.00    28.08500     Si( 1.00)

     No symmetry found



   Cartesian axes

     site n.     atom                  positions (alat units)
         1           Si  tau(   1) = (   0.0766439   0.0100981   0.9397250  )
         2           Si  tau(   2) = (   0.0545068   0.9412290   0.6580480  )
         3           Si  tau(   3) = (   0.8243550   0.5816260   0.1124780  )
         4           Si  tau(   4) = (   0.6274340   0.6479830   0.3905990  )
         5           Si  tau(   5) = (   0.8669770   0.0958034   0.8042160  )
         6           Si  tau(   6) = (   0.1026270   0.5248140   0.0864051  )
         7           Si  tau(   7) = (   0.7256500   0.1627740   0.9931430  )
         8           Si  tau(   8) = (   0.2100460   0.9002640   0.3313480  )
         9           Si  tau(   9) = (   0.6814940   0.6473560   0.9436490  )
        10           Si  tau(  10) = (   0.5309680   0.3734340   0.5609630  )
        11           Si  tau(  11) = (   0.6434220   0.1139650   0.4489790  )
        12           Si  tau(  12) = (   0.3094480   0.7809170   0.0442675  )
        13           Si  tau(  13) = (   0.5809350   0.3051200   0.7696220  )
        14           Si  tau(  14) = (   0.4700740   0.1798280   0.3397320  )
        15           Si  tau(  15) = (   0.2030590   0.1197450   0.1114630  )
        16           Si  tau(  16) = (   0.7469750   0.4469510   0.8005560  )
        17           Si  tau(  17) = (   0.0405944   0.4202620   0.7028630  )
        18           Si  tau(  18) = (   0.6707320   0.4627180   0.2410400  )
        19           Si  tau(  19) = (   0.5780490   0.9909350   0.8657750  )
        20           Si  tau(  20) = (   0.7728420   0.8676000   0.9096550  )
        21           Si  tau(  21) = (   0.1782260   0.7940140   0.5196090  )
        22           Si  tau(  22) = (   0.1484600   0.1246140   0.3611050  )
        23           Si  tau(  23) = (   0.5139360   0.3175040   0.1736040  )
        24           Si  tau(  24) = (   0.5678400   0.8214600   0.2036240  )
        25           Si  tau(  25) = (   0.9340940   0.2126720   0.4364870  )
        26           Si  tau(  26) = (   0.7458470   0.3804020   0.4504010  )
        27           Si  tau(  27) = (   0.4507340   0.5828390   0.5475640  )
        28           Si  tau(  28) = (   0.3930040   0.5093500   0.1590110  )
        29           Si  tau(  29) = (   0.0461662   0.2572140   0.9021910  )
        30           Si  tau(  30) = (   0.3209790   0.0266376   0.5070830  )
        31           Si  tau(  31) = (   0.6030110   0.6672770   0.7050950  )
        32           Si  tau(  32) = (   0.1882200   0.7058110   0.2359390  )
        33           Si  tau(  33) = (   0.2568700   0.9937530   0.8115480  )
        34           Si  tau(  34) = (   0.4147590   0.9761540   0.2429070  )
        35           Si  tau(  35) = (   0.0231537   0.1886340   0.6322080  )
        36           Si  tau(  36) = (   0.7463560   0.9575340   0.1198880  )
        37           Si  tau(  37) = (   0.2357320   0.6091780   0.8745570  )
        38           Si  tau(  38) = (   0.0118520   0.9409690   0.2065820  )
        39           Si  tau(  39) = (   0.2076770   0.3372460   0.3079840  )
        40           Si  tau(  40) = (   0.8587000   0.4942970   0.6011690  )
        41           Si  tau(  41) = (   0.2336700   0.5183640   0.6284880  )
        42           Si  tau(  42) = (   0.9306570   0.8131590   0.7778240  )
        43           Si  tau(  43) = (   0.7646930   0.8251640   0.4334010  )
        44           Si  tau(  44) = (   0.5256710   0.6495590   0.0700985  )
        45           Si  tau(  45) = (   0.0378250   0.7942500   0.0018130  )
        46           Si  tau(  46) = (   0.9912240   0.4096810   0.2790750  )
        47           Si  tau(  47) = (   0.8662690   0.3904650   0.9916740  )
        48           Si  tau(  48) = (   0.3099350   0.3812050   0.8413650  )
        49           Si  tau(  49) = (   0.2324810   0.3458870   0.0559712  )
        50           Si  tau(  50) = (   0.0081667   0.5960140   0.4588870  )
        51           Si  tau(  51) = (   0.8132500   0.7140010   0.6218630  )
        52           Si  tau(  52) = (   0.7795270   0.2482380   0.1874770  )
        53           Si  tau(  53) = (   0.6639590   0.1027930   0.6815410  )
        54           Si  tau(  54) = (   0.2837240   0.7837250   0.7183350  )
        55           Si  tau(  55) = (   0.4753630   0.2158290   0.9656180  )
        56           Si  tau(  56) = (   0.4837130   0.8749170   0.6812840  )
        57           Si  tau(  57) = (   0.3202100   0.2747470   0.5195790  )
        58           Si  tau(  58) = (   0.8346920   0.0508955   0.3273310  )
        59           Si  tau(  59) = (   0.3782350   0.9903960   0.0096647  )
        60           Si  tau(  60) = (   0.9792240   0.5869400   0.8575870  )
        61           Si  tau(  61) = (   0.5322270   0.9034150   0.4720760  )
        62           Si  tau(  62) = (   0.2390380   0.2131010   0.7051570  )
        63           Si  tau(  63) = (   0.9143140   0.7348950   0.2947380  )
        64           Si  tau(  64) = (   0.2717150   0.5702940   0.3839650  )

     number of k points=     1  Fermi-Dirac smearing, width (Ry)=  0.0100
                       cart. coord. in units 2pi/alat
        k(    1) = (   0.0000000   0.0000000   0.0000000), wk =   2.0000000

     Dense  grid:    92592 G-vectors     FFT dimensions: (  72,  72,  72)

     Estimated max dynamical RAM per process >     148.31 MB

     Estimated total dynamical RAM >     570.64 MB

     Initial potential from superposition of free atoms

     starting charge     255.9608, renormalised to     256.0000
     Starting wfcs are  256 randomized atomic wfcs

     total cpu time spent up to now is        4.3 secs

     Self-consistent Calculation

     iteration #  1     ecut=    30.00 Ry     beta= 0.50
     Davidson diagonalization with overlap
     ethr =  1.00E-02,  avg # of iterations =  3.0

     Threshold (ethr) on eigenvalues was too large:
     Diagonalizing with lowered threshold

     Davidson diagonalization with overlap
     ethr =  3.50E-04,  avg # of iterations =  5.0

     total cpu time spent up to now is        4.6 secs

     total energy              =    -501.49686806 Ry
     estimated scf accuracy    <       1.06735650 Ry

     iteration #  2     ecut=    30.00 Ry     beta= 0.50
     Davidson diagonalization with overlap
     ethr =  4.17E-04,  avg # of iterations =  3.0

     total cpu time spent up to now is        4.7 secs

     total energy              =    -501.31001206 Ry
     estimated scf accuracy    <       1.49978438 Ry

     iteration #  3     ecut=    30.00 Ry     beta= 0.50
     Davidson diagonalization with overlap
     ethr =  4.17E-04,  avg # of iterations =  3.0

     total cpu time spent up to now is        4.8 secs

     total energy              =    -501.38496471 Ry
     estimated scf accuracy    <       2.93174520 Ry

     iteration #  4     ecut=    30.00 Ry     beta= 0.50
     Davidson diagonalization with overlap
     ethr =  4.17E-04,  avg # of iterations =  3.0

     total cpu time spent up to now is        4.8 secs

     total energy              =    -501.56588768 Ry
     estimated scf accuracy    <       0.66122194 Ry

     iteration #  5     ecut=    30.00 Ry     beta= 0.50
     Davidson diagonalization with overlap
     ethr =  2.58E-04,  avg # of iterations =  2.0

     total cpu time spent up to now is        4.9 secs

     total energy              =    -501.61776038 Ry
     estimated scf accuracy    <       0.19838891 Ry

     iteration #  6     ecut=    30.00 Ry     beta= 0.50
     Davidson diagonalization with overlap
     ethr =  7.75E-05,  avg # of iterations =  3.0

     total cpu time spent up to now is        5.0 secs

     total energy              =    -501.63662139 Ry
     estimated scf accuracy    <       0.20955200 Ry

     iteration #  7     ecut=    30.00 Ry     beta= 0.50
     Davidson diagonalization with overlap
     ethr =  7.75E-05,  avg # of iterations =  1.0

     total cpu time spent up to now is        5.1 secs

     total energy              =    -501.65039628 Ry
     estimated scf accuracy    <       0.01203239 Ry

     iteration #  8     ecut=    30.00 Ry     beta= 0.50
     Davidson diagonalization with overlap
     c_bands:  1 eigenvalues not converged
     ethr =  4.70E-06,  avg # of iterations = 20.0

     total cpu time spent up to now is        5.3 secs

     total energy              =    -501.65179824 Ry
     estimated scf accuracy    <       0.02201428 Ry

     iteration #  9     ecut=    30.00 Ry     beta= 0.50
     Davidson diagonalization with overlap
     ethr =  4.70E-06,  avg # of iterations = 14.0

     total cpu time spent up to now is        5.4 secs

     total energy              =    -501.65352099 Ry
     estimated scf accuracy    <       0.00295406 Ry

     iteration # 10     ecut=    30.00 Ry     beta= 0.50
     Davidson diagonalization with overlap
     ethr =  1.15E-06,  avg # of iterations =  3.0

     total cpu time spent up to now is        5.5 secs

     total energy              =    -501.65374415 Ry
     estimated scf accuracy    <       0.00152835 Ry

     iteration # 11     ecut=    30.00 Ry     beta= 0.50
     Davidson diagonalization with overlap
     ethr =  5.97E-07,  avg # of iterations =  2.0

     total cpu time spent up to now is        5.6 secs

     total energy              =    -501.65385815 Ry
     estimated scf accuracy    <       0.00066597 Ry

     iteration # 12     ecut=    30.00 Ry     beta= 0.50
     Davidson diagonalization with overlap
     ethr =  2.60E-07,  avg # of iterations =  2.0

     total cpu time spent up to now is        5.7 secs

     total energy              =    -501.65392400 Ry
     estimated scf accuracy    <       0.00006553 Ry

     iteration # 13     ecut=    30.00 Ry     beta= 0.50
     Davidson diagonalization with overlap
     ethr =  2.56E-08,  avg # of iterations =  4.0

     total cpu time spent up to now is        5.8 secs

     total energy              =    -501.65392768 Ry
     estimated scf accuracy    <       0.00007142 Ry

     iteration # 14     ecut=    30.00 Ry     beta= 0.50
     Davidson diagonalization with overlap
     ethr =  2.56E-08,  avg # of iterations =  3.0

     total cpu time spent up to now is        5.9 secs

     total energy              =    -501.65393251 Ry
     estimated scf accuracy    <       0.00008801 Ry

     iteration # 15     ecut=    30.00 Ry     beta= 0.50
     Davidson diagonalization with overlap
     ethr =  2.56E-08,  avg # of iterations =  2.0

     total cpu time spent up to now is        6.0 secs

     total energy              =    -501.65393667 Ry
     estimated scf accuracy    <       0.00001584 Ry

     iteration # 16     ecut=    30.00 Ry     beta= 0.50
     Davidson diagonalization with overlap
     ethr =  6.19E-09,  avg # of iterations =  2.0

     total cpu time spent up to now is        6.1 secs

     total energy              =    -501.65393889 Ry
     estimated scf accuracy    <       0.00000848 Ry

     iteration # 17     ecut=    30.00 Ry     beta= 0.50
     Davidson diagonalization with overlap
     ethr =  3.31E-09,  avg # of iterations =  2.0

     total cpu time spent up to now is        6.2 secs

     total energy              =    -501.65393931 Ry
     estimated scf accuracy    <       0.00000255 Ry

     iteration # 18     ecut=    30.00 Ry     beta= 0.50
     Davidson diagonalization with overlap
     ethr =  9.98E-10,  avg # of iterations =  2.0

     total cpu time spent up to now is        6.3 secs

     total energy              =    -501.65393957 Ry
     estimated scf accuracy    <       0.00000199 Ry

     iteration # 19     ecut=    30.00 Ry     beta= 0.50
     Davidson diagonalization with overlap
     ethr =  7.78E-10,  avg # of iterations =  2.0

     total cpu time spent up to now is        6.3 secs

     End of self-consistent calculation

          k = 0.0000 0.0000 0.0000 ( 11516 PWs)   bands (ev):

    -5.4957  -4.6360  -4.4596  -4.3898  -4.3045  -4.2695  -4.0077  -3.5627
    -3.5194  -3.5080  -3.3822  -3.3493  -3.2958  -3.1076  -3.0356  -3.0131
    -2.8639  -2.7591  -2.6366  -2.3218  -2.2934  -2.1838  -2.0577  -2.0327
    -1.6891  -1.5664  -1.4576  -1.1554  -1.0615  -0.8522  -0.7992  -0.6610
    -0.4942  -0.4531  -0.3304  -0.2131  -0.1387  -0.1207  -0.0951  -0.0001
     0.0497   0.1018   0.2163   0.3444   0.3553   0.5136   0.5750   0.6517
     0.7140   0.8756   1.0046   1.0459   1.1432   1.2124   1.3349   1.3596
     1.4855   1.5407   1.6109   1.6811   1.9056   1.9869   2.1918   2.2001
     2.2634   2.4687   2.5148   2.5604   2.6807   2.7394   2.7721   2.8692
     2.9181   2.9815   3.0863   3.2111   3.2326   3.2972   3.3747   3.6448
     3.7744   3.9365   3.9614   4.0618   4.1457   4.3135   4.3621   4.4110
     4.4182   4.4783   4.6196   4.6394   4.7331   4.7547   4.8520   4.8830
     4.9500   5.0391   5.0983   5.1343   5.1674   5.2397   5.2816   5.3381
     5.3749   5.4512   5.5126   5.5579   5.6807   5.7210   5.7443   5.8251
     5.8786   5.9675   6.0015   6.1038   6.1328   6.1647   6.2409   6.3047
     6.3331   6.4279   6.4955   6.5959   6.6720   6.6852   6.7966   6.8065
     6.8831   6.9435   6.9774   7.0390   7.0770   7.1602   7.2171   7.3655
     7.4089   7.4419   7.5559   7.5993   7.6439   7.7373   7.8242   7.8643
     7.9033   7.9773   8.0218   8.1038   8.1241   8.1700   8.2686   8.3030
     8.3484   8.4384

     the Fermi energy is     6.8468 ev

!    total energy              =    -501.65393940 Ry
     estimated scf accuracy    <       0.00000046 Ry
     smearing contrib. (-TS)   =      -0.14803357 Ry
     internal energy E=F+TS    =    -501.50590583 Ry

     The total energy is F=E-TS. E is the sum of the following terms:
     one-electron contribution =     178.25753932 Ry
     hartree contribution      =      26.49444206 Ry
     xc contribution           =    -150.56818562 Ry
     ewald contribution        =    -555.68970159 Ry

     convergence has been achieved in  19 iterations

     Forces acting on atoms (cartesian axes, Ry/au):

     atom    1 type  1   force =    -0.01551590    0.02600032    0.01273832
     atom    2 type  1   force =     0.05890516    0.03318578   -0.01236344
     atom    3 type  1   force =    -0.00203072   -0.00709146    0.02476480
     atom    4 type  1   force =    -0.02358028    0.01464095   -0.02189647
     atom    5 type  1   force =     0.01176415    0.00672475    0.00206012
     atom    6 type  1   force =    -0.00824095    0.00786176    0.01004399
     atom    7 type  1   force =    -0.01281209   -0.02286491   -0.02211846
     atom    8 type  1   force =     0.01524272    0.03846918   -0.01159271
     atom    9 type  1   force =     0.09229130    0.00197277   -0.08982697
     atom   10 type  1   force =    -0.00073243   -0.00208802   -0.00932903
     atom   11 type  1   force =     0.01550769   -0.03685835    0.02244073
     atom   12 type  1   force =    -0.01110902   -0.05080097    0.01305453
     atom   13 type  1   force =    -0.00338175   -0.02219116   -0.00796065
     atom   14 type  1   force =    -0.03213753   -0.01886245    0.00767590
     atom   15 type  1   force =    -0.01713598    0.01237266    0.01876270
     atom   16 type  1   force =     0.00160083    0.04232592    0.02900523
     atom   17 type  1   force =     0.02168299   -0.00714802    0.01298692
     atom   18 type  1   force =     0.03370906    0.01315525    0.03244608
     atom   19 type  1   force =     0.00282435   -0.01212490   -0.01059038
     atom   20 type  1   force =    -0.05846841   -0.01278220    0.03728745
     atom   21 type  1   force =    -0.03442391    0.00273087    0.03009979
     atom   22 type  1   force =    -0.01698227    0.01639426   -0.02621415
     atom   23 type  1   force =     0.00560893   -0.00137538   -0.01713762
     atom   24 type  1   force =     0.02757669   -0.00925008    0.01392769
     atom   25 type  1   force =     0.01048960    0.03459194   -0.03223650
     atom   26 type  1   force =    -0.02686701   -0.02871162   -0.01945728
     atom   27 type  1   force =     0.00209970    0.00354579   -0.02174472
     atom   28 type  1   force =    -0.04235297   -0.03615713    0.03960638
     atom   29 type  1   force =     0.00057185    0.01728108   -0.00762069
     atom   30 type  1   force =    -0.00107882    0.00681261   -0.01456851
     atom   31 type  1   force =     0.00569289    0.01650660    0.00669447
     atom   32 type  1   force =    -0.00891465   -0.01840093   -0.07120382
     atom   33 type  1   force =    -0.02556015    0.01177537   -0.02658051
     atom   34 type  1   force =    -0.03086693    0.01674716    0.02786127
     atom   35 type  1   force =     0.00015685   -0.01889912    0.04927381
     atom   36 type  1   force =    -0.00686815   -0.00540459   -0.01124870
     atom   37 type  1   force =    -0.03378233    0.02104429    0.00874776
     atom   38 type  1   force =     0.00155708   -0.01927067    0.00976011
     atom   39 type  1   force =     0.00950930    0.01152842    0.00949417
     atom   40 type  1   force =    -0.00569696    0.01666510    0.01845255
     atom   41 type  1   force =    -0.00101193   -0.02335693    0.00012455
     atom   42 type  1   force =     0.00132040   -0.03777940    0.01657933
     atom   43 type  1   force =    -0.01449581   -0.00379326   -0.00090602
     atom   44 type  1   force =    -0.08953118    0.05100434    0.04411314
     atom   45 type  1   force =     0.02274770    0.01230624    0.01232807
     atom   46 type  1   force =     0.01776319    0.00391526    0.02081858
     atom   47 type  1   force =     0.02181761   -0.01525910   -0.00761370
     atom   48 type  1   force =    -0.00243189    0.00717496    0.00018404
     atom   49 type  1   force =     0.00089889   -0.02047286   -0.00247175
     atom   50 type  1   force =     0.02734526    0.00341961   -0.02993143
     atom   51 type  1   force =    -0.02744638   -0.01061992   -0.01038959
     atom   52 type  1   force =     0.01324122    0.02060597    0.02223902
     atom   53 type  1   force =     0.00642203    0.02832550    0.01615624
     atom   54 type  1   force =     0.00537997    0.00524721   -0.01101411
     atom   55 type  1   force =     0.02417414   -0.00700662   -0.00038821
     atom   56 type  1   force =     0.00695608   -0.02747146    0.03425389
     atom   57 type  1   force =     0.04524326    0.00476317   -0.06514385
     atom   58 type  1   force =    -0.02705647   -0.00433344   -0.01765920
     atom   59 type  1   force =     0.00881626    0.03375422   -0.02051413
     atom   60 type  1   force =     0.03434170    0.00632796    0.00951835
     atom   61 type  1   force =     0.01737076    0.02262985   -0.03028219
     atom   62 type  1   force =    -0.02720935   -0.04199131    0.03673202
     atom   63 type  1   force =     0.01375697   -0.00932799   -0.03460002
     atom   64 type  1   force =     0.02333565   -0.04011288    0.01437283

     Total force =     0.349254     Total SCF correction =     0.001296


     Computing stress (Cartesian axis) and pressure

          total   stress  (Ry/bohr**3)                   (kbar)     P=      -36.58
  -0.00021715  -0.00002283  -0.00002567          -31.94       -3.36       -3.78
  -0.00002283  -0.00027250  -0.00002345           -3.36      -40.09       -3.45
  -0.00002567  -0.00002345  -0.00025634           -3.78       -3.45      -37.71

 
     init_run     :      0.91s CPU      4.28s WALL (       1 calls)
     electrons    :      1.80s CPU      1.99s WALL (       1 calls)
     forces       :      0.03s CPU      0.03s WALL (       1 calls)
     stress       :      0.14s CPU      0.14s WALL (       1 calls)

     Called by init_run:
     wfcinit      :      0.41s CPU      3.63s WALL (       1 calls)
                                        3.63s GPU  (       1 calls)
     potinit      :      0.03s CPU      0.12s WALL (       1 calls)
     hinit0       :      0.45s CPU      0.47s WALL (       1 calls)

     Called by electrons:
     c_bands      :      1.17s CPU      1.29s WALL (      20 calls)
     sum_band     :      0.33s CPU      0.37s WALL (      20 calls)
     v_of_rho     :      0.13s CPU      0.22s WALL (      20 calls)
     mix_rho      :      0.15s CPU      0.16s WALL (      20 calls)

     Called by c_bands:
     init_us_2    :      0.05s CPU      0.05s WALL (      41 calls)
     init_us_2:gp :      0.05s CPU      0.05s WALL (      41 calls)
     regterg      :      1.02s CPU      1.13s WALL (      20 calls)

     Called by *egterg:
     rdiaghg      :      0.44s CPU      1.10s WALL (     100 calls)
                                        1.08s GPU  (     100 calls)
     h_psi        :      0.83s CPU      3.45s WALL (     102 calls)
                                        3.45s GPU  (     102 calls)
     g_psi        :      0.00s CPU      0.00s WALL (      81 calls)
                                        0.00s GPU  (      81 calls)

     Called by h_psi:
     h_psi:calbec :      0.41s CPU      2.95s WALL (     102 calls)
                                        2.95s GPU  (     102 calls)
     vloc_psi     :      0.36s CPU      0.43s WALL (     102 calls)
                                        0.43s GPU  (     102 calls)
     add_vuspsi   :      0.04s CPU      0.06s WALL (     102 calls)
                                        0.06s GPU  (     102 calls)

     General routines
     calbec       :      0.41s CPU      2.96s WALL (     107 calls)
     fft          :      0.54s CPU      0.66s WALL (     167 calls)
                                        0.11s GPU  (     106 calls)
     ffts         :      0.03s CPU      0.04s WALL (      20 calls)
     fftw         :      0.44s CPU      0.59s WALL (    2124 calls)
                                        0.51s GPU  (    2124 calls)
 
     Parallel routines
 
     PWSCF        :      2.92s CPU      6.53s WALL

 
   This run was terminated on:  10:46:22  10May2023            

=------------------------------------------------------------------------------=
   JOB DONE.
=------------------------------------------------------------------------------=
