An instance of this daemon is already running

     Program PWSCF v.7.1 starts on 10May2023 at 10:49:47 

     This program is part of the open-source Quantum ESPRESSO suite
     for quantum simulation of materials; please cite
         "P. Giannozzi et al., J. Phys.:Condens. Matter 21 395502 (2009);
         "P. Giannozzi et al., J. Phys.:Condens. Matter 29 465901 (2017);
         "P. Giannozzi et al., J. Chem. Phys. 152 154105 (2020);
          URL http://www.quantum-espresso.org", 
     in publications or presentations arising from this work. More details at
     http://www.quantum-espresso.org/quote

     Parallel version (MPI & OpenMP), running on       4 processor cores
     Number of MPI processes:                 4
     Threads/MPI process:                     1

     MPI processes distributed on     1 nodes
     153139 MiB available memory on the printing compute node when the environment starts
 
     Reading input from pw-si-62.in
Warning: card &CELL ignored
Warning: card / ignored

     Current dimensions of program PWSCF are:
     Max number of different atomic species (ntypx) = 10
     Max number of k-points (npk) =  40000
     Max angular momentum in pseudopotentials (lmaxx) =  4

     IMPORTANT: XC functional enforced from input :
     Exchange-correlation= PBE
                           (   1   4   3   4   0   0   0)
     Any further DFT definition will be discarded
     Please, verify this is what you really want


     gamma-point specific algorithms are used
 
     K-points division:     npool     =       2
     R & G space division:  proc/nbgrp/npool/nimage =       2
     Subspace diagonalization in iterative solution of the eigenvalue problem:
     a serial algorithm will be used

     Message from routine divide_et_impera:
     suboptimal parallelization: some nodes have no k-points
 
     Parallelization info
     --------------------
     sticks:   dense  smooth     PW     G-vecs:    dense   smooth      PW
     Min        1929    1929    504                90123    90123   12201
     Max        1932    1932    505                90128    90128   12204
     Sum        3861    3861   1009               180251   180251   24405
 
     Using Slab Decomposition
 


     bravais-lattice index     =            0
     lattice parameter (alat)  =      20.1025  a.u.
     unit-cell volume          =    8123.6435 (a.u.)^3
     number of atoms/cell      =           64
     number of atomic types    =            1
     number of electrons       =       256.00
     number of Kohn-Sham states=          154
     kinetic-energy cutoff     =      30.0000  Ry
     charge density cutoff     =     120.0000  Ry
     scf convergence threshold =      1.0E-06
     mixing beta               =       0.5000
     number of iterations used =            8  plain     mixing
     Exchange-correlation= PBE
                           (   1   4   3   4   0   0   0)

     GPU acceleration is ACTIVE.
     GPU-aware MPI enabled

     Message from routine print_cuda_info:
     High GPU oversubscription detected. Are you sure this is what you want?

     celldm(1)=  20.102510  celldm(2)=   0.000000  celldm(3)=   0.000000
     celldm(4)=   0.000000  celldm(5)=   0.000000  celldm(6)=   0.000000

     crystal axes: (cart. coord. in units of alat)
               a(1) = (   1.000000   0.000000   0.000000 )  
               a(2) = (   0.000000   1.000000   0.000000 )  
               a(3) = (   0.000000   0.000000   1.000000 )  

     reciprocal axes: (cart. coord. in units 2 pi/alat)
               b(1) = (  1.000000  0.000000  0.000000 )  
               b(2) = (  0.000000  1.000000  0.000000 )  
               b(3) = (  0.000000  0.000000  1.000000 )  


     PseudoPot. # 1 for Si read from file:
     /home/ppiaggi/pseudos/Si_ONCV_PBE_sr.upf
     MD5 check sum: 8553c464762ac42b85b1eed164b4d029
     Pseudo is Norm-conserving, Zval =  4.0
     Generated using ONCVPSP code by D. R. Hamann
     Using radial grid of 1510 points,  4 beta functions with: 
                l(1) =   0
                l(2) =   0
                l(3) =   1
                l(4) =   1

     atomic species   valence    mass     pseudopotential
        Si             4.00    28.08500     Si( 1.00)

     No symmetry found



   Cartesian axes

     site n.     atom                  positions (alat units)
         1           Si  tau(   1) = (   0.3024310   0.3231500   0.9399850  )
         2           Si  tau(   2) = (   0.7064940   0.3732790   0.4805640  )
         3           Si  tau(   3) = (   0.6806260   0.6512080   0.0199069  )
         4           Si  tau(   4) = (   0.2442970   0.2640140   0.1754160  )
         5           Si  tau(   5) = (   0.2755600   0.5411260   0.9134750  )
         6           Si  tau(   6) = (   0.5406120   0.7431440   0.2002380  )
         7           Si  tau(   7) = (   0.9340550   0.6241010   0.7839740  )
         8           Si  tau(   8) = (   0.7937210   0.8449640   0.7676500  )
         9           Si  tau(   9) = (   0.6952800   0.4010820   0.1738170  )
        10           Si  tau(  10) = (   0.0666335   0.6537340   0.9624410  )
        11           Si  tau(  11) = (   0.4313260   0.8412890   0.7948610  )
        12           Si  tau(  12) = (   0.0988318   0.7201430   0.5868430  )
        13           Si  tau(  13) = (   0.9520230   0.9812990   0.5080990  )
        14           Si  tau(  14) = (   0.5069710   0.0044537   0.2265390  )
        15           Si  tau(  15) = (   0.0862147   0.4646690   0.7278800  )
        16           Si  tau(  16) = (   0.1744390   0.7421170   0.3683920  )
        17           Si  tau(  17) = (   0.5104700   0.5150180   0.4355550  )
        18           Si  tau(  18) = (   0.3936820   0.0555718   0.9731540  )
        19           Si  tau(  19) = (   0.7106780   0.2172730   0.3274830  )
        20           Si  tau(  20) = (   0.4535020   0.1873250   0.3702380  )
        21           Si  tau(  21) = (   0.1322740   0.6018970   0.2171380  )
        22           Si  tau(  22) = (   0.2950570   0.2903110   0.7289330  )
        23           Si  tau(  23) = (   0.0566253   0.1509680   0.7198630  )
        24           Si  tau(  24) = (   0.3992370   0.8173920   0.3820830  )
        25           Si  tau(  25) = (   0.8770950   0.7081670   0.4861840  )
        26           Si  tau(  26) = (   0.5145790   0.5790330   0.8646450  )
        27           Si  tau(  27) = (   0.1483100   0.0721872   0.0364299  )
        28           Si  tau(  28) = (   0.6622210   0.8399940   0.5847880  )
        29           Si  tau(  29) = (   0.3336370   0.5958180   0.1152260  )
        30           Si  tau(  30) = (   0.3683710   0.0224468   0.4840960  )
        31           Si  tau(  31) = (   0.8730630   0.7559160   0.0532361  )
        32           Si  tau(  32) = (   0.2027710   0.9976140   0.2390850  )
        33           Si  tau(  33) = (   0.6104690   0.8540830   0.9519460  )
        34           Si  tau(  34) = (   0.2857790   0.4371070   0.5451120  )
        35           Si  tau(  35) = (   0.2777250   0.6837380   0.7288620  )
        36           Si  tau(  36) = (   0.4812650   0.6861720   0.5607820  )
        37           Si  tau(  37) = (   0.9052260   0.3340560   0.6569620  )
        38           Si  tau(  38) = (   0.4417260   0.4030060   0.2189210  )
        39           Si  tau(  39) = (   0.0531612   0.2891320   0.9265180  )
        40           Si  tau(  40) = (   0.5704100   0.3753600   0.8058040  )
        41           Si  tau(  41) = (   0.3599980   0.8460500   0.0725994  )
        42           Si  tau(  42) = (   0.9199440   0.7070810   0.2363190  )
        43           Si  tau(  43) = (   0.7230990   0.6082850   0.3084850  )
        44           Si  tau(  44) = (   0.5088110   0.2946660   0.6019580  )
        45           Si  tau(  45) = (   0.3198470   0.0845866   0.7345290  )
        46           Si  tau(  46) = (   0.7943360   0.1161940   0.5883140  )
        47           Si  tau(  47) = (   0.8373280   0.4612580   0.9784130  )
        48           Si  tau(  48) = (   0.6405760   0.0803940   0.0541534  )
        49           Si  tau(  49) = (   0.5496930   0.3018260   0.0173668  )
        50           Si  tau(  50) = (   0.1730410   0.8463690   0.9064850  )
        51           Si  tau(  51) = (   0.9413150   0.4956760   0.4868280  )
        52           Si  tau(  52) = (   0.1313200   0.1075370   0.5156150  )
        53           Si  tau(  53) = (   0.9590770   0.9125260   0.2854880  )
        54           Si  tau(  54) = (   0.9470100   0.9534990   0.0006035  )
        55           Si  tau(  55) = (   0.9551910   0.3165650   0.1471490  )
        56           Si  tau(  56) = (   0.0439059   0.4153510   0.3039960  )
        57           Si  tau(  57) = (   0.2172500   0.2908010   0.4070910  )
        58           Si  tau(  58) = (   0.7733100   0.3069560   0.8337050  )
        59           Si  tau(  59) = (   0.0156295   0.8867220   0.7221580  )
        60           Si  tau(  60) = (   0.8037380   0.0840048   0.8491510  )
        61           Si  tau(  61) = (   0.8368670   0.1006060   0.1871710  )
        62           Si  tau(  62) = (   0.6973440   0.9697340   0.3931410  )
        63           Si  tau(  63) = (   0.5473460   0.0279833   0.6470690  )
        64           Si  tau(  64) = (   0.6894050   0.6008880   0.6969820  )

     number of k points=     1  Fermi-Dirac smearing, width (Ry)=  0.0100
                       cart. coord. in units 2pi/alat
        k(    1) = (   0.0000000   0.0000000   0.0000000), wk =   2.0000000

     Dense  grid:    90126 G-vectors     FFT dimensions: (  72,  72,  72)

     Estimated max dynamical RAM per process >     144.81 MB

     Estimated total dynamical RAM >     557.22 MB

     Initial potential from superposition of free atoms

     starting charge     255.9608, renormalised to     256.0000
     Starting wfcs are  256 randomized atomic wfcs

     total cpu time spent up to now is        4.1 secs

     Self-consistent Calculation

     iteration #  1     ecut=    30.00 Ry     beta= 0.50
     Davidson diagonalization with overlap
     ethr =  1.00E-02,  avg # of iterations =  3.0

     Threshold (ethr) on eigenvalues was too large:
     Diagonalizing with lowered threshold

     Davidson diagonalization with overlap
     ethr =  4.11E-04,  avg # of iterations =  4.0

     total cpu time spent up to now is        4.4 secs

     total energy              =    -501.16177903 Ry
     estimated scf accuracy    <       1.27012999 Ry

     iteration #  2     ecut=    30.00 Ry     beta= 0.50
     Davidson diagonalization with overlap
     ethr =  4.96E-04,  avg # of iterations =  5.0

     total cpu time spent up to now is        4.5 secs

     total energy              =    -500.75214025 Ry
     estimated scf accuracy    <       4.33548427 Ry

     iteration #  3     ecut=    30.00 Ry     beta= 0.50
     Davidson diagonalization with overlap
     ethr =  4.96E-04,  avg # of iterations =  4.0

     total cpu time spent up to now is        4.6 secs

     total energy              =    -501.17589367 Ry
     estimated scf accuracy    <       2.68565747 Ry

     iteration #  4     ecut=    30.00 Ry     beta= 0.50
     Davidson diagonalization with overlap
     ethr =  4.96E-04,  avg # of iterations =  2.0

     total cpu time spent up to now is        4.7 secs

     total energy              =    -501.35179702 Ry
     estimated scf accuracy    <       0.53756330 Ry

     iteration #  5     ecut=    30.00 Ry     beta= 0.50
     Davidson diagonalization with overlap
     ethr =  2.10E-04,  avg # of iterations =  2.0

     total cpu time spent up to now is        4.8 secs

     total energy              =    -501.38634619 Ry
     estimated scf accuracy    <       0.27661445 Ry

     iteration #  6     ecut=    30.00 Ry     beta= 0.50
     Davidson diagonalization with overlap
     ethr =  1.08E-04,  avg # of iterations =  2.0

     total cpu time spent up to now is        4.9 secs

     total energy              =    -501.41329839 Ry
     estimated scf accuracy    <       0.18984595 Ry

     iteration #  7     ecut=    30.00 Ry     beta= 0.50
     Davidson diagonalization with overlap
     ethr =  7.42E-05,  avg # of iterations =  1.0

     total cpu time spent up to now is        4.9 secs

     total energy              =    -501.42711699 Ry
     estimated scf accuracy    <       0.01139091 Ry

     iteration #  8     ecut=    30.00 Ry     beta= 0.50
     Davidson diagonalization with overlap
     ethr =  4.45E-06,  avg # of iterations = 14.0

     total cpu time spent up to now is        5.1 secs

     total energy              =    -501.42853040 Ry
     estimated scf accuracy    <       0.01620073 Ry

     iteration #  9     ecut=    30.00 Ry     beta= 0.50
     Davidson diagonalization with overlap
     ethr =  4.45E-06,  avg # of iterations =  3.0

     total cpu time spent up to now is        5.2 secs

     total energy              =    -501.42997616 Ry
     estimated scf accuracy    <       0.00463999 Ry

     iteration # 10     ecut=    30.00 Ry     beta= 0.50
     Davidson diagonalization with overlap
     ethr =  1.81E-06,  avg # of iterations =  2.0

     total cpu time spent up to now is        5.3 secs

     total energy              =    -501.43033391 Ry
     estimated scf accuracy    <       0.00075144 Ry

     iteration # 11     ecut=    30.00 Ry     beta= 0.50
     Davidson diagonalization with overlap
     ethr =  2.94E-07,  avg # of iterations =  3.0

     total cpu time spent up to now is        5.4 secs

     total energy              =    -501.43038467 Ry
     estimated scf accuracy    <       0.00073544 Ry

     iteration # 12     ecut=    30.00 Ry     beta= 0.50
     Davidson diagonalization with overlap
     ethr =  2.87E-07,  avg # of iterations =  2.0

     total cpu time spent up to now is        5.5 secs

     total energy              =    -501.43045569 Ry
     estimated scf accuracy    <       0.00017148 Ry

     iteration # 13     ecut=    30.00 Ry     beta= 0.50
     Davidson diagonalization with overlap
     ethr =  6.70E-08,  avg # of iterations =  2.0

     total cpu time spent up to now is        5.6 secs

     total energy              =    -501.43046997 Ry
     estimated scf accuracy    <       0.00010042 Ry

     iteration # 14     ecut=    30.00 Ry     beta= 0.50
     Davidson diagonalization with overlap
     ethr =  3.92E-08,  avg # of iterations =  2.0

     total cpu time spent up to now is        5.7 secs

     total energy              =    -501.43047791 Ry
     estimated scf accuracy    <       0.00003330 Ry

     iteration # 15     ecut=    30.00 Ry     beta= 0.50
     Davidson diagonalization with overlap
     ethr =  1.30E-08,  avg # of iterations =  2.0

     total cpu time spent up to now is        5.7 secs

     total energy              =    -501.43047972 Ry
     estimated scf accuracy    <       0.00001355 Ry

     iteration # 16     ecut=    30.00 Ry     beta= 0.50
     Davidson diagonalization with overlap
     ethr =  5.29E-09,  avg # of iterations =  2.0

     total cpu time spent up to now is        5.8 secs

     total energy              =    -501.43048145 Ry
     estimated scf accuracy    <       0.00000728 Ry

     iteration # 17     ecut=    30.00 Ry     beta= 0.50
     Davidson diagonalization with overlap
     ethr =  2.84E-09,  avg # of iterations =  2.0

     total cpu time spent up to now is        5.9 secs

     total energy              =    -501.43048164 Ry
     estimated scf accuracy    <       0.00000460 Ry

     iteration # 18     ecut=    30.00 Ry     beta= 0.50
     Davidson diagonalization with overlap
     ethr =  1.80E-09,  avg # of iterations =  2.0

     total cpu time spent up to now is        6.0 secs

     total energy              =    -501.43048201 Ry
     estimated scf accuracy    <       0.00000112 Ry

     iteration # 19     ecut=    30.00 Ry     beta= 0.50
     Davidson diagonalization with overlap
     ethr =  4.38E-10,  avg # of iterations =  2.0

     total cpu time spent up to now is        6.1 secs

     End of self-consistent calculation

          k = 0.0000 0.0000 0.0000 ( 11324 PWs)   bands (ev):

    -5.3306  -4.4846  -4.2194  -4.2104  -4.0989  -4.0479  -3.8482  -3.5307
    -3.2547  -3.2164  -3.1198  -3.0236  -2.9474  -2.9179  -2.8312  -2.7448
    -2.6320  -2.5923  -2.4821  -2.2137  -1.9624  -1.8692  -1.8075  -1.6308
    -1.4951  -1.2845  -1.1948  -0.9516  -0.8813  -0.7355  -0.5764  -0.5410
    -0.2727  -0.2015  -0.0877   0.0706   0.0836   0.1824   0.3073   0.3523
     0.5146   0.5614   0.6352   0.6970   0.7421   0.8171   0.9342   0.9613
     1.0192   1.0741   1.1448   1.2300   1.4188   1.4337   1.6299   1.6832
     1.8017   1.8642   1.9918   2.1030   2.1908   2.3676   2.4638   2.4710
     2.5506   2.6103   2.6439   2.7618   2.8338   2.8846   2.9432   2.9965
     3.0725   3.1595   3.2495   3.3465   3.3594   3.5550   3.6058   3.7362
     3.8499   4.2188   4.3120   4.3662   4.4254   4.4903   4.5901   4.6943
     4.7577   4.7870   4.9272   4.9540   5.0001   5.0459   5.1710   5.2167
     5.2572   5.3908   5.4408   5.4838   5.6156   5.6366   5.7099   5.7402
     5.7497   5.8355   5.9103   5.9846   6.0280   6.0568   6.1424   6.1783
     6.2379   6.2704   6.3195   6.3827   6.4266   6.4561   6.5203   6.5724
     6.6635   6.7392   6.8269   6.8923   6.9536   7.0395   7.0733   7.0891
     7.2345   7.2506   7.3691   7.4173   7.4613   7.4830   7.6144   7.6334
     7.6650   7.6846   7.7275   7.8090   7.8604   7.9739   8.0009   8.0701
     8.0956   8.1819   8.3094   8.3129   8.3879   8.4763   8.5160   8.5723
     8.6468   8.8143

     the Fermi energy is     7.1702 ev

!    total energy              =    -501.43048208 Ry
     estimated scf accuracy    <       0.00000010 Ry
     smearing contrib. (-TS)   =      -0.14178932 Ry
     internal energy E=F+TS    =    -501.28869276 Ry

     The total energy is F=E-TS. E is the sum of the following terms:
     one-electron contribution =     191.08269316 Ry
     hartree contribution      =      22.89763153 Ry
     xc contribution           =    -150.91441072 Ry
     ewald contribution        =    -564.35460674 Ry

     convergence has been achieved in  19 iterations

     Forces acting on atoms (cartesian axes, Ry/au):

     atom    1 type  1   force =    -0.00940756    0.00909623    0.03303144
     atom    2 type  1   force =     0.00375666    0.03219073    0.03645740
     atom    3 type  1   force =    -0.01646239   -0.02696346    0.00766135
     atom    4 type  1   force =     0.01113141   -0.01501133    0.00885041
     atom    5 type  1   force =     0.00598327   -0.00878838   -0.02688202
     atom    6 type  1   force =    -0.01651315   -0.00610335   -0.00592600
     atom    7 type  1   force =    -0.02123763   -0.00544333    0.00546138
     atom    8 type  1   force =    -0.01760905    0.00655453    0.01456265
     atom    9 type  1   force =     0.01472193    0.01877223    0.00129420
     atom   10 type  1   force =    -0.01423689    0.00093253    0.01893337
     atom   11 type  1   force =     0.01425054    0.01464500    0.02283640
     atom   12 type  1   force =    -0.00853016   -0.00646170   -0.01129964
     atom   13 type  1   force =     0.00741461   -0.03668950   -0.00238213
     atom   14 type  1   force =     0.00719900   -0.01279686    0.01667998
     atom   15 type  1   force =     0.01898061    0.00215360   -0.00810759
     atom   16 type  1   force =     0.02602659    0.06632966    0.05301581
     atom   17 type  1   force =     0.01372435   -0.06136364   -0.02875965
     atom   18 type  1   force =    -0.00989701    0.00824544   -0.02358940
     atom   19 type  1   force =    -0.05118785   -0.01764529   -0.00081593
     atom   20 type  1   force =     0.02007456    0.02908578   -0.01392772
     atom   21 type  1   force =    -0.02509112   -0.02758022   -0.02638797
     atom   22 type  1   force =    -0.01657072    0.05424729   -0.05178389
     atom   23 type  1   force =    -0.00429669    0.01381651    0.02669900
     atom   24 type  1   force =    -0.01999077   -0.00575684    0.01087285
     atom   25 type  1   force =    -0.01242644    0.00050747   -0.01213589
     atom   26 type  1   force =     0.02060993    0.03674935   -0.00411708
     atom   27 type  1   force =     0.00065100    0.00951457   -0.02079635
     atom   28 type  1   force =     0.00338530   -0.02053990   -0.00999070
     atom   29 type  1   force =     0.04195656    0.01540337    0.02369048
     atom   30 type  1   force =    -0.02667739   -0.01295896    0.01314623
     atom   31 type  1   force =    -0.01936367    0.02120147   -0.14405832
     atom   32 type  1   force =     0.01057268   -0.02702198    0.00434213
     atom   33 type  1   force =    -0.00681184    0.02144447   -0.01469794
     atom   34 type  1   force =     0.03350996    0.03201130    0.05159303
     atom   35 type  1   force =     0.02561717   -0.01024954   -0.01537039
     atom   36 type  1   force =    -0.00798722    0.04537294    0.03128680
     atom   37 type  1   force =    -0.00745987   -0.01732952   -0.02671465
     atom   38 type  1   force =    -0.00261119    0.01799263   -0.00108364
     atom   39 type  1   force =     0.03358962   -0.03743683    0.00278653
     atom   40 type  1   force =    -0.00562248   -0.00070395   -0.01203842
     atom   41 type  1   force =    -0.01290374    0.00465007    0.00896219
     atom   42 type  1   force =     0.04011845   -0.06083713    0.14708988
     atom   43 type  1   force =    -0.02298409   -0.02569480    0.00509396
     atom   44 type  1   force =    -0.01003046   -0.00698130   -0.01830280
     atom   45 type  1   force =     0.02202491   -0.07149582    0.01267204
     atom   46 type  1   force =    -0.00222093    0.02159051    0.00261448
     atom   47 type  1   force =     0.00842258    0.01631041    0.03621815
     atom   48 type  1   force =    -0.01392502    0.00380773   -0.02619330
     atom   49 type  1   force =    -0.02918887   -0.04284161    0.01284567
     atom   50 type  1   force =    -0.00943679    0.01423053   -0.00430913
     atom   51 type  1   force =    -0.02927541   -0.00744975    0.01551350
     atom   52 type  1   force =     0.05543465    0.01658600   -0.01832933
     atom   53 type  1   force =     0.01217254    0.04688465    0.03358762
     atom   54 type  1   force =     0.01162579    0.04125088   -0.01888095
     atom   55 type  1   force =    -0.05664784   -0.04904129   -0.09631771
     atom   56 type  1   force =     0.06071229    0.02571689    0.06220123
     atom   57 type  1   force =    -0.02914293   -0.04229477   -0.03960218
     atom   58 type  1   force =     0.02351366   -0.00386907   -0.00432696
     atom   59 type  1   force =     0.00146460    0.00407349   -0.01755864
     atom   60 type  1   force =     0.00376818   -0.01986348   -0.00338367
     atom   61 type  1   force =     0.02489027   -0.00058497   -0.01111484
     atom   62 type  1   force =    -0.01196971    0.02525434    0.00208999
     atom   63 type  1   force =    -0.02657512    0.00592426   -0.00590228
     atom   64 type  1   force =    -0.00301169    0.00525169    0.00299697

     Total force =     0.405657     Total SCF correction =     0.000563


     Computing stress (Cartesian axis) and pressure

          total   stress  (Ry/bohr**3)                   (kbar)     P=      -28.91
  -0.00041619   0.00001361   0.00005876          -61.22        2.00        8.64
   0.00001361  -0.00016437   0.00007023            2.00      -24.18       10.33
   0.00005876   0.00007023  -0.00000898            8.64       10.33       -1.32

 
     init_run     :      0.90s CPU      4.06s WALL (       1 calls)
     electrons    :      1.65s CPU      1.94s WALL (       1 calls)
     forces       :      0.03s CPU      0.03s WALL (       1 calls)
     stress       :      0.14s CPU      0.14s WALL (       1 calls)

     Called by init_run:
     wfcinit      :      0.40s CPU      3.39s WALL (       1 calls)
                                        3.39s GPU  (       1 calls)
     potinit      :      0.03s CPU      0.13s WALL (       1 calls)
     hinit0       :      0.45s CPU      0.48s WALL (       1 calls)

     Called by electrons:
     c_bands      :      1.06s CPU      1.24s WALL (      20 calls)
     sum_band     :      0.30s CPU      0.39s WALL (      20 calls)
     v_of_rho     :      0.13s CPU      0.23s WALL (      20 calls)
     mix_rho      :      0.14s CPU      0.15s WALL (      20 calls)

     Called by c_bands:
     init_us_2    :      0.05s CPU      0.05s WALL (      41 calls)
     init_us_2:gp :      0.05s CPU      0.05s WALL (      41 calls)
     regterg      :      0.91s CPU      1.09s WALL (      20 calls)

     Called by *egterg:
     rdiaghg      :      0.37s CPU      1.00s WALL (      80 calls)
                                        0.99s GPU  (      80 calls)
     h_psi        :      0.78s CPU      3.20s WALL (      82 calls)
                                        3.20s GPU  (      82 calls)
     g_psi        :      0.00s CPU      0.00s WALL (      61 calls)
                                        0.00s GPU  (      61 calls)

     Called by h_psi:
     h_psi:calbec :      0.38s CPU      2.74s WALL (      82 calls)
                                        2.74s GPU  (      82 calls)
     vloc_psi     :      0.35s CPU      0.41s WALL (      82 calls)
                                        0.41s GPU  (      82 calls)
     add_vuspsi   :      0.03s CPU      0.04s WALL (      82 calls)
                                        0.04s GPU  (      82 calls)

     General routines
     calbec       :      0.38s CPU      2.74s WALL (      87 calls)
     fft          :      0.55s CPU      0.67s WALL (     167 calls)
                                        0.13s GPU  (     106 calls)
     ffts         :      0.03s CPU      0.03s WALL (      20 calls)
     fftw         :      0.43s CPU      0.56s WALL (    2080 calls)
                                        0.50s GPU  (    2080 calls)
 
     Parallel routines
 
     PWSCF        :      2.75s CPU      6.25s WALL

 
   This run was terminated on:  10:49:53  10May2023            

=------------------------------------------------------------------------------=
   JOB DONE.
=------------------------------------------------------------------------------=
