LAMMPS data file via write_data, version 23 Jun 2022, timestep = 500000

64 atoms
1 atom types

0.07505417806052694 10.786345821939666 xlo xhi
0.07505417806052694 10.786345821939666 ylo yhi
0.07505417806052694 10.786345821939666 zlo zhi

Masses

1 28.0855

Atoms # full

5 0 1 0 2.046801254289595 1.2213682259024996 1.3413559311208645 1 6 9
8 0 1 0 5.205043606159591 3.5426869062487047 1.3891026490757883 2 -5 3
17 0 1 0 3.9861293422313455 0.8464605215647291 2.798879148164073 2 -4 -1
29 0 1 0 5.361148029093684 0.6387110840458917 0.8270666589751394 2 2 0
49 0 1 0 8.246387256405026 0.8675729887955611 2.9379820305847977 -5 1 -2
42 0 1 0 9.461152708060464 2.330513770064307 0.743899028479202 -1 6 3
40 0 1 0 10.63479812373403 1.917565231234272 3.4704415162703994 -1 0 -4
45 0 1 0 2.4570603944015974 5.841032316529651 1.7206274905180474 1 -1 -3
44 0 1 0 0.8915140452512499 4.204467417946119 0.7654510842604151 -1 7 2
52 0 1 0 0.7638752788043297 4.030032934928914 3.4505847759791495 8 4 -2
64 0 1 0 6.63371614882216 6.273887739139322 2.9411544391177613 2 -3 4
25 0 1 0 4.284896575735281 5.241551073955534 3.132786809149955 2 0 -2
18 0 1 0 9.296947209043779 5.144283591691378 2.734385488217938 -1 -3 3
20 0 1 0 7.448788443010411 3.8916494021963066 0.8264862723321827 -4 -3 0
47 0 1 0 8.363239866226252 6.252930113728121 0.5802300472200582 -2 -3 -2
23 0 1 0 2.169067105665279 8.383449766883597 1.9982015454916182 0 -2 -5
41 0 1 0 0.9430837897259193 10.365155567906182 3.4619799502882125 0 1 4
57 0 1 0 6.153165563174362 8.538270431281873 2.0080054922576216 2 0 -7
7 0 1 0 4.144288661582162 9.059181275059796 3.2965223333244267 1 -6 5
27 0 1 0 10.66207980552888 10.55484470632798 0.7026658166651936 3 -3 -5
12 0 1 0 10.075802181157936 7.818341237429296 2.2794403138351877 -3 -4 1
63 0 1 0 8.676255476464238 9.48058651220201 1.8757613950462535 -4 2 5
24 0 1 0 2.3243106489869163 1.8125944112692223 6.201015740457794 -5 -8 -2
53 0 1 0 5.082714054032261 2.411853498802776 4.323717973928718 -5 1 0
21 0 1 0 5.25109025631021 0.1893807560051884 5.9538259179648145 7 6 -1
37 0 1 0 4.873414506077505 2.343054865694051 7.05095807022909 -2 1 1
55 0 1 0 7.341546215621952 3.1930022873436514 3.681308738747107 -3 2 -6
14 0 1 0 10.403182959083939 1.9561836718262324 5.717996160687396 -4 -2 2
30 0 1 0 9.103520789704955 0.3912952335407387 6.936443523259321 4 4 3
32 0 1 0 3.227351028011661 3.8262071442974728 4.850322895633725 1 -3 -6
26 0 1 0 0.7500560868368431 5.233780978644731 5.3943911261262425 1 0 -1
46 0 1 0 4.032397219864364 7.0339646582720174 4.957786285156714 -8 1 5
59 0 1 0 4.241954490863103 5.098095446336328 7.169922310434252 7 -2 -1
39 0 1 0 8.565288894660831 3.7432713430810027 5.7386485803576734 -1 -6 0
4 0 1 0 9.152287316922287 6.096972434575916 4.864485046725892 0 3 1
62 0 1 0 1.6840612607698238 7.32866069750705 6.2601954539015585 -2 0 -2
16 0 1 0 2.756445852028951 10.292350577887518 5.3954411315903 0 -2 -2
50 0 1 0 6.728874867940878 7.462120336540535 5.01281396281339 1 -4 3
28 0 1 0 6.8826755036823055 10.104495419572949 4.4752080348745595 -4 -1 2
3 0 1 0 10.618844950316838 8.321573474023126 4.590659903242535 -5 0 -4
2 0 1 0 8.639337617099741 9.003950894820605 5.939092013323948 1 0 -4
56 0 1 0 1.5597668478738331 1.937272277607999 8.651662690499236 1 -3 0
43 0 1 0 2.8460615902482567 2.8988532666127313 10.741171595181921 7 -5 -1
34 0 1 0 7.0320506373205305 3.2361663992246092 9.059828087140435 -1 0 6
1 0 1 0 6.908030383879796 0.4435771414610587 8.380518788509178 0 -1 -3
9 0 1 0 4.012662410886232 1.194780286620261 9.303954310565402 -2 1 0
13 0 1 0 7.47575385832541 0.7629400219761913 10.502978757740124 8 3 1
22 0 1 0 9.689284675794507 2.0125803675971223 8.936111364667603 3 0 2
61 0 1 0 3.314956079810863 6.783743039330597 10.319802384616857 -4 5 -3
51 0 1 0 2.1236237423112874 5.802247547348562 8.329585222609396 -3 -2 2
48 0 1 0 0.5450405531221596 3.960124690630217 7.468662669782676 -5 -2 -2
31 0 1 0 5.047776378386496 4.45012241998795 9.57754601737275 4 3 0
36 0 1 0 6.360864605062459 6.709168127502922 10.005623152899098 1 6 -3
15 0 1 0 8.802096340595472 4.700017579080699 8.024549667200226 -3 5 -1
35 0 1 0 10.167585622430305 5.760055255927829 9.939807244736297 -6 -1 4
33 0 1 0 2.712681131668097 9.23103590051982 7.872333826365503 -3 5 1
54 0 1 0 2.298202663788564 9.777477604568698 10.325419783145186 4 5 5
6 0 1 0 5.319416248512313 8.804146730083172 10.328706369042713 3 -4 3
19 0 1 0 4.929846481328476 9.73110208274095 8.025876522971705 -4 0 -4
58 0 1 0 5.603439449559447 7.36427723108283 7.557640261747008 0 -2 -4
11 0 1 0 10.745712462711214 7.727582995607613 8.420527015916726 -2 1 3
60 0 1 0 8.251250664849334 7.239024696886272 7.789231247727573 0 0 6
38 0 1 0 8.123702704797488 8.945279296921846 10.146110811724785 9 -5 -5
10 0 1 0 10.182704396483501 10.010176197394497 8.962880444098442 3 9 0

Velocities

5 2.0068824159166914 0.6849360721703831 -11.633041995778363
8 -12.356708319190362 -1.670711960694824 -4.492229233954408
17 -0.34937725051606394 15.308024377484411 -4.799001321398199
29 -2.138799068219455 5.32801268577472 4.016459838434741
49 1.8388308162249094 -19.48688332777673 -16.19222103019518
42 7.32603466910896 -1.4085412103752721 3.095108146892328
40 22.75598527422914 12.47390823925435 -9.013930030481772
45 -6.678861918749873 -2.0591962526390826 -2.1132079158158854
44 -3.0398252752297354 -10.414757925987695 -11.098182292353476
52 -4.471804090600227 -9.751177472038044 -8.687933778845931
64 -4.8582776016927465 -15.108657045316802 -5.1686844572238195
25 0.37450768396245687 4.4665682875082995 -6.1064352890683224
18 -6.561572324564365 -3.051798439324917 -7.210647019023304
20 -4.658685280282674 1.2319268085415762 -14.01555066014248
47 5.651911936029533 6.877618151156473 -1.2894097138485312
23 -0.19752311528358002 5.4480424940849375 -1.8367983769592062
41 -6.676753829548829 6.834471581929054 4.401851128416234
57 -10.005997244142232 0.9706089782970829 -4.443133264135665
7 11.96155983639531 -7.14178154806792 -5.902995706271674
27 12.744611282257104 9.16464960440556 9.775288499577355
12 5.108207626500801 -1.891697379851746 -2.5890153978491535
63 7.087446095243345 -10.279822632131303 9.818977190716966
24 -4.777865349051293 0.3383756926669359 -5.335314196838773
53 -9.389653993656687 13.260230798607255 2.3943431603366077
21 -3.7426572962899307 5.705763103230959 8.98603604731463
37 5.145237917273464 -4.167832573478402 6.172328839750081
55 -7.888353621912068 3.5997209971444066 -6.119482656427065
14 -13.927847981734041 -2.998024899479197 10.857944348297979
30 -0.09953264096528543 7.845250234071209 2.445536209284875
32 14.486919700349072 -0.7741298609449997 -1.5037384332971524
26 5.564388441906942 6.409799016419363 10.002593773996022
46 8.391051570725052 -8.963047603381973 -6.263851290350969
59 -9.733728768123962 2.469768496193763 2.136791725480844
39 12.416064371907439 -5.7843888230617395 3.308237023511414
4 3.948320401874728 -7.506286824362379 -2.1768387677908563
62 1.5637539254612327 15.837994572798834 -2.1372705713571474
16 3.8242915613304116 -2.229617979148687 9.64519566978847
50 8.293496045368402 1.336128482595132 8.811362057259043
28 -8.219443965634177 5.006544674589806 6.37442985709343
3 7.3389238886627615 -2.8959704088424285 -16.82795917036197
2 -1.6612761803025262 0.05714489761429684 6.323617053538859
56 9.913108571949893 -0.7095783338114596 8.400800774429367
43 -5.1631827705524165 1.9225075908151814 -2.62485286658082
34 -14.754473120119412 7.2639353233087816 9.181357594380422
1 -13.053412383941128 -11.701726377962734 -0.3418030523706173
9 -2.2586876477803424 -7.961633396620755 -0.9539240979346677
13 4.34550132764869 0.8642163104018893 11.356938762418379
22 5.345652403524744 19.33919347789695 -1.3711603817906148
61 5.020543334166092 1.2540484645984227 3.192005179026416
51 10.168197200139016 -8.908882569776335 1.2498054537267131
48 -2.942914448411771 -6.973446745420522 6.428784916933572
31 1.918312768440012 -4.48050427197903 -5.93353243376164
36 2.371481582949911 2.1130665507195845 13.757650162469034
15 -10.920382943393873 -7.976730971737973 -4.203904939017075
35 2.5666714099647288 -2.7978628332363766 -4.790103072052339
33 -0.18258569595235696 -5.01574065870174 3.9995876615496
54 -4.530994794330568 4.4404691321144165 10.044544162778159
6 -0.009696921640189387 7.868297460875763 -1.2930657770555374
19 -11.262502259711633 -7.6539607502058615 4.323474783191383
58 2.587485150253662 6.844418980253825 -1.5691523259532707
11 10.876523033104261 -7.040450937856704 6.586843433267054
60 -12.0624108392108 1.7921487400404243 0.18992077839348764
38 -6.700221809524688 12.564739092668821 2.2520812383911495
10 2.334108507383095 -8.117687356032478 -9.491523954423895
