LAMMPS (23 Jun 2022)
OMP_NUM_THREADS environment is not set. Defaulting to 1 thread. (src/comm.cpp:98)
  using 1 OpenMP thread(s) per MPI task
echo both

# Define some variables
variable	temperature equal 1700.
variable	tempDamp equal 0.1 # approx 0.1 ps
variable	pressure equal -10000.
variable	pressureDamp equal 1.0
variable	seed equal 74581

# Setup
units		metal
atom_style	full

# Initial configuration
# Cubic diamond lattice
lattice 	diamond 5.4307
Lattice spacing in x,y,z = 5.4307 5.4307 5.4307
region          myreg block 0 2 0 2 0 2
create_box      1 myreg
Created orthogonal box = (0 0 0) to (10.8614 10.8614 10.8614)
  1 by 1 by 1 MPI processor grid
create_atoms 	1 random 64 12345 myreg overlap 0.4 maxtry 500
Created 64 atoms
  using lattice units in orthogonal box = (0 0 0) to (10.8614 10.8614 10.8614)
  create_atoms CPU = 0.001 seconds
variable 	mass equal 28.0855
mass            1 ${mass}
mass            1 28.0855

# More setup options
variable	out_freq equal 500
variable	out_freq2 equal 5000
neigh_modify    delay 10 every 1
pair_style 	sw
pair_coeff 	* * Si.sw Si
Reading sw potential file Si.sw with DATE: 2007-06-11
timestep	0.002
thermo          ${out_freq}
thermo          500
thermo_style 	custom step temp pe press lx
restart 	${out_freq} Restart.lmp Restart2.lmp
restart 	500 Restart.lmp Restart2.lmp

# Perform minimization
minimize 1.0e-2 1.0e-3 100 1000
WARNING: Using 'neigh_modify every 1 delay 0 check yes' setting during minimization (src/min.cpp:187)
Neighbor list info ...
  update every 1 steps, delay 0 steps, check yes
  max neighbors/atom: 2000, page size: 100000
  master list distance cutoff = 5.77118
  ghost atom cutoff = 5.77118
  binsize = 2.88559, bins = 4 4 4
  1 neighbor lists, perpetual/occasional/extra = 1 0 0
  (1) pair sw, perpetual
      attributes: full, newton on
      pair build: full/bin
      stencil: full/bin/3d
      bin: standard
Per MPI rank memory allocation (min/avg/max) = 7.141 | 7.141 | 7.141 Mbytes
   Step          Temp          PotEng         Press            Lx      
         0   0             -169.1764       198360.21      10.8614      
        10   0             -236.97934     -75937.196      10.8614      
Loop time of 0.00364448 on 1 procs for 10 steps with 64 atoms

78.5% CPU use with 1 MPI tasks x 1 OpenMP threads

Minimization stats:
  Stopping criterion = energy tolerance
  Energy initial, next-to-last, final = 
     -169.176402825968  -234.742633325965  -236.979344783917
  Force two-norm initial, final = 47.138491 4.5033468
  Force max component initial, final = 13.139347 0.9964586
  Final line search alpha, max atom move = 0.082494863 0.082202715
  Iterations, force evaluations = 10 10

MPI task timing breakdown:
Section |  min time  |  avg time  |  max time  |%varavg| %total
---------------------------------------------------------------
Pair    | 0.0027455  | 0.0027455  | 0.0027455  |   0.0 | 75.33
Bond    | 2.175e-06  | 2.175e-06  | 2.175e-06  |   0.0 |  0.06
Neigh   | 0.00015412 | 0.00015412 | 0.00015412 |   0.0 |  4.23
Comm    | 4.2027e-05 | 4.2027e-05 | 4.2027e-05 |   0.0 |  1.15
Output  | 0          | 0          | 0          |   0.0 |  0.00
Modify  | 0          | 0          | 0          |   0.0 |  0.00
Other   |            | 0.0007007  |            |       | 19.23

Nlocal:             64 ave          64 max          64 min
Histogram: 1 0 0 0 0 0 0 0 0 0
Nghost:            494 ave         494 max         494 min
Histogram: 1 0 0 0 0 0 0 0 0 0
Neighs:              0 ave           0 max           0 min
Histogram: 1 0 0 0 0 0 0 0 0 0
FullNghs:         2532 ave        2532 max        2532 min
Histogram: 1 0 0 0 0 0 0 0 0 0

Total # of neighbors = 2532
Ave neighs/atom = 39.5625
Ave special neighs/atom = 0
Neighbor list builds = 1
Dangerous builds = 0

# NVT equilibration

fix             1 all nve
fix             2 all temp/csvr ${temperature} ${temperature} ${tempDamp} ${seed}
fix             2 all temp/csvr 1700 ${temperature} ${tempDamp} ${seed}
fix             2 all temp/csvr 1700 1700 ${tempDamp} ${seed}
fix             2 all temp/csvr 1700 1700 0.1 ${seed}
fix             2 all temp/csvr 1700 1700 0.1 74581

velocity        all create ${temperature} ${seed} dist gaussian
velocity        all create 1700 ${seed} dist gaussian
velocity        all create 1700 74581 dist gaussian
run             25000
Per MPI rank memory allocation (min/avg/max) = 6.016 | 6.016 | 6.016 Mbytes
   Step          Temp          PotEng         Press            Lx      
        10   1700          -236.97934     -64396.931      10.8614      
       500   1563.2258     -237.72582     -29023.992      10.8614      
      1000   1682.6216     -241.70513     -45626.899      10.8614      
      1500   1618.5236     -240.06598     -46060.603      10.8614      
      2000   1871.7581     -240.73674     -26076.773      10.8614      
      2500   1673.3531     -240.84089     -24231.881      10.8614      
      3000   1746.9668     -242.30663     -22637.152      10.8614      
      3500   1759.0315     -241.7117      -61052.437      10.8614      
      4000   1715.6063     -239.14661     -29866.447      10.8614      
      4500   1447.8119     -237.07018     -29489.995      10.8614      
      5000   1752.2307     -241.44257     -42032.992      10.8614      
      5500   1842.5387     -239.60668     -14964.115      10.8614      
      6000   1558.0228     -240.38847     -32695.258      10.8614      
      6500   1892.8537     -238.34455     -35134.628      10.8614      
      7000   1416.9723     -240.31484     -52812.254      10.8614      
      7500   1658.0838     -241.34654     -51576.763      10.8614      
      8000   2023.6467     -240.20645     -38948.895      10.8614      
      8500   1705.1548     -240.52747     -31443.421      10.8614      
      9000   1588.6549     -241.87912     -8387.8941      10.8614      
      9500   1695.8957     -240.68859     -41192.976      10.8614      
     10000   2062.5668     -240.53515     -32003.503      10.8614      
     10500   1707.2779     -240.22584     -52516.262      10.8614      
     11000   1542.7659     -240.99764     -23098.732      10.8614      
     11500   1470.7088     -241.46183     -39024.255      10.8614      
     12000   1535.1085     -238.41121     -40422.858      10.8614      
     12500   1579.5482     -241.88714     -14871.738      10.8614      
     13000   1825.184      -239.33104     -17460.994      10.8614      
     13500   2291.5241     -237.53736     -42898.132      10.8614      
     14000   1716.7655     -238.62837     -47303.138      10.8614      
     14500   1595.2061     -238.82862     -17046.879      10.8614      
     15000   1762.7015     -239.72951     -33438.401      10.8614      
     15500   1476.4561     -241.8364      -20458.627      10.8614      
     16000   1874.0812     -243.41307     -21821.135      10.8614      
     16500   1537.6697     -241.88033     -12960.064      10.8614      
     17000   1789.1552     -237.67883     -16437.756      10.8614      
     17500   1829.382      -237.1744      -4238.5617      10.8614      
     18000   1765.0943     -242.43931     -38727.554      10.8614      
     18500   1689.0801     -245.14606     -52749.888      10.8614      
     19000   1438.0306     -239.72017     -35871.055      10.8614      
     19500   1889.8157     -240.71226     -22633.231      10.8614      
     20000   1738.8746     -241.66928     -21237.705      10.8614      
     20500   1487.8913     -238.51389     -36571.399      10.8614      
     21000   1984.4009     -238.49601     -30060.268      10.8614      
     21500   1753.541      -237.6583      -58039.323      10.8614      
     22000   1865.6256     -236.57075     -50888.404      10.8614      
     22500   1945.9405     -236.77094     -16192.71       10.8614      
     23000   1494.4142     -242.55287     -44995.465      10.8614      
     23500   1727.8919     -241.28064     -39767.672      10.8614      
     24000   1720.4556     -242.44948     -9600.2697      10.8614      
     24500   1883.8172     -241.84065     -27023.194      10.8614      
     25000   1709.6379     -239.71228     -30437.399      10.8614      
     25010   1799.9026     -239.46699     -23019.736      10.8614      
Loop time of 5.81466 on 1 procs for 25000 steps with 64 atoms

Performance: 742.950 ns/day, 0.032 hours/ns, 4299.477 timesteps/s
98.7% CPU use with 1 MPI tasks x 1 OpenMP threads

MPI task timing breakdown:
Section |  min time  |  avg time  |  max time  |%varavg| %total
---------------------------------------------------------------
Pair    | 5.5405     | 5.5405     | 5.5405     |   0.0 | 95.29
Bond    | 0.0059893  | 0.0059893  | 0.0059893  |   0.0 |  0.10
Neigh   | 0.11614    | 0.11614    | 0.11614    |   0.0 |  2.00
Comm    | 0.061836   | 0.061836   | 0.061836   |   0.0 |  1.06
Output  | 0.028395   | 0.028395   | 0.028395   |   0.0 |  0.49
Modify  | 0.039686   | 0.039686   | 0.039686   |   0.0 |  0.68
Other   |            | 0.0221     |            |       |  0.38

Nlocal:             64 ave          64 max          64 min
Histogram: 1 0 0 0 0 0 0 0 0 0
Nghost:            496 ave         496 max         496 min
Histogram: 1 0 0 0 0 0 0 0 0 0
Neighs:              0 ave           0 max           0 min
Histogram: 1 0 0 0 0 0 0 0 0 0
FullNghs:         2514 ave        2514 max        2514 min
Histogram: 1 0 0 0 0 0 0 0 0 0

Total # of neighbors = 2514
Ave neighs/atom = 39.28125
Ave special neighs/atom = 0
Neighbor list builds = 780
Dangerous builds = 0

unfix           1
unfix           2

# NPT equilibration
fix             1 all nph iso ${pressure} ${pressure} ${pressureDamp}
fix             1 all nph iso -10000 ${pressure} ${pressureDamp}
fix             1 all nph iso -10000 -10000 ${pressureDamp}
fix             1 all nph iso -10000 -10000 1
fix             2 all temp/csvr ${temperature} ${temperature} ${tempDamp} ${seed}
fix             2 all temp/csvr 1700 ${temperature} ${tempDamp} ${seed}
fix             2 all temp/csvr 1700 1700 ${tempDamp} ${seed}
fix             2 all temp/csvr 1700 1700 0.1 ${seed}
fix             2 all temp/csvr 1700 1700 0.1 74581

velocity        all create ${temperature} ${seed} dist gaussian
velocity        all create 1700 ${seed} dist gaussian
velocity        all create 1700 74581 dist gaussian
run             50000
Per MPI rank memory allocation (min/avg/max) = 6.017 | 6.017 | 6.017 Mbytes
   Step          Temp          PotEng         Press            Lx      
     25010   1700          -239.46699     -23697.914      10.8614      
     25500   1594.5835     -240.75488      20182.069      10.707315    
     26000   1598.2169     -240.67123      36157.281      10.651217    
     26500   1614.6977     -242.73628      15731.597      10.686328    
     27000   1848.8407     -242.67419     -36645.918      10.724906    
     27500   1769.0733     -243.75049     -24680.249      10.68638     
     28000   1668.0906     -242.11782      8829.5196      10.666225    
     28500   1564.4106     -240.35584     -14036.261      10.636869    
     29000   1707.1996     -239.30337      2084.0561      10.618498    
     29500   1643.0613     -240.13777     -7686.5177      10.66901     
     30000   1758.0583     -242.35806     -9755.317       10.681245    
     30500   1916.8475     -239.81038     -30615.046      10.663476    
     31000   1783.8336     -242.34858      11054.258      10.630093    
     31500   2093.4839     -238.74938      34460.831      10.632805    
     32000   1657.6534     -242.34401     -27449.658      10.717729    
     32500   1703.3861     -242.60924      25629.986      10.664395    
     33000   1953.2906     -240.64187     -2630.3619      10.671762    
     33500   1682.8669     -240.79013     -13566.037      10.717034    
     34000   1479.135      -241.56166      3074.0917      10.707265    
     34500   1719.2411     -239.55        -13596.839      10.703702    
     35000   1882.6727     -239.61135      51832.978      10.647999    
     35500   1740.4784     -241.43928     -5627.9443      10.672514    
     36000   1490.0987     -242.11047      35359.433      10.573936    
     36500   1772.5075     -244.17107      2075.7616      10.694681    
     37000   1927.8873     -242.50942     -40719.715      10.742504    
     37500   1561.8183     -242.54532     -30052.139      10.726567    
     38000   1635.3057     -238.13811     -42987.764      10.779933    
     38500   2197.357      -239.52115     -27164.936      10.735189    
     39000   1622.1914     -240.25195     -38374.63       10.667935    
     39500   1607.2936     -239.00771     -50087.102      10.796465    
     40000   1683.3995     -240.72019     -24567.72       10.702276    
     40500   1373.3689     -241.6461       14968.16       10.626908    
     41000   1766.9864     -240.24732      11364.617      10.726769    
     41500   1493.7435     -241.6688      -6856.8063      10.694623    
     42000   1999.086      -238.95786     -36179.501      10.731884    
     42500   2035.154      -239.8932       27087.643      10.619235    
     43000   1653.1715     -241.09472      12872.248      10.699896    
     43500   1758.0704     -244.23786      42270.531      10.575864    
     44000   1659.2122     -241.98788     -23142.208      10.660641    
     44500   1620.8207     -238.71277     -16772.914      10.659803    
     45000   1679.588      -241.90095      1183.9688      10.686313    
     45500   1612.4621     -240.4501      -18027.453      10.751441    
     46000   1986.2906     -241.539       -16453.029      10.678216    
     46500   1935.5248     -241.72923      6979.1958      10.652718    
     47000   1926.3138     -238.22953     -45783.444      10.790871    
     47500   1876.9066     -237.79186     -15587.59       10.771448    
     48000   1384.9462     -239.04214     -25813.135      10.762115    
     48500   1682.5504     -239.63571     -5679.0138      10.685291    
     49000   1478.825      -239.60908     -11822.512      10.780495    
     49500   1947.248      -240.90882     -35631.136      10.757942    
     50000   1492.7795     -240.1071      -25636.357      10.69975     
     50500   1887.5223     -238.99597     -26291.9        10.788614    
     51000   1635.1793     -239.71318     -11785.264      10.674486    
     51500   1821.5866     -243.56138     -35147.335      10.785107    
     52000   1802.9733     -242.57775     -14185.943      10.75482     
     52500   1390.9014     -241.65664     -23468.103      10.745758    
     53000   1631.1658     -238.92979      7879.2246      10.68488     
     53500   1820.1195     -241.35879     -25321.931      10.650734    
     54000   1636.5802     -239.34894     -14151.47       10.756592    
     54500   1574.9841     -238.771        17802.351      10.641704    
     55000   1552.4604     -241.13204     -16791.661      10.758735    
     55500   1655.6832     -240.13065     -12493.345      10.71643     
     56000   1523.879      -240.12898      20812.98       10.706284    
     56500   1731.8957     -241.65077     -28454.147      10.723455    
     57000   1711.2019     -238.51726     -1990.7526      10.703248    
     57500   1765.813      -242.12241     -22156.097      10.67962     
     58000   1730.7176     -240.94589     -37571.553      10.72094     
     58500   1597.037      -244.15374     -38033.98       10.825687    
     59000   1766.4723     -240.88516     -49484.018      10.815305    
     59500   1534.6605     -240.70837     -40533.853      10.83939     
     60000   1756.0836     -240.81421     -19820.091      10.758167    
     60500   1493.6875     -242.71563     -69.892017      10.800281    
     61000   1505.6891     -239.07002     -5914.2362      10.837809    
     61500   1687.1707     -238.63902     -18504.387      10.867025    
     62000   1731.0168     -242.3891       1009.3338      10.74866     
     62500   1388.6537     -239.40882     -5230.3754      10.801461    
     63000   1837.9468     -238.24544      35607.02       10.678256    
     63500   1609.4846     -241.24415     -6783.835       10.706906    
     64000   1695.8121     -241.44972      32522.716      10.585236    
     64500   1492.5068     -238.96612     -17983.358      10.719913    
     65000   1837.1154     -243.52692      12053.804      10.722501    
     65500   1538.3321     -240.8584      -3694.4863      10.749931    
     66000   1669.3392     -240.49007      479.95864      10.682589    
     66500   1901.1304     -239.45571     -38603.538      10.850393    
     67000   1923.8621     -243.50411     -23367.018      10.68603     
     67500   1530.6542     -238.56018      18397.369      10.682612    
     68000   1614.675      -239.34707     -20997.358      10.733615    
     68500   1614.0574     -242.0125       32065.578      10.690322    
     69000   1651.9438     -238.92969     -31396.364      10.788747    
     69500   1678.2866     -240.37546     -9576.9117      10.760265    
     70000   1812.6059     -243.26973     -20974.893      10.675804    
     70500   1685.4171     -240.37173      10207.528      10.580311    
     71000   1697.7891     -239.69363      379.21979      10.689023    
     71500   1771.152      -241.07826      13277.635      10.631347    
     72000   1958.1798     -242.41729     -2685.4606      10.696274    
     72500   1854.1109     -239.18015     -12693.926      10.707928    
     73000   1916.5499     -238.36141     -35273.248      10.799517    
     73500   1902.7019     -242.86507      4763.4418      10.70679     
     74000   1578.3506     -238.84427     -23476.536      10.702334    
     74500   1771.1865     -240.85145      22689.585      10.656842    
     75000   1487.4686     -239.45574      30719.939      10.75333     
     75010   1741.3719     -241.50075      10784.884      10.777356    
Loop time of 13.5444 on 1 procs for 50000 steps with 64 atoms

Performance: 637.902 ns/day, 0.038 hours/ns, 3691.561 timesteps/s
98.9% CPU use with 1 MPI tasks x 1 OpenMP threads

MPI task timing breakdown:
Section |  min time  |  avg time  |  max time  |%varavg| %total
---------------------------------------------------------------
Pair    | 12.875     | 12.875     | 12.875     |   0.0 | 95.06
Bond    | 0.011206   | 0.011206   | 0.011206   |   0.0 |  0.08
Neigh   | 0.25049    | 0.25049    | 0.25049    |   0.0 |  1.85
Comm    | 0.12664    | 0.12664    | 0.12664    |   0.0 |  0.93
Output  | 0.055882   | 0.055882   | 0.055882   |   0.0 |  0.41
Modify  | 0.17755    | 0.17755    | 0.17755    |   0.0 |  1.31
Other   |            | 0.04758    |            |       |  0.35

Nlocal:             64 ave          64 max          64 min
Histogram: 1 0 0 0 0 0 0 0 0 0
Nghost:            512 ave         512 max         512 min
Histogram: 1 0 0 0 0 0 0 0 0 0
Neighs:              0 ave           0 max           0 min
Histogram: 1 0 0 0 0 0 0 0 0 0
FullNghs:         2558 ave        2558 max        2558 min
Histogram: 1 0 0 0 0 0 0 0 0 0

Total # of neighbors = 2558
Ave neighs/atom = 39.96875
Ave special neighs/atom = 0
Neighbor list builds = 1651
Dangerous builds = 0

unfix           1
unfix           2

reset_timestep 	0

# Dump trajectories in dump format
dump            myDump all atom ${out_freq2} si.lammps-dump-text
dump            myDump all atom 5000 si.lammps-dump-text

# NPT production

fix             1 all nph iso ${pressure} ${pressure} ${pressureDamp}
fix             1 all nph iso -10000 ${pressure} ${pressureDamp}
fix             1 all nph iso -10000 -10000 ${pressureDamp}
fix             1 all nph iso -10000 -10000 1
fix             2 all temp/csvr ${temperature} ${temperature} ${tempDamp} ${seed}
fix             2 all temp/csvr 1700 ${temperature} ${tempDamp} ${seed}
fix             2 all temp/csvr 1700 1700 ${tempDamp} ${seed}
fix             2 all temp/csvr 1700 1700 0.1 ${seed}
fix             2 all temp/csvr 1700 1700 0.1 74581

velocity        all create ${temperature} ${seed} dist gaussian
velocity        all create 1700 ${seed} dist gaussian
velocity        all create 1700 74581 dist gaussian
run             500000
Per MPI rank memory allocation (min/avg/max) = 7.019 | 7.019 | 7.019 Mbytes
   Step          Temp          PotEng         Press            Lx      
         0   1700          -241.50075      10497.414      10.777356    
       500   1663.7997     -241.2242      -22336.425      10.758082    
      1000   1736.3366     -240.72105      22197.797      10.701294    
      1500   1426.3706     -242.46275      25642.662      10.649111    
      2000   1549.968      -241.19085     -16202.187      10.721101    
      2500   1570.8469     -240.94675     -19441.305      10.635855    
      3000   1911.6567     -242.83839      5169.961       10.679441    
      3500   1582.2071     -242.96839     -2979.7663      10.694238    
      4000   1741.3451     -240.65437      11002.715      10.82594     
      4500   1498.9567     -243.19683      6678.1618      10.695751    
      5000   1694.7485     -242.88727     -21519.43       10.765828    
      5500   1856.3623     -238.43418      22858.45       10.682081    
      6000   1851.2691     -245.3269      -7019.0841      10.733537    
      6500   1939.3377     -239.3042      -6183.308       10.745035    
      7000   1563.6563     -242.86517     -19184.553      10.739235    
      7500   1700.2653     -241.56317      17693.672      10.632834    
      8000   1507.5641     -235.18703     -7360.7127      10.78426     
      8500   1861.6139     -244.23325      2642.7634      10.703593    
      9000   1721.7309     -244.60163     -20411.731      10.714776    
      9500   1815.6695     -241.88079     -20683.46       10.698534    
     10000   1721.9428     -239.47799     -47317.907      10.778431    
     10500   1655.7432     -243.59096     -9957.8345      10.754944    
     11000   1801.6226     -243.48999     -2567.2492      10.650785    
     11500   1516.9295     -240.82045     -39376.314      10.777097    
     12000   1839.7321     -240.02988      16146.196      10.585343    
     12500   1504.4274     -239.95533     -8648.0677      10.663797    
     13000   1802.3218     -239.40083      6313.6048      10.644369    
     13500   2099.4381     -237.42973     -21470.545      10.748238    
     14000   1745.7039     -241.04602     -23827.068      10.728832    
     14500   1818.911      -240.89832     -14416.474      10.732129    
     15000   1605.4668     -240.33287     -6379.3707      10.726229    
     15500   1482.8843     -243.645       -28702.624      10.709406    
     16000   1546.2069     -241.28679     -12555.01       10.66078     
     16500   1542.5424     -241.98274     -14650.785      10.656355    
     17000   1746.2315     -240.89217      18515.856      10.639946    
     17500   1909.3743     -240.80238     -7174.8942      10.649785    
     18000   1707.6963     -241.55495      4653.0286      10.675414    
     18500   1840.9329     -243.77039      21356.774      10.746153    
     19000   1550.765      -242.94224     -36797.475      10.832927    
     19500   1771.4294     -241.53717      8890.8949      10.601922    
     20000   1678.3223     -242.09575     -1738.2517      10.630839    
     20500   1409.929      -238.37001     -51119.693      10.784486    
     21000   1867.2372     -238.43884      39126.388      10.64583     
     21500   1757.9459     -239.84085     -2670.8315      10.682488    
     22000   1832.6769     -238.59057      4728.8317      10.778362    
     22500   1699.3075     -237.30582     -35770.082      10.688377    
     23000   1589.9311     -243.06505     -27816.324      10.664296    
     23500   1860.4563     -241.17655     -120.00291      10.673124    
     24000   1616.1846     -240.81607     -38698.179      10.732676    
     24500   1784.2737     -240.40123     -30589.141      10.698495    
     25000   1909.8936     -242.54508      10507.396      10.716579    
     25500   1639.2669     -239.9094      -35188.088      10.703555    
     26000   1544.0893     -239.1788      -59180.422      10.827615    
     26500   1779.5908     -243.42782     -37053.337      10.641427    
     27000   1745.5934     -242.80263     -15791.853      10.734642    
     27500   1530.7451     -242.88022     -32906.445      10.782032    
     28000   1916.4083     -242.04393     -41279.712      10.795602    
     28500   2109.2245     -242.24899     -3215.6186      10.621056    
     29000   1820.6835     -239.31127     -6251.6727      10.680488    
     29500   1400.4527     -237.34506      8327.0822      10.775516    
     30000   1518.9024     -242.91225      31379.061      10.568977    
     30500   1772.5081     -240.06065     -7879.8484      10.617998    
     31000   1752.128      -241.99736      1818.8375      10.612422    
     31500   1804.2893     -241.35937     -18039.98       10.670067    
     32000   1860.7458     -238.42615     -21163.624      10.692331    
     32500   1743.6685     -239.4463      -39113.448      10.750396    
     33000   1649.8278     -240.56115     -10123.456      10.770322    
     33500   1623.5228     -243.23322     -13308.505      10.706705    
     34000   1858.9652     -239.4919      -11099.856      10.660402    
     34500   1565.4769     -240.86296      70.528875      10.722962    
     35000   1727.9619     -241.67318     -27884.177      10.698967    
     35500   1685.0364     -244.32413     -14872.165      10.693749    
     36000   1536.6244     -242.43462     -21822.586      10.728349    
     36500   1815.2722     -243.48437      6947.8738      10.697403    
     37000   1532.9789     -241.51022      28082.869      10.629744    
     37500   1815.8228     -242.6141      -4381.2015      10.641956    
     38000   1675.0633     -239.27851      4512.2817      10.638111    
     38500   1624.7889     -240.11785      11354.307      10.607295    
     39000   1535.5636     -239.85149     -3177.0392      10.759202    
     39500   1791.5248     -241.32687     -11089.7        10.728897    
     40000   1736.6346     -239.98689      12811.365      10.617939    
     40500   1625.7782     -243.04614     -28074.301      10.722861    
     41000   1595.263      -241.4611      -12528.696      10.719201    
     41500   1760.3404     -237.86285     -43800.687      10.807099    
     42000   1724.9251     -240.77103     -5446.3596      10.719096    
     42500   1586.4905     -239.90717      10231.67       10.683196    
     43000   1685.1396     -239.5422      -37366.837      10.722574    
     43500   1559.5728     -242.13342     -6932.8002      10.644461    
     44000   1585.8558     -238.23765     -37374.86       10.783318    
     44500   1853.5761     -242.27775     -32364.301      10.687487    
     45000   1535.6883     -242.72299      6205.3954      10.603958    
     45500   1571.6852     -239.49094     -11818.819      10.672657    
     46000   1786.7693     -239.70999     -3334.6698      10.678375    
     46500   1785.6163     -239.98543     -9389.3082      10.724664    
     47000   1815.4316     -240.35199      12140.968      10.642711    
     47500   1682.3027     -239.58467      22821.035      10.630728    
     48000   1477.1702     -234.54924     -21263.341      10.747374    
     48500   1540.7481     -239.81592      9783.8545      10.687042    
     49000   1642.535      -241.30933     -26627.083      10.759991    
     49500   1791.5273     -240.06515      2865.8936      10.643547    
     50000   1748.5519     -241.79573      16109.702      10.711167    
     50500   1671.4293     -239.28692     -1944.127       10.684345    
     51000   1750.3038     -243.37369      6090.8674      10.690767    
     51500   1530.4272     -240.62443     -25170.734      10.79458     
     52000   1852.3652     -240.21214     -855.21334      10.671321    
     52500   1885.9797     -237.90501     -2168.9997      10.776237    
     53000   1691.6458     -241.76495     -20763.987      10.765155    
     53500   1667.0059     -241.24672     -17951.807      10.735245    
     54000   1692.1126     -243.72329     -8341.533       10.645534    
     54500   1624.091      -243.35399     -13182.096      10.635318    
     55000   1815.3107     -239.44028     -13341.504      10.644008    
     55500   1465.5369     -239.11978     -39501.789      10.755424    
     56000   1516.9727     -240.47467     -4814.2125      10.773268    
     56500   1870.88       -240.43669      8584.9136      10.69482     
     57000   1503.0599     -241.44349      23089.62       10.565473    
     57500   1638.2472     -242.70961      555.40492      10.644667    
     58000   1788.7506     -240.96936      16421.182      10.585122    
     58500   1889.4197     -237.1661      -21678.011      10.720941    
     59000   1805          -241.37681     -18658.86       10.708362    
     59500   1682.7283     -240.28145     -26833.978      10.739475    
     60000   1734.8707     -240.67403     -2334.8451      10.686593    
     60500   1388.7087     -242.88283     -10441.321      10.67316     
     61000   1836.796      -242.92774     -4320.1489      10.671578    
     61500   1611.6272     -242.6687      -14434.727      10.693878    
     62000   2112.3864     -241.96699     -5117.4646      10.644381    
     62500   1687.8811     -242.32958     -28069.764      10.726206    
     63000   1634.9457     -243.14866      623.85673      10.642913    
     63500   1578.3336     -239.96271     -23916.731      10.786293    
     64000   1385.7888     -240.42644     -30178.176      10.767079    
     64500   1628.7684     -241.54456     -11073.018      10.712004    
     65000   1818.4475     -241.58778     -25531.349      10.714888    
     65500   2036.1844     -242.69125      5527.3601      10.715341    
     66000   2015.9128     -242.04883     -7129.5916      10.706423    
     66500   1552.839      -243.11146     -41560.203      10.810439    
     67000   1316.6621     -241.01662      27717.813      10.756127    
     67500   1687.739      -241.16163     -44617.974      10.74872     
     68000   1958.7074     -237.91077     -57740.721      10.877604    
     68500   1502.5887     -236.29821     -30378.394      10.710857    
     69000   1818.6028     -241.84679     -12381.027      10.646199    
     69500   2018.1818     -239.78914     -13303.822      10.674497    
     70000   1469.1287     -240.50001     -29847.385      10.746306    
     70500   1547.316      -239.94337     -32804.779      10.674856    
     71000   1561.7947     -242.06962      10895.59       10.639834    
     71500   1956.5074     -241.12498     -1246.9684      10.699106    
     72000   1501.5736     -243.12363     -17578.549      10.636813    
     72500   1891.4379     -245.80392      2907.5917      10.632507    
     73000   1600.5566     -236.78709     -34361.291      10.790999    
     73500   1722.6308     -238.05269      59.215309      10.615299    
     74000   1418.8494     -240.54784     -23628.167      10.78982     
     74500   1656.2455     -237.23817     -32897.696      10.725665    
     75000   1564.782      -240.26391      10055.414      10.632122    
     75500   1552.2896     -242.31472      1334.0533      10.635179    
     76000   1673.5252     -240.84903     -24250.197      10.751761    
     76500   1531.1487     -239.52862     -27184.403      10.664872    
     77000   1827.5701     -241.29247     -4312.3533      10.67941     
     77500   1649.6216     -240.32313      5236.2442      10.598925    
     78000   1401.6706     -243.57179     -20264.816      10.681434    
     78500   1756.5678     -242.43558      2660.4263      10.675194    
     79000   1882.994      -241.72049     -41372.171      10.755182    
     79500   1850.0435     -241.54221      15299.043      10.640445    
     80000   1918.5928     -239.45719     -14455.045      10.747814    
     80500   1464.2753     -240.55483     -1169.3506      10.67619     
     81000   1899.0445     -240.11725      9315.5358      10.683427    
     81500   1753.166      -238.50674     -29413.24       10.694988    
     82000   1549.4889     -242.12209     -27264.718      10.711459    
     82500   1700.9771     -237.37862     -18941.501      10.739434    
     83000   1945.9006     -244.11503     -10501.755      10.64282     
     83500   1523.7248     -236.95283     -3426.8167      10.677174    
     84000   1671.2538     -239.48378     -31396.197      10.824001    
     84500   1498.0636     -240.23815     -14929.793      10.73732     
     85000   1616.6125     -242.75615     -6781.7502      10.685795    
     85500   1600.5885     -242.79053      1827.4766      10.695277    
     86000   1543.8114     -241.33831     -8588.0936      10.664062    
     86500   1389.7871     -242.52991     -47320.956      10.700312    
     87000   1433.3614     -238.92744     -15279.299      10.671851    
     87500   1691.0946     -241.6308      -4572.6372      10.644124    
     88000   1489.3684     -239.58727     -4219.5224      10.699235    
     88500   1874.1141     -239.91732     -833.20679      10.584084    
     89000   1909.1263     -242.63898      8425.9843      10.67922     
     89500   1746.4522     -241.35182     -7791.2179      10.646201    
     90000   1584.4989     -235.91169     -31049.989      10.779418    
     90500   1823.865      -237.13452      13519.81       10.723234    
     91000   1895.4111     -240.80499      2799.7752      10.640777    
     91500   1234.5093     -243.9765      -17941.284      10.65313     
     92000   1652.9983     -243.37204      15072.78       10.68267     
     92500   1766.5501     -240.09209     -21298.498      10.686154    
     93000   1700.7849     -238.0138       2596.8096      10.651669    
     93500   1735.5902     -242.4438      -31194.277      10.653053    
     94000   1647.0757     -240.8881      -10051.313      10.645956    
     94500   1695.137      -241.92887     -7401.5006      10.680747    
     95000   1960.0638     -243.80953     -9043.7293      10.651906    
     95500   1786.1033     -237.8482      -4466.4737      10.714854    
     96000   1849.1652     -242.51618     -46943.674      10.80691     
     96500   1730.8351     -239.56409     -6534.3203      10.740384    
     97000   1763.9592     -240.74803     -44363.595      10.843988    
     97500   1483.623      -240.03204     -7422.869       10.723915    
     98000   1433.0402     -240.47542      3627.4721      10.66283     
     98500   1809.4424     -241.48766      21494.508      10.620369    
     99000   1558.9534     -241.26558     -6516.6017      10.666231    
     99500   1664.5869     -236.81566     -18308.143      10.75382     
    100000   2036.9158     -238.9426       11390.224      10.735756    
    100500   1525.2346     -240.73869     -25419.879      10.742929    
    101000   1558.8317     -241.71645     -52117.758      10.843244    
    101500   1794.5051     -242.99879     -20551.847      10.727428    
    102000   1488.4458     -243.30631     -33634.923      10.706201    
    102500   1669.5248     -241.35926      793.25604      10.773764    
    103000   1606.9076     -238.78071     -13722.688      10.826933    
    103500   1678.3862     -240.81349     -16738.144      10.696666    
    104000   1478.8844     -239.91992     -558.76574      10.645659    
    104500   1483.8766     -240.65503     -22692.257      10.717856    
    105000   1426.157      -238.02327     -16294.021      10.72793     
    105500   1720.4075     -242.03223      722.06829      10.611482    
    106000   1436.8101     -242.32914      7113.5015      10.598399    
    106500   1593.4284     -242.32638     -22356.88       10.806241    
    107000   2182.3232     -240.66428     -37570.135      10.716488    
    107500   1779.7871     -240.90081      19854.713      10.651257    
    108000   2147.7126     -245.02596      18823.502      10.648293    
    108500   1535.2766     -239.80866     -14322.307      10.744751    
    109000   1647.1135     -238.06358      24636.081      10.640953    
    109500   1503.2057     -243.58271     -24410.21       10.743885    
    110000   1614.2087     -240.72167     -41059.329      10.671204    
    110500   1659.5442     -239.5133       11685.72       10.641873    
    111000   1644.478      -242.57151     -32513.412      10.740989    
    111500   1934.345      -241.7325       1389.4723      10.651661    
    112000   1815.8815     -239.47881     -7654.0247      10.707898    
    112500   1872.1594     -238.06726      16181.313      10.656329    
    113000   1540.4389     -243.49202      27339.573      10.563472    
    113500   1836.7784     -241.17804     -20254.854      10.688588    
    114000   2046.2912     -239.00179     -18173.699      10.812204    
    114500   1672.1609     -240.43364     -44800.701      10.794202    
    115000   1418.0789     -239.0165      -11115.136      10.674024    
    115500   1632.6944     -238.24995      29248.612      10.711041    
    116000   1759.6537     -242.34974     -18260.528      10.718972    
    116500   1784.0907     -243.96877      33232.682      10.612729    
    117000   1686.0942     -241.97964      11305.4        10.722171    
    117500   1451.3172     -243.84969     -13858.948      10.753316    
    118000   1746.0228     -243.25492     -35074.89       10.653923    
    118500   1695.1799     -242.1973      -59579.709      10.803018    
    119000   1992.8015     -239.46407      33459.284      10.663276    
    119500   1587.1711     -239.77737      27997.06       10.62919     
    120000   1650.6418     -238.70229     -185.9698       10.601331    
    120500   1737.6081     -240.67857      17971.774      10.605279    
    121000   1733.7357     -240.31097      2171.3186      10.671576    
    121500   1565.6134     -235.84516     -12147.972      10.692494    
    122000   1651.5167     -240.47127      36411.897      10.67869     
    122500   2026.5916     -239.86505      7920.1377      10.696225    
    123000   1838.4522     -242.55661     -2841.2937      10.648809    
    123500   1489.7288     -242.69205     -14637.482      10.695252    
    124000   1666.3621     -242.1102      -43721.459      10.699967    
    124500   1605.1023     -242.95635      1178.255       10.632027    
    125000   1653.6975     -242.36277     -34017.416      10.684981    
    125500   1391.7766     -241.37864     -28210.235      10.673774    
    126000   1653.7009     -238.74717     -16267.746      10.791701    
    126500   1669.5219     -239.47406     -34593.013      10.72741     
    127000   1711.9552     -241.23776      36790.117      10.633382    
    127500   1401.3422     -241.60409      17234.56       10.666076    
    128000   1607.3722     -242.01307      13968.808      10.631079    
    128500   1728.3341     -240.90595     -4898.3436      10.673719    
    129000   1941.9512     -241.9579      -60394.783      10.750749    
    129500   1863.8557     -242.14891     -27360.432      10.69187     
    130000   1625.9946     -242.51399     -41497.832      10.690937    
    130500   1397.7897     -242.29278     -36977.756      10.772824    
    131000   1848.9044     -239.03124      11657.861      10.745575    
    131500   1579.581      -241.27932     -47141.481      10.701346    
    132000   1607.7837     -242.11456     -5151.1207      10.695856    
    132500   1504.5927     -243.28487     -6534.3136      10.67281     
    133000   1969.4128     -243.9521       9949.3296      10.62766     
    133500   1530.5252     -241.04944     -19925.895      10.66825     
    134000   1755.1309     -238.79579      11085.431      10.616406    
    134500   1430.2911     -241.62269     -40680.36       10.691673    
    135000   1813.3436     -241.53999     -4994.6746      10.61029     
    135500   1506.4386     -240.72789     -7313.0101      10.690047    
    136000   1513.3623     -244.05547     -14094.022      10.703418    
    136500   1669.0966     -240.47133     -14879.521      10.7114      
    137000   1539.5334     -243.63403     -10905.04       10.781324    
    137500   1701.5118     -240.09579     -11871.277      10.749531    
    138000   1462.8328     -239.06763     -39361.676      10.72236     
    138500   1643.3344     -241.7293      -40867.575      10.683936    
    139000   1567.9833     -238.13608      5531.0661      10.668657    
    139500   1750.9248     -239.65451     -181.90011      10.6334      
    140000   1759.6667     -240.63165     -8354.7511      10.666428    
    140500   1742.7634     -239.82898     -39141.377      10.701556    
    141000   1728.5967     -240.58463     -19949.525      10.811539    
    141500   1431.0847     -241.13823     -24050.702      10.694978    
    142000   1391.2758     -238.79587     -3602.3761      10.746245    
    142500   1792.7312     -240.44167      61016.262      10.595004    
    143000   1702.8707     -240.76562      3903.7305      10.619651    
    143500   1732.6166     -241.17847     -12575.712      10.65532     
    144000   1657.9911     -237.18912      2668.2324      10.630922    
    144500   1701.984      -239.65819     -24997.424      10.690382    
    145000   2118.5055     -242.71472     -18771.138      10.591973    
    145500   1445.6908     -239.28213      4615.2319      10.613429    
    146000   2214.8669     -243.06263     -21045.959      10.647212    
    146500   1520.5102     -238.96157     -3415.1608      10.643873    
    147000   1733.5226     -241.70374      45361.033      10.604631    
    147500   1653.435      -242.90673     -23097.5        10.813565    
    148000   2043.0601     -244.14333     -4184.0613      10.683043    
    148500   1507.7333     -241.62671     -33426.569      10.7729      
    149000   2000.9693     -241.55798      17681.702      10.68358     
    149500   1411.5343     -240.78597     -17492.735      10.704472    
    150000   2278.9358     -244.80814     -252.79846      10.619373    
    150500   1721.418      -245.06793     -34442.632      10.71554     
    151000   1481.6419     -242.12942     -26394.069      10.783467    
    151500   1547.075      -241.64926     -21521.514      10.78578     
    152000   1729.141      -237.45718      18209.521      10.662612    
    152500   1788.6855     -237.8384       5184.3719      10.800974    
    153000   1518.5352     -240.33537     -50886.604      10.72353     
    153500   1714.2795     -239.37265      3742.1906      10.652422    
    154000   1736.0503     -241.47017     -16850.603      10.742192    
    154500   1299.749      -239.71972      1404.7423      10.707194    
    155000   1384.3194     -242.76337     -11647.758      10.671625    
    155500   1593.3773     -240.77488     -8271.0245      10.699556    
    156000   1703.6942     -239.11246     -18515.92       10.65345     
    156500   1777.8224     -240.71048     -22479.217      10.699562    
    157000   1756.3049     -240.82478     -8019.4003      10.679031    
    157500   1595.3081     -241.68412     -11882.681      10.754606    
    158000   2106.1592     -240.63979     -21786.059      10.771124    
    158500   1632.2085     -243.13072      11047.938      10.56288     
    159000   1587.0738     -244.05744     -25557.397      10.704699    
    159500   1751.3157     -242.31084     -20383.545      10.670542    
    160000   1629.9362     -240.26768      1968.7805      10.605853    
    160500   1739.071      -244.20119     -32168.855      10.63058     
    161000   1979.1834     -242.80171     -1108.9967      10.689487    
    161500   1699.9569     -242.80874      7389.0863      10.669976    
    162000   1422.6242     -238.85594     -43995.823      10.770268    
    162500   1707.1458     -242.00688     -32823.867      10.697872    
    163000   1704.97       -239.69993     -22531.271      10.6945      
    163500   1878.3812     -240.69687     -4415.8509      10.711322    
    164000   1798.9452     -242.83107      17260.754      10.683031    
    164500   1374.8588     -241.85957     -19974.289      10.708698    
    165000   1488.6782     -243.97295     -12677.005      10.697444    
    165500   1984.7186     -243.84672      39038.67       10.608281    
    166000   1755.3209     -244.16627      41361.978      10.626026    
    166500   1922.9599     -242.64202     -48078.4        10.795195    
    167000   1846.1873     -245.2067      -34680.57       10.780166    
    167500   1422.4593     -239.85386     -2836.1385      10.743794    
    168000   1958.6814     -240.295       -28278.922      10.795752    
    168500   1560.5359     -238.09399     -38871.159      10.774567    
    169000   1767.2453     -241.80735     -26139.733      10.678026    
    169500   1853.4238     -241.01528     -47455.747      10.730167    
    170000   1923.4805     -241.44911      24157.786      10.645918    
    170500   1755.151      -241.03185      757.51745      10.763017    
    171000   1904.4258     -242.16285     -11780.551      10.792838    
    171500   1788.9055     -238.99654     -33691.308      10.779894    
    172000   1946.7881     -243.67621     -16701.39       10.645866    
    172500   2020.5077     -238.25514     -497.47589      10.699809    
    173000   1484.0526     -240.94054      45017.83       10.63519     
    173500   1831.4072     -240.5134       17608.62       10.754244    
    174000   1884.7616     -240.06245     -24737.282      10.719606    
    174500   1910.0246     -240.59922     -21554.395      10.735668    
    175000   1761.0554     -241.24394     -29933.847      10.71462     
    175500   1755.9922     -240.61966      25187.578      10.63321     
    176000   1555.6133     -238.65915     -23340.982      10.801774    
    176500   1818.9815     -240.9873      -47016.895      10.946891    
    177000   1719.7804     -243.23001     -30790.01       10.803896    
    177500   1388.7953     -239.27704     -50658.406      10.987317    
    178000   1694.6831     -241.85155     -3371.5067      10.705125    
    178500   1937.6538     -242.55854     -14735.473      10.63951     
    179000   2069.6828     -238.90633     -46454.931      10.741145    
    179500   1982.9676     -242.55842     -1704.5516      10.661411    
    180000   1793.7276     -240.96528     -20815.026      10.633185    
    180500   1944.3835     -241.33965      7177.3908      10.689824    
    181000   1705.8196     -243.74419      2727.0765      10.610479    
    181500   1993.3084     -243.48322      2198.7458      10.672556    
    182000   1821.1463     -239.45614      31546.495      10.721623    
    182500   1602.5618     -239.75416     -12955.993      10.730074    
    183000   1401.6764     -239.6296      -25398.277      10.78762     
    183500   1711.7666     -244.68904      30107.14       10.618916    
    184000   1505.5456     -242.09312      10295.591      10.6543      
    184500   1727.7365     -238.70616     -24992.16       10.696314    
    185000   1663.2576     -241.72792     -41203.524      10.67672     
    185500   1461.6331     -239.24557      8429.3636      10.695432    
    186000   1832.8259     -238.09474     -33344.958      10.798172    
    186500   1516.8755     -240.71978     -21655.696      10.677483    
    187000   1612.2012     -240.97821     -12963.439      10.753283    
    187500   1741.7292     -238.20312     -29767.554      10.699551    
    188000   1722.7383     -240.16224     -6770.5098      10.665633    
    188500   1761.629      -241.34482     -4809.1658      10.701797    
    189000   1596.7792     -239.44257     -57865.581      10.700777    
    189500   1881.5167     -240.56216     -6767.7624      10.76152     
    190000   1802.9287     -242.35633     -17428.31       10.661997    
    190500   1779.0061     -238.08943      20985.104      10.599564    
    191000   1748.2168     -241.03792     -20735.735      10.724021    
    191500   1870.2868     -239.84071     -20987.414      10.682869    
    192000   1575.159      -243.26897      13458.567      10.675551    
    192500   1822.273      -242.6254      -4782.2637      10.721881    
    193000   1976.1426     -240.08961      18041.717      10.712301    
    193500   2095.1883     -242.82524     -3616.9893      10.727788    
    194000   1607.2735     -241.31039      10341.466      10.591352    
    194500   1438.1507     -242.22028      23435.904      10.594687    
    195000   1670.3005     -239.28782     -32432.082      10.805671    
    195500   1647.2522     -237.85626     -5183.7054      10.682379    
    196000   1232.8774     -242.68041     -30223.512      10.715599    
    196500   1525.9408     -240.3297      -20639.321      10.714052    
    197000   1520.3407     -243.19035      51867.98       10.610584    
    197500   1538.0923     -237.8986      -33286.14       10.795542    
    198000   1720.2919     -238.16803      4104.301       10.666831    
    198500   1724.109      -243.37111     -5076.4899      10.676279    
    199000   1629.3625     -239.80538     -354.14376      10.657942    
    199500   1482.3459     -238.43794     -16102.567      10.644302    
    200000   1860.129      -239.34339     -6272.0253      10.655767    
    200500   1508.6054     -238.05839      32329.626      10.620769    
    201000   1716.5881     -242.57469     -10996.048      10.704645    
    201500   1675.6563     -238.53572     -33278.813      10.76677     
    202000   1421.1805     -238.90911      25323.152      10.774951    
    202500   1511.3137     -238.58105     -6107.2436      10.693048    
    203000   1671.7785     -244.34478     -18095.083      10.728587    
    203500   1607.0432     -239.42169     -10859.852      10.740924    
    204000   1875.489      -243.265        16783.363      10.687956    
    204500   1614.433      -240.76804     -8707.1451      10.700345    
    205000   1513.4601     -239.89279     -24587.231      10.711963    
    205500   1655.6522     -241.51026      14861.425      10.658168    
    206000   2089.887      -240.1929       20453.601      10.629887    
    206500   1752.3937     -241.46514      9358.8151      10.651687    
    207000   1720.3796     -241.30627     -11665.724      10.643226    
    207500   1593.8589     -238.60491      15399.975      10.586882    
    208000   1505.5104     -242.3245       24786.735      10.528676    
    208500   1578.7428     -240.4517      -7402.8589      10.647254    
    209000   1829.7586     -242.33701      12690.039      10.645888    
    209500   1814.4854     -243.20402     -14394.743      10.648824    
    210000   1426.3034     -237.47715      8898.6222      10.688231    
    210500   1823.5438     -240.95198     -27624.208      10.730521    
    211000   1802.3503     -238.64695     -50642.124      10.738432    
    211500   1456.7456     -240.11888     -22821.481      10.738909    
    212000   1667.1912     -240.01855     -30025.227      10.775519    
    212500   1727.42       -242.80421     -13697.051      10.63434     
    213000   1788.8735     -240.38954     -9690.8732      10.70207     
    213500   1758.5135     -242.89758      6275.5909      10.637407    
    214000   1843.2341     -242.8834      -24002.419      10.782253    
    214500   1746.0076     -237.98848     -18694.676      10.837565    
    215000   1439.4275     -238.02157     -55174.178      10.867478    
    215500   1615.1269     -240.6719      -35560.167      10.687312    
    216000   1979.2304     -241.02101      6794.0938      10.6856      
    216500   1728.4055     -237.48302     -18732.591      10.689915    
    217000   1681.9252     -242.32839     -29469.494      10.744145    
    217500   1838.1721     -242.09107      9454.3883      10.679324    
    218000   1446.0742     -241.72351      17070.639      10.651643    
    218500   1796.1685     -238.359       -9891.4754      10.777546    
    219000   1645.907      -240.45845     -17773.678      10.662024    
    219500   1692.002      -240.54428     -8085.8564      10.730426    
    220000   1371.112      -240.84581     -1626.0843      10.718082    
    220500   1778.2834     -240.45506     -41129.452      10.700864    
    221000   1909.3319     -237.09477      1160.4855      10.742175    
    221500   1979.7359     -241.32719     -13247.906      10.703406    
    222000   1497.1536     -240.93909     -22528.514      10.612007    
    222500   2020.4372     -242.95697     -837.35323      10.736533    
    223000   1734.8505     -238.37454      11052.505      10.725432    
    223500   1746.9731     -238.58645     -55480.99       10.755271    
    224000   1657.8023     -241.88512     -29266.138      10.721307    
    224500   1538.5173     -239.52487     -19781.915      10.734782    
    225000   1211.0245     -240.92253     -3451.0648      10.624464    
    225500   1865.3981     -242.55892     -42717.031      10.728039    
    226000   1871.1004     -239.63971     -7522.0852      10.689818    
    226500   2013.7792     -239.73158     -7861.2008      10.660256    
    227000   1608.1482     -242.46329     -31407.198      10.711693    
    227500   1925.6907     -241.20527     -41945.089      10.830885    
    228000   1825.8908     -243.36725      6509.7995      10.748039    
    228500   1666.4222     -238.38824     -15665.88       10.739136    
    229000   1676.6785     -241.7148      -10934.242      10.709642    
    229500   1880.8816     -243.89247      4901.6824      10.590982    
    230000   1881.2285     -239.82461     -57002.291      10.709531    
    230500   1682.63       -238.12836     -3927.8223      10.666335    
    231000   1442.0546     -243.24654     -23219.659      10.64696     
    231500   1829.2449     -240.76824     -31848.872      10.683283    
    232000   1820.018      -245.05837      14269.46       10.605327    
    232500   1461.7938     -241.60452      17497.077      10.74186     
    233000   1816.2146     -240.36171      12229.975      10.663141    
    233500   1622.2745     -239.83498     -65170.045      10.817856    
    234000   1327.3675     -242.78115     -25178.199      10.742845    
    234500   1571.8143     -239.27599      1189.2832      10.762028    
    235000   1527.0971     -240.0911      -10862.634      10.642139    
    235500   1646.9898     -244.91628     -7014.4066      10.687151    
    236000   1662.1921     -241.2561      -6220.0706      10.640346    
    236500   1821.0142     -240.95514     -48627.191      10.769396    
    237000   1665.9283     -239.13351     -33304.455      10.757389    
    237500   1358.9934     -240.92031     -6310.1844      10.672377    
    238000   1562.0672     -240.13729     -18768.221      10.676989    
    238500   1448.1754     -245.21062      1974.9874      10.637448    
    239000   1596.0621     -240.12523     -16946.525      10.777641    
    239500   1714.7602     -238.76425      3066.8214      10.774327    
    240000   1850.8944     -241.55945     -43957.302      10.776958    
    240500   1519.2003     -242.51144     -24035.077      10.713923    
    241000   1583.3274     -240.37072      21732.257      10.664969    
    241500   1636.7183     -242.42449     -9523.2757      10.727301    
    242000   1408.7212     -239.50943     -30896.616      10.682173    
    242500   1741.0353     -242.57799      1487.3988      10.681587    
    243000   1592.1718     -243.02993     -5085.6949      10.757228    
    243500   1535.2996     -239.26408     -11448.38       10.987576    
    244000   1761.8594     -241.26604     -37343.404      10.837226    
    244500   1457.9101     -244.04955     -33068.668      10.732396    
    245000   1687.5928     -241.86553     -20107.306      10.677001    
    245500   1738.8368     -243.39185     -14760.738      10.655495    
    246000   1747.2386     -241.8252      -31836.858      10.746036    
    246500   1716.026      -241.7981       11099.758      10.722473    
    247000   1726.4124     -239.0912      -38616.114      10.692245    
    247500   1858.9872     -240.19377     -9508.8022      10.693743    
    248000   1574.0214     -243.38433     -45897.706      10.754362    
    248500   1945.6719     -244.10425      25369.645      10.57908     
    249000   1830.5818     -239.49815     -41634.695      10.709931    
    249500   1805.518      -242.31357     -20889.783      10.648533    
    250000   1998.2186     -242.59093      25918.015      10.605851    
    250500   1831.4629     -240.3701       18353.652      10.617761    
    251000   1693.5551     -238.52401      27070.368      10.675421    
    251500   1800.0453     -240.54846     -2721.9499      10.808109    
    252000   1363.0725     -240.4216       20292.616      10.600729    
    252500   1872.611      -242.77593      11303.738      10.627091    
    253000   1790.8712     -243.46684      3367.6317      10.678849    
    253500   1676.0316     -244.23595      17416.333      10.66463     
    254000   2257.6082     -241.35544     -32721.109      10.744365    
    254500   1831.7034     -240.78099     -16862.381      10.696044    
    255000   1829.8525     -243.94063     -9221.0812      10.685996    
    255500   1587.9382     -242.57734      11558.404      10.671873    
    256000   1654.4501     -241.9217      -37070.542      10.751045    
    256500   1876.2162     -239.29095     -44928.995      10.856189    
    257000   1575.0783     -239.21021     -20284.744      10.756861    
    257500   1726.0568     -241.95148     -11404.512      10.636376    
    258000   1304.5803     -239.79968     -59778.175      10.777029    
    258500   1594.6219     -239.68253     -22516.76       10.718779    
    259000   1547.9564     -240.74679      13401.842      10.659057    
    259500   1750.7264     -245.35831     -5123.8533      10.72232     
    260000   1589.0322     -241.23437     -36760.536      10.842938    
    260500   1504.9278     -241.1183      -27110.488      10.783218    
    261000   1830.8624     -242.17139      11789.722      10.739837    
    261500   1780.2095     -238.65182      28981.464      10.602933    
    262000   1816.5646     -240.67191     -1320.0894      10.748099    
    262500   1587.6543     -241.68901     -2507.6668      10.686979    
    263000   1619.0069     -241.34064     -27820.786      10.600846    
    263500   1554.3967     -239.28557      29106.545      10.588414    
    264000   1515.1828     -244.59653      2384.0818      10.614022    
    264500   1899.9726     -242.33962     -38771.786      10.704541    
    265000   1385.2094     -244.68453      3836.9372      10.635589    
    265500   1644.2187     -243.99572     -25465.306      10.741075    
    266000   1722.6825     -241.15082      11185.316      10.662563    
    266500   1637.5637     -240.46811     -5087.5162      10.652849    
    267000   1507.8911     -241.66871      5968.9968      10.631916    
    267500   1430.9748     -240.7878      -11107.686      10.692481    
    268000   1661.4581     -242.03508      7350.473       10.715018    
    268500   1827.5634     -240.94558     -6232.624       10.783187    
    269000   1607.8384     -240.6464      -19144.446      10.793185    
    269500   1826.4685     -242.38035     -30727.121      10.765015    
    270000   1658.2525     -240.8081      -15695.99       10.755569    
    270500   1806.0093     -238.54975     -16921.024      10.804048    
    271000   1370.1354     -240.51155     -51552.166      10.84688     
    271500   1682.209      -237.84503      28682.431      10.734644    
    272000   1708.3031     -240.11128      12790.649      10.61967     
    272500   1835.5503     -242.32879     -23522.304      10.692051    
    273000   1968.4942     -241.86209      9429.1566      10.680595    
    273500   1510.0797     -238.17645     -16602.949      10.781238    
    274000   1944.2216     -240.58693     -20257.08       10.808677    
    274500   1599.522      -241.61594     -3049.6459      10.628125    
    275000   1902.3062     -239.50367     -12161.138      10.632175    
    275500   1586.9378     -240.68602     -12768.332      10.628402    
    276000   2261.0736     -239.89769      11661.519      10.604673    
    276500   1863.0601     -242.50383      8351.8557      10.660217    
    277000   1518.8897     -239.99284     -5259.7017      10.697041    
    277500   1398.4845     -240.32247     -48494.121      10.736852    
    278000   1637.4057     -239.09071      12829.171      10.636115    
    278500   1521.7049     -236.94667     -9658.3651      10.742926    
    279000   1612.7463     -243.98982     -40046.54       10.738285    
    279500   1497.1459     -238.98525      31425.182      10.620786    
    280000   1765.9899     -240.92138     -45076.706      10.775921    
    280500   1426.7061     -241.81262      11532.24       10.645531    
    281000   1743.5958     -239.34885     -34419.687      10.782297    
    281500   1611.9066     -239.98115      18579.125      10.700271    
    282000   1438.9569     -242.45228     -56283.081      10.768124    
    282500   1592.3024     -243.82326     -26657.918      10.782391    
    283000   1811.0195     -239.7599      -138.99099      10.699809    
    283500   2311.5052     -238.58162      1323.1299      10.739925    
    284000   1837.6441     -242.95914     -26384.978      10.710522    
    284500   1547.864      -238.97943     -15601.732      10.697552    
    285000   1854.9738     -239.99851     -7420.4893      10.813357    
    285500   2112.4373     -239.55378     -10391.384      10.718561    
    286000   1507.5628     -241.53578     -21268.27       10.735085    
    286500   1747.0391     -240.79831     -19625.693      10.709328    
    287000   1515.8372     -242.05039     -36400.053      10.752235    
    287500   1547.6564     -241.71205     -9184.6453      10.681461    
    288000   2014.3531     -239.97233     -32434.946      10.684894    
    288500   1533.7429     -235.9182      -49728.194      10.735821    
    289000   1658.5498     -243.55131      17096.221      10.634676    
    289500   1466.0225     -240.62934     -48465.077      10.663298    
    290000   1892.9237     -239.96525      1820.1247      10.634506    
    290500   1551.959      -238.89897      12200.089      10.657938    
    291000   1992.5308     -241.04783      14496.465      10.616451    
    291500   1820.1824     -238.91888     -15073.064      10.723163    
    292000   1630.365      -240.72801     -32431.684      10.710909    
    292500   1510.8217     -243.24214     -2086.2956      10.726854    
    293000   1590.5325     -240.40636     -15288.162      10.723821    
    293500   1421.8716     -240.77604     -14891.599      10.692871    
    294000   1997.3734     -239.59819     -50658.376      10.830309    
    294500   1731.5642     -239.39927     -28044.816      10.692522    
    295000   1567.032      -241.80139     -19201.877      10.671215    
    295500   1475.9694     -238.84405      292.75087      10.671981    
    296000   1939.4287     -242.75104     -12880.137      10.723684    
    296500   1671.9944     -242.65418     -12295.65       10.701343    
    297000   1530.3733     -240.43937      14003.439      10.666754    
    297500   1735.528      -240.23928      3913.9886      10.702278    
    298000   1540.6182     -238.3319      -23399.809      10.780301    
    298500   1430.8105     -242.0966      -27482.99       10.715214    
    299000   1609.4833     -242.14726     -26842.54       10.810944    
    299500   1468.5106     -241.41298     -9679.2936      10.800488    
    300000   1861.0616     -240.59237      41207.918      10.580279    
    300500   1628.3412     -240.6473      -18156.645      10.618516    
    301000   1761.0434     -239.37693     -35837.837      10.663144    
    301500   1683.452      -238.17409      24035.535      10.699447    
    302000   1540.1637     -239.58347     -27093.736      10.656989    
    302500   1973.3248     -240.95323      7602.5478      10.705706    
    303000   1568.2615     -241.11999      10653.798      10.712006    
    303500   1878.9037     -238.95487     -6309.6649      10.695693    
    304000   1687.2875     -241.71175     -14085.302      10.712415    
    304500   1916.4484     -242.387       -11190.778      10.738186    
    305000   1832.6306     -238.04443      15041.901      10.64726     
    305500   1962.2998     -242.43475      9479.1312      10.653618    
    306000   1286.8326     -241.91403     -28854.663      10.716884    
    306500   1949.6832     -244.04869     -32972.981      10.75029     
    307000   1904.5078     -243.24168     -6109.6349      10.8571      
    307500   1528.0595     -241.10164     -32336.447      10.809163    
    308000   1388.8486     -237.57733      71793.719      10.610502    
    308500   1901.5052     -238.3715       6490.2676      10.645591    
    309000   1861.5323     -242.069       -40400.246      10.852075    
    309500   1619.0218     -242.73686     -19150.821      10.761196    
    310000   1784.9411     -241.35442     -13807.542      10.793392    
    310500   1484.6935     -241.03169     -20272.125      10.704983    
    311000   1936.5641     -239.63791     -9838.8701      10.739382    
    311500   1441.3327     -239.24667     -41464.67       10.780516    
    312000   1514.0948     -238.64897     -4478.998       10.661766    
    312500   1885.3984     -239.01443     -4105.535       10.713018    
    313000   1943.1009     -240.36295     -20662.677      10.664381    
    313500   1505.5649     -244.27167     -5087.1033      10.646276    
    314000   1875.4003     -241.34307     -54337.145      10.820927    
    314500   1993.9434     -242.02317     -36328.147      10.742968    
    315000   1503.1462     -242.02165      8882.0817      10.63863     
    315500   1333.3187     -238.5323      -45933.382      10.752822    
    316000   1447.6238     -241.57703     -17094.591      10.759121    
    316500   1660.1135     -245.01192      14005.149      10.719315    
    317000   1419.0192     -237.69505      872.95317      10.649429    
    317500   1711.3649     -239.63948      5728.9344      10.724607    
    318000   1955.7489     -241.26197     -45139.233      10.710683    
    318500   1375.288      -242.53255      6388.4127      10.638083    
    319000   1933.0326     -240.15468     -20348.808      10.78642     
    319500   1840.6183     -241.79377     -20957.24       10.74915     
    320000   1925.9339     -240.81261      15017.708      10.624178    
    320500   1967.8637     -240.17128     -3043.4492      10.788199    
    321000   2144.0369     -240.76007     -6371.9014      10.713247    
    321500   1959.2346     -242.74416     -46406.759      10.64813     
    322000   1886.2251     -236.8316      -22239.844      10.823569    
    322500   1999.2507     -243.51299     -53772.197      10.723477    
    323000   1525.2544     -239.01191      855.91734      10.689338    
    323500   2008.0156     -236.75556     -24234.566      10.704062    
    324000   1567.2537     -242.64357     -21781.11       10.559118    
    324500   1567.551      -240.65835     -35646.651      10.752994    
    325000   1598.3468     -238.59186     -33233.092      10.709977    
    325500   1577.9251     -241.34991      16158.665      10.604804    
    326000   2090.7178     -242.06655     -2993.4646      10.703077    
    326500   1697.9648     -240.33586     -17038.584      10.786632    
    327000   1710.5547     -240.00026     -2324.3979      10.718838    
    327500   1565.5009     -240.19617     -39492.579      10.804195    
    328000   1927.7509     -241.04269      4262.3694      10.662518    
    328500   1496.7101     -242.76108     -17198.76       10.753129    
    329000   2018.0891     -241.76226      23403.369      10.648084    
    329500   1948.7598     -242.50822      18655.491      10.66605     
    330000   1978.5287     -238.31739     -14276.338      10.771431    
    330500   1498.9765     -240.00855      6152.5172      10.803365    
    331000   1798.16       -239.89126     -58497.726      10.872277    
    331500   1718.0373     -239.4539      -9511.21        10.71822     
    332000   1777.046      -241.30485     -12963.335      10.66228     
    332500   1821.0096     -239.08749      1390.4183      10.607027    
    333000   1569.7323     -240.33339     -15825.317      10.715724    
    333500   1531.3438     -238.51672     -29178.534      10.696265    
    334000   2012.6643     -239.15889     -10820.734      10.761616    
    334500   1706.141      -239.95152      943.27202      10.624757    
    335000   1660.6983     -243.18784     -12607.698      10.714269    
    335500   1941.0663     -239.24226     -17691.075      10.753545    
    336000   2009.0522     -242.24397     -16053.429      10.646208    
    336500   1372.3822     -241.19804      8627.4623      10.68192     
    337000   1676.6097     -246.23433     -1330.629       10.722967    
    337500   1769.9965     -243.13161      10112.811      10.649504    
    338000   1609.1815     -238.65442     -25567.186      10.790488    
    338500   1678.461      -241.46531     -20068.007      10.854581    
    339000   1617.1345     -244.98487     -27974.819      10.796166    
    339500   1778.3947     -240.26394     -37317.025      10.827092    
    340000   1838.1757     -238.56459     -30024.373      10.799478    
    340500   1473.418      -241.31315      11023.386      10.767525    
    341000   1594.4681     -240.8522       2564.9287      10.644942    
    341500   1936.7939     -240.95529     -33975.878      10.764775    
    342000   1694.1145     -239.85319     -23884.359      10.679688    
    342500   1676.2113     -243.00557     -10829.197      10.683665    
    343000   2080.9491     -240.8916       3107.3779      10.694838    
    343500   1482.3624     -241.11211     -42759.354      10.709338    
    344000   1424.8332     -241.61132     -17023.838      10.695476    
    344500   2087.6356     -238.69218     -5159.0789      10.649386    
    345000   1528.9777     -239.25223      6042.6204      10.749032    
    345500   1815.0376     -241.2645      -31423.977      10.724193    
    346000   1640.4813     -239.45878     -23171.718      10.677579    
    346500   1974.0672     -240.2317      -1840.7835      10.771605    
    347000   1735.8173     -242.34127     -12300.921      10.693447    
    347500   1616.1016     -240.67357     -6539.961       10.791249    
    348000   1757.8512     -242.39243     -8070.2462      10.802138    
    348500   1661.3118     -236.9341      -24366.216      10.758414    
    349000   1601.1487     -239.53182      2066.5445      10.716609    
    349500   1526.3967     -241.04327      14431.445      10.689816    
    350000   1851.5829     -239.04102     -12557.78       10.637736    
    350500   1650.9071     -241.42082      14505.32       10.691642    
    351000   2152.538      -238.58065     -21052.708      10.799368    
    351500   1781.4033     -243.70473     -35190.628      10.888417    
    352000   1788.6232     -238.33827     -24096.604      10.750968    
    352500   1685.9527     -242.9117       14312.141      10.64923     
    353000   1530.7459     -244.04209      3077.8294      10.696014    
    353500   1696.8909     -242.43704      6361.5019      10.689766    
    354000   1693.2325     -238.80486     -48484.044      10.801221    
    354500   1951.4315     -241.16941     -31984.123      10.696241    
    355000   1441.994      -240.62818     -33183.569      10.691139    
    355500   1824.7625     -238.31411     -12368.69       10.677634    
    356000   1988.3204     -238.83031     -1867.7642      10.751603    
    356500   1837.4041     -243.77753     -21833.315      10.675655    
    357000   1865.9858     -243.49991     -5956.6811      10.742248    
    357500   1663.9525     -239.24164      13623.86       10.732848    
    358000   2041.9993     -242.54511     -12141.737      10.674513    
    358500   1894.7178     -241.50158     -3683.8324      10.741498    
    359000   1627.1398     -240.56266      14612.071      10.624981    
    359500   1931.9654     -240.8831      -33885.925      10.689968    
    360000   1543.8962     -241.25474     -28300.986      10.679879    
    360500   1546.9992     -242.97706     -3907.9132      10.760309    
    361000   1888.4848     -241.05973      21379.339      10.688903    
    361500   1903.9933     -243.24159      18068.789      10.661329    
    362000   1678.4011     -242.83956     -24193.634      10.767644    
    362500   1558.5473     -243.72146      17578.461      10.686144    
    363000   1819.1401     -243.20215     -14530.851      10.775948    
    363500   1654.6988     -242.63178     -798.74719      10.736937    
    364000   1900.6842     -239.19529      6076.1955      10.723168    
    364500   1379.8034     -241.86459     -15136.64       10.67038     
    365000   1509.494      -238.52519      17890.907      10.578648    
    365500   1738.9958     -242.11505     -36947.134      10.774462    
    366000   1899.9274     -242.52616     -6627.1826      10.632877    
    366500   1881.8211     -242.34726      11782.875      10.726114    
    367000   1707.1101     -239.72332     -38557.755      10.671786    
    367500   1523.27       -239.1308       9838.202       10.6588      
    368000   1897.4053     -237.27113      25107.371      10.683032    
    368500   1785.4029     -237.10791     -24964.716      10.837355    
    369000   1735.2755     -240.92579     -40684.781      10.877506    
    369500   1928.5928     -242.80359     -35906.966      10.792874    
    370000   1858.6598     -240.46576     -18618.138      10.771639    
    370500   1669.1725     -243.79071      2886.1693      10.678126    
    371000   1736.695      -238.58614     -48314.603      10.772349    
    371500   1619.7332     -239.18688     -14447.319      10.621334    
    372000   1609.4648     -240.18521     -37652.574      10.784197    
    372500   1350.7514     -241.55295     -21963.78       10.646016    
    373000   1663.5081     -241.03513     -3157.7882      10.6663      
    373500   1810.9642     -243.44148     -24529.941      10.633264    
    374000   1582.1072     -241.54316     -18805.381      10.636623    
    374500   1763.2493     -242.71076     -19129.614      10.704122    
    375000   1438.4767     -241.04126     -23450.548      10.833969    
    375500   1512.1174     -241.91894     -11633.802      10.676347    
    376000   1646.94       -238.19404     -16312.176      10.661907    
    376500   1847.8893     -238.83262     -16681.847      10.776579    
    377000   1727.0068     -242.15644     -11271.928      10.748664    
    377500   1573.6807     -240.1511      -8535.07        10.757015    
    378000   1420.5312     -240.9267      -9304.5168      10.764117    
    378500   1508.3927     -241.44131     -15726.265      10.796989    
    379000   1580.1842     -240.53707     -2926.0836      10.610096    
    379500   1652.4684     -238.35547     -3660.4234      10.703311    
    380000   1398.5092     -241.51865      11762.794      10.663406    
    380500   2051.3973     -239.93354     -24548.307      10.851699    
    381000   1592.9269     -241.81627     -11957.448      10.644468    
    381500   1574.1734     -239.28122      14771.785      10.631889    
    382000   1488.6038     -241.33178     -38403.276      10.714271    
    382500   1981.4304     -240.00299      20087.146      10.643908    
    383000   1838.5848     -238.79514     -2629.1986      10.605649    
    383500   1597.9845     -243.96653     -28473.398      10.70346     
    384000   1822.1797     -241.37808     -13899.703      10.705822    
    384500   1632.1894     -240.95011     -5225.9298      10.63533     
    385000   1833.7032     -238.22282     -56537.864      10.840736    
    385500   1742.6693     -238.10393     -26326.714      10.674487    
    386000   1788.5374     -240.45212     -27139.387      10.616999    
    386500   1785.957      -239.50443     -20005.49       10.68718     
    387000   1992.3247     -237.92369     -45692.612      10.717589    
    387500   1677.2862     -237.99006      14750.921      10.635128    
    388000   1607.7215     -241.2677       20162.25       10.615053    
    388500   1611.3609     -239.48664     -32890.749      10.738983    
    389000   1596.1482     -240.5258      -11336.722      10.69627     
    389500   1683.6896     -241.32821     -26220.805      10.689696    
    390000   1575.2113     -242.18498     -17211.501      10.655158    
    390500   1667.2726     -241.59435     -11277.256      10.725257    
    391000   1788.826      -240.85164     -3651.9387      10.612941    
    391500   1794.7555     -240.71688      4831.1195      10.660069    
    392000   1961.2161     -243.98688      14240.455      10.611385    
    392500   1690.058      -243.66976     -3510.2255      10.680609    
    393000   1762.8789     -240.10845     -27975.648      10.807234    
    393500   1652.3962     -243.5085       2174.2141      10.683734    
    394000   1752.1966     -241.8871      -19585.276      10.704626    
    394500   1866.8486     -241.74778     -26109.439      10.654879    
    395000   1513.4479     -241.60333      2827.3139      10.646951    
    395500   1472.5291     -240.45897     -64898.976      10.721279    
    396000   1751.7806     -240.00915     -44872.309      10.826982    
    396500   1542.8131     -239.61946      7079.6305      10.755618    
    397000   1689.4165     -240.75182     -11426.554      10.793595    
    397500   1734.97       -242.13805     -15282.133      10.77754     
    398000   2009.592      -241.51083     -39614.999      10.71075     
    398500   1732.1518     -242.91101      255.22274      10.780813    
    399000   1976.273      -240.45131     -6245.9019      10.672371    
    399500   1758.6655     -240.60376     -28857.785      10.677262    
    400000   1285.9832     -238.59292     -1288.7141      10.742083    
    400500   1609.5155     -242.29857     -12373.015      10.739178    
    401000   2042.6297     -240.16413     -2855.1075      10.66146     
    401500   1797.9521     -240.73519     -5464.8546      10.74835     
    402000   1565.7816     -241.48669     -4885.6669      10.826558    
    402500   1673.0388     -238.21599     -45342.311      10.773577    
    403000   1781.6564     -238.91107     -27035.655      10.698999    
    403500   1892.0448     -241.2998      -27409.6        10.725248    
    404000   1781.1374     -243.27473     -3770.5597      10.716167    
    404500   1625.358      -242.3153       297.27534      10.707085    
    405000   1639.3923     -241.69701     -10609.013      10.706792    
    405500   1659.9604     -242.45423     -10938.354      10.673765    
    406000   1493.3302     -241.56127      32605.572      10.597894    
    406500   1740.0776     -242.11857     -20962.869      10.690782    
    407000   1541.8142     -242.1541      -18825.43       10.708929    
    407500   1845.4275     -241.61637      28172.221      10.713142    
    408000   1569.0079     -239.73365     -9808.3572      10.713802    
    408500   1523.3133     -238.67485      3598.7237      10.696458    
    409000   1477.3322     -242.30431     -11288.899      10.738202    
    409500   1406.7056     -243.25987     -16971.052      10.729058    
    410000   1688.5568     -240.78943     -12666.553      10.651366    
    410500   1258.1463     -239.00654     -29692.122      10.743204    
    411000   1785.8003     -241.49579     -12739.582      10.719579    
    411500   1692.783      -241.06652     -7633.697       10.745586    
    412000   1777.0572     -243.43579      14876.925      10.660427    
    412500   1614.8738     -239.77851     -28322.18       10.760237    
    413000   1870.9804     -242.18232     -19088.258      10.66625     
    413500   1835.6466     -239.99845     -385.05132      10.68058     
    414000   1473.0249     -241.33423     -55132.93       10.73725     
    414500   1597.7518     -243.35628     -28818.652      10.717791    
    415000   1624.3354     -240.03204     -17371.767      10.667432    
    415500   1542.0581     -241.44136     -9355.3281      10.702878    
    416000   1682.0827     -242.70934     -10939.519      10.653427    
    416500   1479.2555     -240.14942     -38543.742      10.758142    
    417000   1855.0409     -240.3565      -13340.323      10.704669    
    417500   1870.2579     -240.44421     -19800.408      10.786545    
    418000   1902.7998     -238.72944     -40517.771      10.635889    
    418500   1755.9783     -239.54435      10470.793      10.709362    
    419000   1783.325      -246.52046      1403.6784      10.675883    
    419500   1607.6947     -241.06926     -9587.8903      10.631326    
    420000   1749.9543     -239.7217      -18801.823      10.699378    
    420500   1606.0684     -238.19995     -2628.0294      10.656856    
    421000   1538.2025     -241.57036     -30623.093      10.781109    
    421500   1601.4443     -242.64281      22680.226      10.628616    
    422000   1678.9056     -239.19156     -32969.558      10.670605    
    422500   1659.6499     -238.18283      25073.38       10.64848     
    423000   2258.1327     -238.49361      56774.929      10.539525    
    423500   1692.7453     -241.49788      30383.616      10.656877    
    424000   2059.7885     -239.59868     -140.36639      10.673606    
    424500   1529.6921     -238.3007      -11582.837      10.737278    
    425000   1579.458      -240.37757      35130.886      10.595843    
    425500   1937.5463     -241.10826      6279.0301      10.68209     
    426000   1451.5283     -241.79689     -3204.3618      10.723536    
    426500   1535.2387     -238.07572     -16274.452      10.671697    
    427000   1661.0374     -239.62321      3160.1685      10.649704    
    427500   2070.0894     -240.59768     -13985.975      10.672053    
    428000   1819.4933     -240.23126      12414.847      10.7354      
    428500   1560.9321     -242.92126     -36023.726      10.64999     
    429000   1770.8629     -241.21608      55.245997      10.734308    
    429500   1671.3513     -243.13915      18653.434      10.690663    
    430000   1832.643      -241.31224     -20676.568      10.675001    
    430500   1612.4221     -239.31368      6540.196       10.710163    
    431000   1636.6119     -238.97104     -4704.0116      10.724174    
    431500   1680.4443     -240.08466      10749.399      10.627085    
    432000   1704.8732     -239.16487     -56368.581      10.826409    
    432500   2033.418      -239.6624       2313.6397      10.716768    
    433000   1795.5237     -243.38957     -15315.431      10.67112     
    433500   1824.3106     -238.38052      4633.1288      10.663809    
    434000   1695.4033     -241.2726      -36839.777      10.726722    
    434500   1635.9791     -240.18625     -34102.019      10.767156    
    435000   1688.8852     -239.27166      534.95516      10.626124    
    435500   1423.3061     -240.10869     -3569.1461      10.727759    
    436000   1493.6267     -240.20105     -35107.076      10.7978      
    436500   1837.5801     -241.10422     -24388.15       10.673792    
    437000   1535.3672     -240.07847     -30815.29       10.670849    
    437500   1947.6692     -241.22932      12027.549      10.697234    
    438000   2017.3643     -241.15056     -17421.46       10.724996    
    438500   1810.7869     -242.58848     -18852.883      10.754923    
    439000   1618.44       -241.70265     -24093.992      10.692986    
    439500   1685.2323     -243.62237     -4203.8362      10.686412    
    440000   1615.9682     -245.51286      6150.9046      10.707828    
    440500   1605.8696     -241.05292     -16633.731      10.656373    
    441000   1555.4242     -239.75854     -45383.827      10.783885    
    441500   1804.7645     -238.7443      -3807.3417      10.636476    
    442000   1857.9945     -242.52534      10154.054      10.565659    
    442500   1433.5445     -238.86883     -16195.66       10.716129    
    443000   1867.8683     -239.88533      5515.5903      10.617098    
    443500   1493.9941     -240.04601     -49018.36       10.871303    
    444000   1601.3098     -241.98934     -26676.725      10.811124    
    444500   1657.1163     -243.99311      4472.8573      10.628417    
    445000   1766.762      -238.76371     -53247.276      10.706974    
    445500   1699.5018     -243.63485     -14627.061      10.698171    
    446000   1589.6979     -240.08496     -5386.1625      10.708504    
    446500   1989.1525     -243.42685     -30951.76       10.78818     
    447000   1866.0904     -237.10276      733.04305      10.634387    
    447500   1625.9355     -240.42474     -44031.472      10.758882    
    448000   1725.7572     -243.52356     -44004.948      10.757289    
    448500   1910.6048     -240.61598     -6932.9634      10.649292    
    449000   1707.8452     -241.91356      8069.7416      10.658132    
    449500   1883.5414     -244.55984      8609.151       10.60922     
    450000   1928.6617     -242.53244     -21363.227      10.622669    
    450500   1903.3521     -240.66589      2437.3564      10.702469    
    451000   1630.7429     -240.38298     -890.6183       10.810924    
    451500   1974.2829     -242.68502      2420.9354      10.74839     
    452000   1621.1697     -242.0156       7393.8644      10.75281     
    452500   1324.1544     -238.21987     -18621.105      10.705766    
    453000   1739.7315     -242.65372     -7847.381       10.738805    
    453500   1561.6209     -240.70295     -11145.193      10.666717    
    454000   1489.4421     -242.44826     -48750.402      10.766119    
    454500   1852.9426     -240.60635     -20782.43       10.754059    
    455000   1767.707      -240.49817     -8208.7802      10.631772    
    455500   1632.0262     -241.31493      11984.325      10.757381    
    456000   1555.8789     -239.04719     -15609.669      10.712199    
    456500   1900.1669     -238.98095     -24177.51       10.793957    
    457000   1527.049      -242.09983     -11319.721      10.725139    
    457500   1996.5611     -241.48577     -42067.202      10.759808    
    458000   1616.6708     -237.62564      15847.533      10.706373    
    458500   1543.8315     -241.63658     -22773.863      10.642999    
    459000   1669.2632     -240.2422      -10133.661      10.767415    
    459500   1601.1923     -240.0276      -478.74138      10.761367    
    460000   1619.8825     -243.70185     -17200.137      10.653592    
    460500   1748.182      -239.07049     -20870.919      10.7525      
    461000   1879.1595     -242.91085      9234.9984      10.730497    
    461500   1687.1022     -239.9343      -11365.529      10.7117      
    462000   1671.2767     -242.37629      32893.401      10.559995    
    462500   1790.4647     -238.21957     -52808.357      10.815533    
    463000   1970.6697     -238.7876       19349.445      10.697136    
    463500   1703.1602     -236.46861     -26068.689      10.806816    
    464000   1508.7776     -241.00205     -36775.292      10.758382    
    464500   1931.0793     -244.63261     -18087.066      10.707482    
    465000   1743.739      -239.00678      7882.5317      10.701403    
    465500   1710.1128     -241.42657     -17770.974      10.670635    
    466000   1919.325      -238.34746     -45396.331      10.751497    
    466500   2146.708      -241.80844      2804.0464      10.661668    
    467000   1578.7986     -240.9522      -1295.5362      10.618801    
    467500   2138.2723     -241.26845     -19543.315      10.672586    
    468000   1941.2766     -242.41244     -15202.052      10.733503    
    468500   1974.2433     -244.22583     -20126.767      10.629876    
    469000   1494.053      -243.05646     -13953.363      10.669752    
    469500   1689.0012     -239.78663     -9713.8714      10.700491    
    470000   1640.3372     -240.4006      -42669.883      10.868088    
    470500   1819.865      -242.22469     -10748.197      10.642476    
    471000   1701.2677     -243.52406      20759.009      10.622514    
    471500   1645.8141     -241.01316     -38157.888      10.739145    
    472000   1915.6602     -241.73805      6395.3316      10.542786    
    472500   1627.5358     -241.81829     -46822.802      10.709876    
    473000   1791.4753     -241.5035      -36425.773      10.716371    
    473500   2070.7347     -239.29299     -16082.586      10.698794    
    474000   1943.808      -239.89208     -19576.216      10.745731    
    474500   1909.4371     -238.52988      4951.999       10.659989    
    475000   1878.2646     -237.98769      17358.571      10.657496    
    475500   1549.0875     -240.45466     -58838.623      10.805884    
    476000   1722.6397     -239.77658     -24747.056      10.678002    
    476500   1733.906      -243.34156      13932.609      10.646144    
    477000   1575.8082     -238.55229     -47739.734      10.691483    
    477500   1811.2966     -240.1748       25937.991      10.676121    
    478000   1884.582      -241.41905     -12036.714      10.683991    
    478500   1505.5334     -237.91306     -8331.1455      10.741491    
    479000   1597.5313     -236.73287      11360.558      10.728496    
    479500   1768.6507     -239.22556     -27533.3        10.700016    
    480000   1663.41       -242.01277      506.78653      10.661288    
    480500   1964.9401     -243.64078      39610.179      10.607065    
    481000   1439.1605     -241.29641     -23467.097      10.679306    
    481500   1679.1976     -238.95033     -32245.906      10.760435    
    482000   1747.5919     -241.10611     -5494.4648      10.739299    
    482500   1692.0554     -242.24598     -35277.943      10.768526    
    483000   1620.6987     -244.90086     -22096.864      10.741758    
    483500   1659.6696     -239.69151     -30435.151      10.827915    
    484000   1681.8273     -244.27068     -4746.3842      10.679637    
    484500   1651.5174     -241.19037     -41184.684      10.746686    
    485000   1954.6237     -238.02979      23937.437      10.747529    
    485500   1559.2671     -241.21719     -1466.3229      10.668649    
    486000   1605.5075     -241.7928      -16944.468      10.578317    
    486500   1520.5794     -240.43195     -28619.496      10.762954    
    487000   1789.3772     -242.55666      18224.845      10.593261    
    487500   1724.4686     -241.21669     -31819.094      10.596328    
    488000   1834.5752     -239.31519     -18373.288      10.730929    
    488500   1848.9553     -242.40261     -31808.955      10.65348     
    489000   1476.5656     -238.01508      9834.8262      10.747934    
    489500   1638.3016     -240.8695       11916.144      10.705008    
    490000   1724.0165     -240.27497     -11081.618      10.672825    
    490500   1796.8887     -244.5701       34456.718      10.577454    
    491000   1558.7529     -238.66299     -4790.8208      10.733945    
    491500   1800.1257     -243.23575     -11249.228      10.755877    
    492000   1685.9575     -241.21099     -4107.7164      10.67005     
    492500   1766.8652     -239.60972      9220.9511      10.672038    
    493000   1574.9951     -243.40771     -12070.359      10.657026    
    493500   1863.6177     -242.62397      10420.431      10.59245     
    494000   1510.9702     -239.82015     -19445.822      10.666862    
    494500   1883.1128     -238.87006     -47037.892      10.759943    
    495000   1567.6812     -240.861        18725.531      10.678111    
    495500   1465.5068     -239.61237     -24881.736      10.69946     
    496000   1820.9481     -241.49433     -5195.5333      10.629096    
    496500   1320.7154     -237.24214     -21286.959      10.696681    
    497000   1764.2852     -242.9681      -42776.45       10.740243    
    497500   1381.7204     -240.92811     -30535.736      10.660956    
    498000   1527.3388     -239.56904     -35225.891      10.761944    
    498500   1564.7011     -241.04619     -11623.059      10.80499     
    499000   1360.6805     -240.89074     -39430.304      10.776111    
    499500   2027.0626     -239.11356      55073.654      10.608799    
    500000   1967.1971     -241.5472      -22014.534      10.711292    
Loop time of 137.04 on 1 procs for 500000 steps with 64 atoms

Performance: 630.471 ns/day, 0.038 hours/ns, 3648.558 timesteps/s
97.7% CPU use with 1 MPI tasks x 1 OpenMP threads

MPI task timing breakdown:
Section |  min time  |  avg time  |  max time  |%varavg| %total
---------------------------------------------------------------
Pair    | 130.26     | 130.26     | 130.26     |   0.0 | 95.05
Bond    | 0.11066    | 0.11066    | 0.11066    |   0.0 |  0.08
Neigh   | 2.5003     | 2.5003     | 2.5003     |   0.0 |  1.82
Comm    | 1.2758     | 1.2758     | 1.2758     |   0.0 |  0.93
Output  | 0.61093    | 0.61093    | 0.61093    |   0.0 |  0.45
Modify  | 1.8015     | 1.8015     | 1.8015     |   0.0 |  1.31
Other   |            | 0.4814     |            |       |  0.35

Nlocal:             64 ave          64 max          64 min
Histogram: 1 0 0 0 0 0 0 0 0 0
Nghost:            522 ave         522 max         522 min
Histogram: 1 0 0 0 0 0 0 0 0 0
Neighs:              0 ave           0 max           0 min
Histogram: 1 0 0 0 0 0 0 0 0 0
FullNghs:         2604 ave        2604 max        2604 min
Histogram: 1 0 0 0 0 0 0 0 0 0

Total # of neighbors = 2604
Ave neighs/atom = 40.6875
Ave special neighs/atom = 0
Neighbor list builds = 16387
Dangerous builds = 0

unfix           1
unfix           2

write_data	data.final
System init for write_data ...
Total wall time: 0:02:36
