LAMMPS data file via write_data, version 23 Jun 2022, timestep = 500000

64 atoms
1 atom types

0.12214325541909421 10.739256744580505 xlo xhi
0.12214325541909421 10.739256744580505 ylo yhi
0.12214325541909421 10.739256744580505 zlo zhi

Masses

1 28.0855

Atoms # atomic

38 1 2.676735643073944 0.7332848477734545 2.9508169014664043
18 1 1.6473548974457366 2.4917200934713404 1.490067434502406
7 1 5.2686674213745235 3.3989006710174783 1.8871779750693802
40 1 6.454772769927189 1.9472449899999802 0.27421098511599173
36 1 8.359790577475952 2.684090199046924 3.574952558123623
44 1 10.38776331330983 1.5339440826824828 2.717439568825757
16 1 7.930744689002375 0.5067051665266066 1.6078601932217593
41 1 2.8950954839594485 4.290876935227342 2.4076298614030187
62 1 0.8357702349810253 6.047960257357438 1.9921127832601542
58 1 6.427036934525441 5.972699605749326 3.4331397511555624
14 1 4.765631227206669 6.036247284430166 1.133233144392851
26 1 9.84255808747653 4.716476906564581 0.6977328975636224
64 1 7.911702119435898 4.659177223496981 1.9142023848683676
27 1 7.338252283760716 6.426854620380937 0.38025345907981034
49 1 1.4427180314826495 9.258984006001292 3.188468385798271
51 1 3.367048037321747 7.779859259800778 0.4480454418448603
15 1 0.945577742503768 8.350812967545867 1.1615682093647548
20 1 4.984422780318614 10.500131744272801 2.049017723383211
30 1 3.793186142164211 7.98456056113024 3.0761732294605837
6 1 6.04497806303576 8.41786606361083 3.3818209323851742
54 1 7.477552093568638 8.879050402114732 1.1441485072173867
39 1 9.207691309344604 7.7156658256050195 2.3301753639121743
59 1 9.745789559196147 9.711508344223056 3.5452672458534304
55 1 2.8598278620155746 2.839478559733046 4.624038552993867
53 1 0.3134040032417712 1.944999504413759 4.995949042955075
1 1 4.361744626282214 1.1944380746900956 5.467984015022261
28 1 6.052573190406714 1.6153314046686895 3.722543823321995
52 1 6.8715020496924915 1.3275228812505386 6.8511427021700495
29 1 7.647823169747511 3.6109757350440503 6.252764194166856
23 1 2.4761434874874095 4.470750880918016 6.2024018847218905
13 1 0.42430929864754874 4.468580439947694 7.199546817905189
21 1 1.0219463232138768 6.309022637819331 4.612481450782979
37 1 6.861972419523373 5.655045554843307 7.057141664553216
48 1 5.550583318328037 3.997221855156459 4.8931085805273975
42 1 3.756113336544572 5.978619976069426 4.470558181894881
25 1 9.76209191326021 4.076114002382463 5.356940511651773
56 1 8.710109636504818 6.345499743089803 4.606092637096932
60 1 3.226072498820489 9.68961177952838 5.225890622461598
47 1 1.4106253559163224 9.647797196372384 6.623311316143214
57 1 4.797931069545128 7.887894617320908 6.167565111067973
33 1 7.319328129112828 9.893238781264056 4.697415620915133
8 1 10.279823959094958 8.230547586724107 5.525329698246782
24 1 7.4305795134119315 8.131362570435712 6.425536617877433
12 1 2.878480189593285 0.7298945997258607 10.413840503946371
19 1 2.9469224653482846 1.1795113752631956 7.6066460683466115
3 1 1.5847100114066786 2.968723826025842 8.699102715608003
61 1 5.277271456570236 1.2667186767074239 8.604235491884431
2 1 3.75219459227784 3.2523322406311164 10.291802868999557
5 1 10.445353201246267 2.6175635889111804 10.263032795929107
4 1 8.18336335012432 2.6309329347210793 8.950641482284453
11 1 9.378887701030767 0.15218616408734362 10.129630426262171
10 1 10.54467716687101 1.1990563868769013 7.206693849449387
35 1 2.069828732338883 5.605156629814286 10.377382397916804
17 1 4.31364465334685 3.83357552468667 7.452358849083114
63 1 5.156611650764865 5.367772566822986 9.213797601347071
46 1 10.057273572512894 6.561280693128333 7.935359204660934
9 1 8.214800430383072 5.275427882201353 9.046408019359134
34 1 0.992855652960298 9.99826594236253 9.55878071292
45 1 1.5363009180962297 7.599652109404817 8.611448805674147
43 1 6.906278798012359 8.45767606456699 8.887750171204683
22 1 4.107039164895645 7.483408891954683 8.657099064624731
32 1 4.903424239721163 9.640252660237774 10.287691320590493
31 1 8.524156547438984 10.410945378420841 7.716738888916237
50 1 9.494396472955703 8.231050314665005 10.081095125327305
