10.654897892668009 0.0 0.0 0.0 10.654897892668009 0.0 0.0 0.0 10.654897892668009
10.65345429724362 0.0 0.0 0.0 10.65345429724362 0.0 0.0 0.0 10.65345429724362
10.649227229703293 0.0 0.0 0.0 10.649227229703293 0.0 0.0 0.0 10.649227229703293
10.64292261244297 0.0 0.0 0.0 10.64292261244297 0.0 0.0 0.0 10.64292261244297
10.635409354438766 0.0 0.0 0.0 10.635409354438766 0.0 0.0 0.0 10.635409354438766
10.62732776011279 0.0 0.0 0.0 10.62732776011279 0.0 0.0 0.0 10.62732776011279
10.61905142857414 0.0 0.0 0.0 10.61905142857414 0.0 0.0 0.0 10.61905142857414
10.61097777190629 0.0 0.0 0.0 10.61097777190629 0.0 0.0 0.0 10.61097777190629
10.603989457692775 0.0 0.0 0.0 10.603989457692775 0.0 0.0 0.0 10.603989457692775
10.599297243386303 0.0 0.0 0.0 10.599297243386303 0.0 0.0 0.0 10.599297243386303
10.597759454418826 0.0 0.0 0.0 10.597759454418826 0.0 0.0 0.0 10.597759454418826
10.599626920787106 0.0 0.0 0.0 10.599626920787106 0.0 0.0 0.0 10.599626920787106
10.604885883883725 0.0 0.0 0.0 10.604885883883725 0.0 0.0 0.0 10.604885883883725
10.613406166115425 0.0 0.0 0.0 10.613406166115425 0.0 0.0 0.0 10.613406166115425
10.624796705525235 0.0 0.0 0.0 10.624796705525235 0.0 0.0 0.0 10.624796705525235
10.638722532940267 0.0 0.0 0.0 10.638722532940267 0.0 0.0 0.0 10.638722532940267
10.655160893740561 0.0 0.0 0.0 10.655160893740561 0.0 0.0 0.0 10.655160893740561
10.673727076095647 0.0 0.0 0.0 10.673727076095647 0.0 0.0 0.0 10.673727076095647
10.693651127167366 0.0 0.0 0.0 10.693651127167366 0.0 0.0 0.0 10.693651127167366
10.714078954941437 0.0 0.0 0.0 10.714078954941437 0.0 0.0 0.0 10.714078954941437
10.734177105314703 0.0 0.0 0.0 10.734177105314703 0.0 0.0 0.0 10.734177105314703
10.753614313354738 0.0 0.0 0.0 10.753614313354738 0.0 0.0 0.0 10.753614313354738
10.772541394565918 0.0 0.0 0.0 10.772541394565918 0.0 0.0 0.0 10.772541394565918
10.79121711660313 0.0 0.0 0.0 10.79121711660313 0.0 0.0 0.0 10.79121711660313
10.80933561503995 0.0 0.0 0.0 10.80933561503995 0.0 0.0 0.0 10.80933561503995
10.82626716899843 0.0 0.0 0.0 10.82626716899843 0.0 0.0 0.0 10.82626716899843
10.841558273611012 0.0 0.0 0.0 10.841558273611012 0.0 0.0 0.0 10.841558273611012
10.855298889003121 0.0 0.0 0.0 10.855298889003121 0.0 0.0 0.0 10.855298889003121
10.867758895551013 0.0 0.0 0.0 10.867758895551013 0.0 0.0 0.0 10.867758895551013
10.878903367558939 0.0 0.0 0.0 10.878903367558939 0.0 0.0 0.0 10.878903367558939
10.888679387306063 0.0 0.0 0.0 10.888679387306063 0.0 0.0 0.0 10.888679387306063
10.896741402075328 0.0 0.0 0.0 10.896741402075328 0.0 0.0 0.0 10.896741402075328
10.902434290482796 0.0 0.0 0.0 10.902434290482796 0.0 0.0 0.0 10.902434290482796
10.905561198606957 0.0 0.0 0.0 10.905561198606957 0.0 0.0 0.0 10.905561198606957
10.90628352549636 0.0 0.0 0.0 10.90628352549636 0.0 0.0 0.0 10.90628352549636
10.90478542481951 0.0 0.0 0.0 10.90478542481951 0.0 0.0 0.0 10.90478542481951
10.90097376138774 0.0 0.0 0.0 10.90097376138774 0.0 0.0 0.0 10.90097376138774
10.895007288363553 0.0 0.0 0.0 10.895007288363553 0.0 0.0 0.0 10.895007288363553
10.887320989412219 0.0 0.0 0.0 10.887320989412219 0.0 0.0 0.0 10.887320989412219
10.878598032309718 0.0 0.0 0.0 10.878598032309718 0.0 0.0 0.0 10.878598032309718
10.869625832742084 0.0 0.0 0.0 10.869625832742084 0.0 0.0 0.0 10.869625832742084
10.86116111411726 0.0 0.0 0.0 10.86116111411726 0.0 0.0 0.0 10.86116111411726
10.85380819680719 0.0 0.0 0.0 10.85380819680719 0.0 0.0 0.0 10.85380819680719
10.848004181185967 0.0 0.0 0.0 10.848004181185967 0.0 0.0 0.0 10.848004181185967
10.84416235465332 0.0 0.0 0.0 10.84416235465332 0.0 0.0 0.0 10.84416235465332
10.842437766131296 0.0 0.0 0.0 10.842437766131296 0.0 0.0 0.0 10.842437766131296
10.84283888245523 0.0 0.0 0.0 10.84283888245523 0.0 0.0 0.0 10.84283888245523
10.845146624260858 0.0 0.0 0.0 10.845146624260858 0.0 0.0 0.0 10.845146624260858
10.848679940481034 0.0 0.0 0.0 10.848679940481034 0.0 0.0 0.0 10.848679940481034
10.852815989541526 0.0 0.0 0.0 10.852815989541526 0.0 0.0 0.0 10.852815989541526
10.857517729037745 0.0 0.0 0.0 10.857517729037745 0.0 0.0 0.0 10.857517729037745
10.862673502578735 0.0 0.0 0.0 10.862673502578735 0.0 0.0 0.0 10.862673502578735
10.868131965482903 0.0 0.0 0.0 10.868131965482903 0.0 0.0 0.0 10.868131965482903
10.874218561733386 0.0 0.0 0.0 10.874218561733386 0.0 0.0 0.0 10.874218561733386
10.881116915821481 0.0 0.0 0.0 10.881116915821481 0.0 0.0 0.0 10.881116915821481
10.888540213700265 0.0 0.0 0.0 10.888540213700265 0.0 0.0 0.0 10.888540213700265
10.896285251321727 0.0 0.0 0.0 10.896285251321727 0.0 0.0 0.0 10.896285251321727
10.904509194316748 0.0 0.0 0.0 10.904509194316748 0.0 0.0 0.0 10.904509194316748
10.912663815097478 0.0 0.0 0.0 10.912663815097478 0.0 0.0 0.0 10.912663815097478
10.920147968355222 0.0 0.0 0.0 10.920147968355222 0.0 0.0 0.0 10.920147968355222
10.927029917949861 0.0 0.0 0.0 10.927029917949861 0.0 0.0 0.0 10.927029917949861
10.933473708815981 0.0 0.0 0.0 10.933473708815981 0.0 0.0 0.0 10.933473708815981
10.939400493549542 0.0 0.0 0.0 10.939400493549542 0.0 0.0 0.0 10.939400493549542
10.944591721963489 0.0 0.0 0.0 10.944591721963489 0.0 0.0 0.0 10.944591721963489
10.948515570963432 0.0 0.0 0.0 10.948515570963432 0.0 0.0 0.0 10.948515570963432
10.950509510684507 0.0 0.0 0.0 10.950509510684507 0.0 0.0 0.0 10.950509510684507
10.950112098601034 0.0 0.0 0.0 10.950112098601034 0.0 0.0 0.0 10.950112098601034
10.94721114914484 0.0 0.0 0.0 10.94721114914484 0.0 0.0 0.0 10.94721114914484
10.942042146173641 0.0 0.0 0.0 10.942042146173641 0.0 0.0 0.0 10.942042146173641
10.934760138609489 0.0 0.0 0.0 10.934760138609489 0.0 0.0 0.0 10.934760138609489
10.925398993793713 0.0 0.0 0.0 10.925398993793713 0.0 0.0 0.0 10.925398993793713
10.91417355767291 0.0 0.0 0.0 10.91417355767291 0.0 0.0 0.0 10.91417355767291
10.901432028850174 0.0 0.0 0.0 10.901432028850174 0.0 0.0 0.0 10.901432028850174
10.887549593966227 0.0 0.0 0.0 10.887549593966227 0.0 0.0 0.0 10.887549593966227
10.87312104820326 0.0 0.0 0.0 10.87312104820326 0.0 0.0 0.0 10.87312104820326
10.858738540857418 0.0 0.0 0.0 10.858738540857418 0.0 0.0 0.0 10.858738540857418
10.844939715972393 0.0 0.0 0.0 10.844939715972393 0.0 0.0 0.0 10.844939715972393
10.831885972596726 0.0 0.0 0.0 10.831885972596726 0.0 0.0 0.0 10.831885972596726
10.81937622339125 0.0 0.0 0.0 10.81937622339125 0.0 0.0 0.0 10.81937622339125
10.807376601014624 0.0 0.0 0.0 10.807376601014624 0.0 0.0 0.0 10.807376601014624
10.796091367869275 0.0 0.0 0.0 10.796091367869275 0.0 0.0 0.0 10.796091367869275
10.785852847242051 0.0 0.0 0.0 10.785852847242051 0.0 0.0 0.0 10.785852847242051
10.777074326532674 0.0 0.0 0.0 10.777074326532674 0.0 0.0 0.0 10.777074326532674
10.769820894537773 0.0 0.0 0.0 10.769820894537773 0.0 0.0 0.0 10.769820894537773
10.763636929680954 0.0 0.0 0.0 10.763636929680954 0.0 0.0 0.0 10.763636929680954
10.758510790063633 0.0 0.0 0.0 10.758510790063633 0.0 0.0 0.0 10.758510790063633
10.754760511188032 0.0 0.0 0.0 10.754760511188032 0.0 0.0 0.0 10.754760511188032
10.752534262672487 0.0 0.0 0.0 10.752534262672487 0.0 0.0 0.0 10.752534262672487
10.751982860021384 0.0 0.0 0.0 10.751982860021384 0.0 0.0 0.0 10.751982860021384
10.75314387481651 0.0 0.0 0.0 10.75314387481651 0.0 0.0 0.0 10.75314387481651
10.755932638704534 0.0 0.0 0.0 10.755932638704534 0.0 0.0 0.0 10.755932638704534
10.76051425497446 0.0 0.0 0.0 10.76051425497446 0.0 0.0 0.0 10.76051425497446
10.766965454321499 0.0 0.0 0.0 10.766965454321499 0.0 0.0 0.0 10.766965454321499
10.774640640551457 0.0 0.0 0.0 10.774640640551457 0.0 0.0 0.0 10.774640640551457
10.782701596966307 0.0 0.0 0.0 10.782701596966307 0.0 0.0 0.0 10.782701596966307
10.79101814597279 0.0 0.0 0.0 10.79101814597279 0.0 0.0 0.0 10.79101814597279
10.799694535480956 0.0 0.0 0.0 10.799694535480956 0.0 0.0 0.0 10.799694535480956
10.808504806822834 0.0 0.0 0.0 10.808504806822834 0.0 0.0 0.0 10.808504806822834
10.817194425761206 0.0 0.0 0.0 10.817194425761206 0.0 0.0 0.0 10.817194425761206
10.825619985272613 0.0 0.0 0.0 10.825619985272613 0.0 0.0 0.0 10.825619985272613
10.833390423400076 0.0 0.0 0.0 10.833390423400076 0.0 0.0 0.0 10.833390423400076
