0.7634926908459652 2.2705267762338748 6.677541713211861 1.44040368141611 1.1431959595980288 2.9140186795636662 9.468400428034178 0.9706420192058488 6.715537079097114 3.988053696940387 8.47504429750074 0.16707625738555923 7.704194399659887 0.421653732735076 9.020276732464346 3.8492097225010307 3.9332129374868243 3.5934388985875345 2.271315238677932 10.211824618699303 9.366283886630848 4.632174239245846 1.1832477207765677 0.728983607551192 5.689704819786824 7.8080796541134 8.685158883944153 1.47115371673435 3.678507603362596 4.699747601681146 4.48099189304678 7.102341837294641 6.441493105297694 8.815042089255776 5.433337321591339 2.92677259234119 6.684552636025235 5.270477207301909 8.844833183763676 5.6589867491622625 1.1009066698620293 3.357965655159572 2.3732293370213013 0.13054700545033626 6.842085301368333 4.840562732230647 9.535441045574846 7.004892141168299 5.7528350898008815 6.130774972951709 1.5764027981181246 2.5306234886917935 3.854153595123228 8.860133617137546 7.305520085209928 5.401202149547053 6.488385310923325 0.899369276222214 2.726716229508455 1.074855444514456 6.075571946969796 9.60822465307966 4.972427748550306 0.0312305712131992 0.2632377763566773 9.133101446249809 6.3609101125354455 9.716403831383918 0.15890714717125068 7.899157721299926 7.177117910705386 0.10602156148099301 9.766556435764707 5.1644183536782915 6.164295281722042 0.46534840350311824 4.7945655380279995 2.706439958818708 7.720464428741991 7.733569953149972 2.3153945512599 3.220027347041092 3.148042856878227 1.4000429281986835 3.137984633267548 1.1789751067216079 4.666461700664452 1.7713767746560565 5.204651248121006 6.675368114041756 5.96185222176135 3.2722896212046284 9.879114777102851 0.2899911594753774 5.760890192607739 9.331964460518563 2.3229701836615866 7.8663512906884 8.042263654896349 9.326242780350201 7.3104213382405545 4.851643826039022 9.208985629041388 3.121128584801347 4.4303171986692504 2.2769197149694755 7.937504698815639 5.477842830089013 0.8493328102284557 7.147838251296333 1.4994744353330616 7.761240722977231 3.1741793214089413 0.6888913577606609 5.354160775350923 2.8348954078127138 5.603677174201422 0.2099196018119773 8.769098169542591 3.6897485206393608 8.457282582713662 9.437522533941225 5.875132007812925 6.533988273903944 6.766297012657785 4.79332956987245 6.117626828952157 4.69121302846912 3.6557700512596423 9.14113523926088 1.0698050229133313 0.5737907577853254 9.785191852178983 0.5836539967645682 3.841133309898388 7.739728484131934 10.306376182598838 2.5755871577988523 2.7339295953817917 6.411084026712019 3.7189003212737006 4.345759928993037 7.679943852056175 2.339655753761505 4.342211847994779 4.510250242660046 7.12505807960181 9.261152009123892 3.943111337629113 8.733777183028396 5.556284188374835 1.2586630880608718 7.603015489271112 7.819096818534418 2.7504659969112124 6.736452643660423 0.27389800169829165 9.611836663465274 1.1703872590201174 3.466890676316317 1.6497298054154659 9.104684833570062 2.2974836679023247 6.457922957848188 10.419754951074719 3.992475479565844 4.72595865049711 0.10754627736943381 9.775730302850294 8.265217393300427 9.851507936662948 10.520305222487828 7.681829768983176 7.4759877965947235 3.891903898356951 9.469391333538196 3.9273101240542863 0.44468855648923494 2.6786519851146298 9.318294226522271 2.7571679276857006 10.243075434218499 1.4584743882420752 7.351080428598976 2.972546033688092 2.856780568084254 8.022903705425373 8.904862878490967 8.158721688863212 8.994289436504129 5.156533729237717 0.637263050021738
0.7988045259707645 2.3023499685402102 6.656885491812757 1.4947115982661716 1.228588309921026 2.9789295440495582 9.470494732077688 0.9257446953041412 6.716693984237482 4.037179773211956 8.463168014456114 0.2884465364795899 7.681044667223976 0.3279783093403718 9.06922172251771 3.847537633266722 3.973962175412112 3.5737118974646696 2.316934547473137 10.309273149262571 9.445949173376839 4.634018243306435 1.221855326805168 0.684579254341148 5.613454217577825 7.807969921721336 8.706109386250459 1.5489376806391415 3.563378046796343 4.614043016499104 4.5007435300479175 7.093741038725528 6.4832128798590904 8.700654817650271 5.40974951796023 2.950388939987243 6.775042953423485 5.297259694035634 8.854533311519658 5.671643384949369 1.1970860455640766 3.2596374113276307 2.2379285304047785 0.0827411181449723 6.897461796753112 4.858049733723171 9.573268605683198 7.048623659776702 5.681092998911025 6.049734477958546 1.4876590115213961 2.5233771848451236 3.781827127161324 8.800861208770144 7.3755355583419195 5.471656740881512 6.575429180256031 0.8443352589463241 2.6945036212217484 1.1557399894364742 6.176840841178959 9.604461919865527 4.921086222799962 0.05389902132604465 0.24014590538674677 9.033223700447325 6.450080636994664 9.718869365563627 0.16033235648265703 7.882618675982122 7.233887230005768 0.18945250845874273 9.707811080003088 5.083604668104414 6.151304511228466 0.39674955286536856 4.826281133008791 2.8258820196153565 7.76620838087614 7.754702650235117 2.305492737557897 3.252275874408235 3.0411137567825692 1.4559543315327994 3.132243404841191 1.007702784558266 4.656411804239242 1.799091440992719 5.226520757501937 6.602531567988219 5.881729503691014 3.30056798273764 9.851664673378767 0.1870672000415899 5.6777797746245815 9.24813583398562 2.3057803808239226 7.840409690056442 8.12221486312713 9.234627253936715 7.130878980405719 4.696692514937119 9.209772745061246 2.9659962505327044 4.48596718893764 2.215257979660244 8.013485708569462 5.476621250584028 0.9222109445137454 7.1659608054065425 1.6443606707795526 7.839269770446637 3.0142777054078125 0.5539210294580333 5.272586293883218 2.9392880406095143 5.6546617787995626 0.23311782158685515 8.780523764516705 3.811582225013525 8.409954010241384 9.54094602534536 5.852965177088456 6.533891361951079 6.881641417121705 4.767697787828248 6.106442815182772 4.720588212925837 3.738297112902786 9.285018092762677 1.1250154272432236 0.5448485477785007 9.831455070576897 0.5715769992648553 3.7962838646426835 7.633306538518026 10.271389465781573 2.6008491044946793 2.814717199511845 6.489136200448358 3.598140268168249 4.31502186128407 7.610252463418791 2.380514362719087 4.395391520502475 4.551176982691069 7.066851720079286 9.231963890362403 3.9747505310301086 8.583711849829427 5.468482011500934 1.2490322887174365 7.646357020032149 7.803815074545411 2.7319718199851537 6.734591787456852 0.17629549240164685 9.667477102033722 1.1740000101019497 3.4932889709747776 1.6652627481107447 9.17252826883808 2.4327589025927696 6.467243351867523 10.29605221247969 3.992925324061206 4.775762452731262 0.073736818572942 9.847499172748545 8.277765949321184 9.840595734363932 10.545715913935595 7.678679600369986 7.5340802651934995 3.800428058364311 9.586042097385592 3.9284186582913962 0.54697710794709 2.777717752737518 9.23901647710718 2.722873770015308 10.260480328581194 1.4939232426481754 7.333358532779132 3.106099827995755 2.87796675767458 7.982505463473077 8.80006219969785 8.168056676968169 8.973532396019868 5.023796175679688 0.5891701136913233
0.8540509850586365 2.331925181851508 6.637663332274062 1.5273654154201948 1.3134650372843744 3.040759044715019 9.473552543544049 0.8684892073366682 6.729800446265455 4.091124274062343 8.46320711012595 0.364907485175736 7.646698910742909 0.2514410339659704 9.119881058018372 3.816789531397957 4.034374542155255 3.5692269459890444 2.3631061191800793 10.380195802199298 9.519759540493732 4.642679699970366 1.2518486085333111 0.6530127435708518 5.5495785400791275 7.813785285976953 8.720833215266932 1.6301304581868314 3.4467182359385378 4.536624045989751 4.5207886450991825 7.074579827054329 6.532651302561957 8.588537865392327 5.390234153041078 2.982678159404217 6.862511116002018 5.344357282135516 8.863458315554347 5.691724425141207 1.2821989061379655 3.157272239835202 2.1128705777365115 0.04157245325931571 6.947758179975792 4.870605110367706 9.614037149158296 7.0891479699045625 5.635890526775873 5.9470396479733445 1.3831003341394041 2.565803510270252 3.738262129806125 8.703858347062784 7.43846392149329 5.5331680809181565 6.652731988804093 0.786053539351535 2.670964629163572 1.2364924228680791 6.267741125995858 9.596583065728812 4.860147569228137 0.047413554394807975 0.23206689486697119 8.923456061766496 6.5279336948991995 9.71862320978121 0.17338539314041418 7.848065148429368 7.265200994466017 0.21191429725748068 9.664312150909725 5.000152959617046 6.135349933076187 0.3385506477822204 4.857123188694901 2.9208806937902487 7.801836853025227 7.791975668610521 2.366631013393111 3.272251946234309 2.929165792574958 1.5262791942427651 3.1237378232888666 0.8644307868394283 4.673551809709276 1.830059050197281 5.2382909789276715 6.5350047817797225 5.791710019600892 3.321909292806416 9.829140889971072 0.08210447701828942 5.604209075767507 9.170070865951965 2.2880503656651308 7.813881129022021 8.203813233264837 9.137931498172719 6.9654358971771 4.54312007459987 9.207705234981736 2.8112468994604534 4.545697187589458 2.1531779028009383 8.092294525715383 5.4695708959023674 1.005244453575072 7.175140479784417 1.8084304696937537 7.899692602038971 2.8387432041675478 0.4208180579771242 5.197855863136488 3.01702191722001 5.69200130504918 0.2607772114782513 8.785761553686433 3.9196823648913504 8.367566400375983 9.631278248043184 5.837917016550575 6.5200852144309085 7.0045079118828815 4.758937313637037 6.061848966736775 4.791641090459456 3.8233494553714547 9.446428961789994 1.1569852923711144 0.5047531371561996 9.87661514496109 0.5461051514118604 3.747377868314751 7.519483242256873 10.230116242851091 2.6164192872930316 2.8508620247549494 6.517955368984968 3.4900392923089707 4.295408400009742 7.584975989719548 2.445712174800888 4.410111226500876 4.633457469189443 7.0295229466454545 9.18388291366889 4.019944839259007 8.418033088217548 5.394536440841878 1.2436380543392098 7.69657989108684 7.7758953354936695 2.7169266938869714 6.730024080037279 0.07940383299283665 9.70433194683895 1.1740240559386395 3.5553297044542815 1.6685315715771414 9.225926062771759 2.546815938119691 6.506667188121481 10.162749231395987 4.01660098190888 4.824632396417077 0.031049951833645888 9.918360115701526 8.297036568433658 9.825871577211553 10.562904593779319 7.663396899039084 7.593729654502364 3.724780208133321 9.653854609770155 3.907190821350908 0.624545229340409 2.846591684635839 9.172690575850472 2.681741647120032 10.278165556111512 1.5190057720448775 7.338627416214822 3.192766114191804 2.8943428195338283 7.944312864131426 8.677011645216702 8.173643972523088 8.969098649673004 4.911498142929767 0.5179592438437547
0.9212439312872348 2.357918218941515 6.620525797373662 1.5419040564002877 1.397107094258001 3.104625669430514 9.488037793921558 0.8194507622527852 6.7594585091564925 4.150718533007534 8.475438207805896 0.3926929799235695 7.610434672479594 0.19112347568972834 9.157234473281607 3.765210590139624 4.120918349692693 3.5762774279235363 2.391794641616921 10.41978309695049 9.5920830053808 4.675010186741699 1.2635384154718416 0.6457710367248508 5.495419876321866 7.82755029377343 8.730612920361828 1.709157585254829 3.3312454206172615 4.470666072582794 4.539153279593864 7.057854130441555 6.586542945472131 8.469339813148967 5.340831425376131 2.975292873844107 6.942559349780961 5.403422453259908 8.898313451966093 5.718506177201282 1.3575899225980004 3.045472305550556 1.9921848262875248 0.0010387492469744338 6.992708801130791 4.879652302733752 9.644701614776718 7.119657582052012 5.611853449701991 5.850989277880972 1.2810247373240855 2.6770675393208423 3.7367514150739516 8.565307046345366 7.485710262384375 5.606936419455043 6.697335769867662 0.7255716704729482 2.661912017520724 1.3022680108585218 6.329069361631911 9.58942227472769 4.787729380130083 0.027260781979511425 0.23427520542187835 8.807678322998528 6.58719216375149 9.702492684562284 0.21499342252491543 7.800091553433329 7.273022096897314 0.1805369605671313 9.646925985602719 4.908654266852659 6.104301478979728 0.28567200730188796 4.88669791750319 2.993917988415882 7.836022060172935 7.838970149736582 2.4877299460454823 3.272443273183515 2.8412559064629996 1.5997057691084653 3.0941849623477076 0.8044059268478359 4.755172679858619 1.8629371740820175 5.2407453811287175 6.472057026930082 5.710119554182678 3.3430271359492365 9.81213607331567 10.629980818546239 5.545622542284759 9.106350660271515 2.272136262685225 7.800698200022238 8.268422720071268 9.052444257239491 6.839099499065402 4.40608481817049 9.195357422079375 2.654344899543277 4.610546004478132 2.0996889875958114 8.170167258513194 5.46037273215909 1.0980303259257411 7.177448651837577 1.9932597614713816 7.92091001092978 2.6680742697133284 0.2995429283426849 5.142117417279208 3.0579032391618894 5.70690539155372 0.27823260439579034 8.780091867587076 4.014457194800426 8.340634949996694 9.70125810553924 5.845018598295392 6.49291715525047 7.130119574980043 4.775000444685601 5.990901138544147 4.895329327741881 3.914030577029414 9.645808478728412 1.1631117977008298 0.45060005756561045 9.918703657434063 0.4948629084184995 3.693370862505634 7.393734125167644 10.182360779312113 2.6276737354764945 2.7953955529259837 6.465979918118377 3.434343411963997 4.35711673123064 7.621428811538248 2.493189765345665 4.375092627523056 4.76349544534155 7.023009201808417 9.118281376520065 4.056890527256236 8.243443780699865 5.344439376141749 1.2495642580817041 7.743300918373333 7.73536129810445 2.69383014243544 6.721090773138634 10.628756882445808 9.722320449389265 1.173180002492201 3.645307423987841 1.6728226474559487 9.259598102968083 2.6402855987722393 6.573877867563324 10.042534062029837 4.044268021037879 4.839209196806469 10.630076604849751 9.978314666986355 8.325223998053877 9.819394546537358 10.572987967956607 7.635402968928386 7.650420132734543 3.6852928842427897 9.610920978404824 3.834645017263202 0.6443917139542783 2.8882124810290986 9.121953184821358 2.633239984002802 10.289417937870676 1.5334855046138451 7.372788853466356 3.244580101784139 2.8919481468660657 7.912927818970449 8.54742693635646 8.168868821954478 8.97541078337063 4.824639035750035 0.4350901264424973
0.9917785108248011 2.3805662174414466 6.609545309865641 1.5443571569486987 1.448085431472319 3.1551962577719945 9.513533198685792 0.803110603040799 6.798908773421425 4.209441845440091 8.496256293933724 0.3680404677922244 7.58228112024132 0.15532483591690094 9.164947021684707 3.7096095120095325 4.225118438828534 3.5853347537029157 2.3925842300119626 10.428327298898488 9.656047684035272 4.736554003864786 1.2522450036196835 0.6765034994627537 5.453295511079123 7.850761393984773 8.737499284320458 1.773082270525259 3.243650957372861 4.438964614718235 4.55738989787991 7.070845555205069 6.633443074685065 8.345807793205834 5.240991469545816 2.8938523437053703 7.006192901739436 5.468121271719211 8.971967518948416 5.756404677680627 1.4246556246644904 2.921408689342721 1.880053217812204 10.597738734505343 7.028782511208263 4.885492276464346 9.652995321550549 7.135168510980715 5.62038842744671 5.791256914135123 1.2082037734829525 2.820616914890705 3.7621271634017512 8.40879068740282 7.513438115490039 5.702408704388142 6.6984147904313325 0.6766747295533602 2.6818141874059247 1.344485908950731 6.34655290734908 9.592437300686374 4.714262185857882 0.011327774503412729 0.23820551747510682 8.710825677659527 6.617202804600838 9.662386388010518 0.29418818523500156 7.744109508978461 7.265930868993539 0.1291904445102386 9.66280116897534 4.818159499841394 6.0348396945798335 0.2403549337056389 4.911315050376923 3.044736896216793 7.868479985969268 7.878594260265339 2.6138432862217065 3.2477030483369025 2.7891786448389837 1.6732051412777242 3.043864792649729 0.8145213337371764 4.899265131578344 1.8909226061724405 5.2352589839037735 6.4161084845271095 5.660079775157476 3.3619379802129292 9.796775420613207 10.553240181766371 5.508238035804154 9.070557763664063 2.252037295393054 7.831319865684859 8.268541544245835 9.007947108794482 6.784465887518095 4.326335629654728 9.168360988087482 2.5058300688180264 4.674911171246458 2.072607304174318 8.241421250392017 5.460761568445938 1.1616844929666374 7.187207568951983 2.174249911374689 7.903619378476333 2.521666193346786 0.19131399763138632 5.111196933784245 3.072686752000258 5.708375169035982 0.26744438487232985 8.762641392034352 4.08050877783623 8.331216011571543 9.735706900100018 5.880626258940472 6.450099252823896 7.239342345607443 4.816861979900152 5.9148616416524105 5.000333426673576 4.001126082414699 9.858971294517964 1.1532187071205042 0.3793714329184434 9.956700071075902 0.4141024257062986 3.635406260943613 7.264059036947159 10.137831727791347 2.629541150428858 2.6991605400630143 6.351168675008907 3.4324401088235037 4.4833887195917255 7.6843172375878055 2.5305467601577423 4.299353596122517 4.89990325613961 7.035280746323825 9.038906785425253 4.064832184447787 8.094333539020129 5.340241109641438 1.2677514304584554 7.764550765757692 7.679435584694119 2.651662801886091 6.7045939632662614 10.545433791300214 9.714425445981787 1.1804878967052852 3.7345070053082736 1.6861165282340131 9.273194218094186 2.7311093097637484 6.632156190153179 9.992934910746474 4.040817430125465 4.817532010689482 10.57068225310765 10.016364717554303 8.364504842850938 9.829053888003926 10.574840698165236 7.594650101320533 7.695048365626435 3.673534203479276 9.482371449277286 3.7212021082058704 0.6211036521354821 2.920291971360505 9.081554776936553 2.5813308398251875 10.287716551823452 1.5405815866278731 7.413954496388618 3.265038765584638 2.882153393415488 7.893781624823477 8.429051142223026 8.151828561990225 8.986314686167553 4.7599944460819685 0.3462878650395908
1.0652620800181858 2.4026156326785393 6.609135134014144 1.535255650209174 1.4332226763843312 3.1702062621359657 9.537516552968743 0.8295298838416919 6.825826347042844 4.267775418544895 8.521108298663796 0.30292028774147894 7.558995061885265 0.14379305825820612 9.151181306905363 3.667257008804201 4.324939814566541 3.5880621623358406 2.3726359410672613 10.418649552215216 9.7084996293012 4.814902133618782 1.2231310338946613 0.7403209064249772 5.423518567112681 7.885881036458574 8.74660956640563 1.8228736487088666 3.2081033129285284 4.465252422983311 4.580452655902933 7.144433633291025 6.664205946467049 8.241014448218264 5.149492920818172 2.7540613617054697 7.057151390397219 5.5384743714938205 9.076279900852088 5.812616918393691 1.489547513512929 2.7857626804138858 1.7755926675041247 10.550619708340296 7.058033458601308 4.890483688648703 9.639166942994223 7.135124094173167 5.662941634220261 5.771382886684453 1.1668061967660635 2.9451088328490167 3.7801723662553997 8.265552948016364 7.530524450815923 5.824402624879655 6.668988243959099 0.6526964635772952 2.7473873998721183 1.373295175145055 6.32510917229737 9.618879374300167 4.65926491857193 0.01409927573934164 0.23203707431430265 8.658859721090378 6.621271542316193 9.602598308171675 0.39770329856837294 7.685981001290853 7.252067208845447 0.0782235087110862 9.709424206816328 4.73756706950844 5.908932389883592 0.20142186850296973 4.930208639816005 3.0784711689106725 7.892661271569526 7.9082515613936115 2.708395734320265 3.203193487503356 2.766665372428963 1.7462718702139735 2.987905081738991 0.8338711472316981 5.075154763136184 1.9046509358229344 5.22274709106863 6.362527993340726 5.653834014329845 3.373677079431085 9.780606048153563 10.49728115031229 5.484987030877174 9.064196629188839 2.2252136503789766 7.91282131233046 8.196050224465226 9.010879325816354 6.770256050185214 4.303185674641591 9.125930776147335 2.361328464330501 4.73470831834097 2.079704278687512 8.311016656174127 5.480863627706249 1.1477407707644212 7.230174913659615 2.324090307859066 7.869026094631035 2.385144305840914 0.08107907168022851 5.102541386773995 3.08577214308187 5.71262439149879 0.22018972932732891 8.733282897394448 4.115995923474964 8.32642628142629 9.72851088747349 5.943279913204277 6.39115801432647 7.3177972310417445 4.8820030810961335 5.846454329981889 5.090479369766267 4.083051207418614 10.059254582023721 1.1437023862155784 0.27758155016304203 9.995798807968088 0.30829984105364805 3.569772531260687 7.133604386303471 10.104941464064446 2.6139719271716624 2.6442704386157443 6.210769752926316 3.479015152189324 4.635055865934393 7.709892488751106 2.5640447413546528 4.209388879830835 5.0046955800866355 7.0341007164855345 8.949378980068582 4.0435919394453155 7.991250991200093 5.398714384120577 1.2922192916631545 7.742645912907774 7.59900695090209 2.5807934099045906 6.679286124558648 10.485325406582163 9.676755801281741 1.211228426803335 3.8011719659093828 1.704676509360892 9.282683860609 2.83229974867542 6.677617634100311 10.022994139706217 3.9932502878456613 4.773391791387781 10.505336664754456 10.028934815924119 8.415121958912192 9.852744348989209 10.564520253050523 7.5402378283886655 7.726874958511766 3.6527932157226877 9.36189996173288 3.6147686369970047 0.5818993315049757 2.963781047723535 9.039264918263616 2.526870348849778 10.271673609292856 1.545723568052885 7.431509638074952 3.222907180498365 2.8807178539504936 7.89013196756262 8.323057418526334 8.121765203422038 8.998073395865418 4.705345011739779 0.24992924333122854
1.1389782181260053 2.4241807744234762 6.626585424870264 1.5198835928689596 1.3529945806174883 3.148846082012233 9.545667091122437 0.895938926175086 6.816687683544598 4.325320170732533 8.54761430450504 0.22689302425377222 7.531721511487638 0.15048363969946701 9.136621230093763 3.6703370786180805 4.356582658138255 3.5776964739551995 2.345228127052027 10.402093588836943 9.743765495522489 4.87809489284696 1.185086139428874 0.7998981012447757 5.4115960366185245 7.933503941339169 8.764189858390809 1.8598312862519035 3.223880299406537 4.542904534504017 4.606002938092605 7.27469799071043 6.674795918355991 8.174853742207802 5.14039608218417 2.58315859336066 7.096818260230384 5.601071771258574 9.181136293682345 5.888157826630075 1.5469621740118236 2.6664756708692527 1.6884716533490027 10.499852576288395 7.076238538561807 4.895308375212679 9.613671496471026 7.120127078116104 5.726450911475748 5.780586835658618 1.1458168872460068 3.0006253621721948 3.7473995348352425 8.179908410687803 7.550336708641929 5.9638929014186655 6.633201093910265 0.6571069024001678 2.860379549955016 1.3981786444460713 6.277197394767318 9.672532898539613 4.649243715509759 0.03919173310743858 0.20520573552119525 8.673503159190787 6.605283607704544 9.535122373053863 0.48168972994640874 7.635044881887665 7.2446885513732795 0.04271725818172519 9.774167839762496 4.671692390229765 5.740425583155751 0.1711897280800437 4.943295868618405 3.099669254846506 7.898588500242017 7.93037132116774 2.75384922602356 3.151808797360805 2.765052325280706 1.809900506434748 2.932281147177892 0.8425166022482151 5.25352083705277 1.8914335833033402 5.20541653408133 6.306028119395895 5.694551280984312 3.377017640058005 9.768210551911066 10.458353323305529 5.46577443700711 9.078832352219461 2.2039735049491345 8.01913597205919 8.091876474344923 9.05412181954517 6.752017660344581 4.3231432651896755 9.067714205373743 2.2224931306405677 4.7775643329726485 2.114656663383397 8.383592436139285 5.519878504035695 1.0580759129122703 7.307287859544723 2.429840728834906 7.835776811042002 2.2515362362977176 10.580790986276988 5.116503216469878 3.1109997827207945 5.730985246435749 0.14281668456803648 8.688943259967933 4.135239150161056 8.311276695910694 9.680199853671043 6.0237312562186816 6.323560173304473 7.357707115727593 4.958576683624123 5.798416223007195 5.155135325567031 4.152845537429632 10.225912906585469 1.145891220606007 0.14859026282975224 10.038030029659707 0.19687508967547884 3.4976500642866073 7.015497564390363 10.09140138213972 2.5851762131320886 2.616789129234954 6.115479860561561 3.557106133235194 4.798685626264083 7.660742986344814 2.571233398606371 4.149033297966774 5.089137920938443 6.982036933338926 8.857828653887976 4.009477724092453 7.928831558710597 5.514664549784265 1.3154349957146216 7.677414897087675 7.490816925384769 2.4844969865377773 6.649119052001698 10.451249177899813 9.619501355705314 1.2732242662860396 3.841601140058124 1.7172068065147241 9.298126383270947 2.9282459076350333 6.73512274952172 10.08857671445972 3.919375072721001 4.72013650284692 10.452034987705527 10.013595592322558 8.470413800619307 9.876450543122523 10.538091780482691 7.473645919224765 7.750229732733407 3.596067432926633 9.302501432459518 3.549853321109478 0.5380184882492802 3.02471998986363 8.992510083156583 2.473336363486346 10.24280781740833 1.5539707479546825 7.420656852596181 3.0982144448007913 2.906391899795028 7.901434406024875 8.22759857065353 8.081352994379207 9.003787515773729 4.653130288332616 0.1545677268788966
1.211359833418594 2.443538405225668 6.6710792812863975 1.509613196631336 1.2444342511336257 3.1129319379663762 9.541550377164715 0.9821372471987656 6.780955956114487 4.382726425974858 8.58089611556295 0.16569890669053425 7.4908834239438775 0.16291564722096324 9.131542196058255 3.738162581220411 4.28064881980912 3.549276565902707 2.321331774226623 10.385441439364422 9.762778652731189 4.89394211306976 1.1398418432359456 0.8083899138682403 5.425318657931283 7.990745364822838 8.790452315580328 1.8865681819783071 3.260615526595768 4.637220116856259 4.619361841266141 7.42332332847015 6.673190865863006 8.123531140660473 5.188768130462176 2.3882446000562645 7.122151946370133 5.631659731683772 9.256040798256032 5.961820305056636 1.5771626811272914 2.5943522322977723 1.6201901959923715 10.438177998890795 7.08272155296973 4.903661768708826 9.604950969351854 7.0916453852759025 5.801774927322974 5.802432807944832 1.1355231752827797 2.9855259278590975 3.656840047576521 8.158823252729835 7.5854166249137895 6.114788160616437 6.6062355961222785 0.6782261106380431 3.0062279454920864 1.4215420811245139 6.21777831087056 9.742766348653374 4.696535482601215 0.07294092230186103 0.14918079759300773 8.727571661304012 6.57379783707356 9.463899241829905 0.5052374622182092 7.600218938905599 7.2690397116666325 0.04123213742607346 9.849014069083472 4.614586901268782 5.550538806617548 0.15040424333010852 4.95384108259217 3.111350902278362 7.886046847147439 7.942285029338542 2.7601805929171235 3.1050055375707624 2.7751526825532835 1.8553400743955868 2.876031248230796 0.8464971183404875 5.420373942289575 1.8439332732907876 5.187059763040899 6.239880977569441 5.772424962805881 3.379034038530242 9.765558728907427 10.436405965602887 5.44578723405329 9.099051382120678 2.1964299548735147 8.130449498167756 7.992432510288571 9.120687165797595 6.716175936816999 4.372359500691705 8.989673423247869 2.089057470799595 4.790824631082374 2.1601191889380513 8.465533565226785 5.562974872566223 0.9352494586202661 7.388540543333841 2.4986093798618616 7.8140089190539666 2.1216225615815754 10.44192367404428 5.152054147371381 3.1545269708322494 5.76546416138751 0.045746047370242404 8.627022035937427 4.174082770045865 8.28042505799588 9.60230883588665 6.115085267994051 6.257378479915315 7.373812506186434 5.027990595262252 5.772626571383547 5.195675876991687 4.209640156559523 10.365333636486659 1.1729374829065213 0.02511724548387938 10.080259107666626 0.10215294410791904 3.422093386328638 6.919652046571073 10.097841497834674 2.5672730170238673 2.5518764882768314 6.119541878658251 3.646770229670982 4.966648532762862 7.557393032618185 2.5576170272514327 4.131458472336117 5.1776159928239025 6.879850268948654 8.768169262259324 3.978575504598491 7.879722704395382 5.6578157918915215 1.3284095292204923 7.591379994421602 7.36660765227931 2.374036500819682 6.614703156384259 10.441053573866983 9.560904800620673 1.3588524244480915 3.874938084700283 1.7140867382959701 9.314857448045709 3.004721186648476 6.819059977293403 10.149707957183752 3.8408025692080603 4.658346573600125 10.418070196013034 9.971878580704374 8.527735116925701 9.887457641551087 10.497334199969174 7.398620972217152 7.775597179519666 3.509623341969093 9.283852170996198 3.5167114751207262 0.49198010658998953 3.1021405735723477 8.943462615051217 2.4211810750602614 10.202890177776545 1.567029197355121 7.446858477168237 2.9684528646241 2.9746178427095784 7.924723861126037 8.134004175721346 8.033656158932427 8.993249322757 4.592823785858603 0.07369536282144357