0.7938427563350393 -0.027098141768372684 0.19120162925092232 -0.40555449980732733 -0.0639505347100318 -0.3398070210978728 -0.5304733466706154 -0.4453623758328846 0.17713563807615945 -0.10923640313102477 0.37177354670214036 -1.0632892254314785 -0.3267057078292244 0.17677259830978587 0.5749004666357389 -1.0638134733660647 0.42353473843483186 0.12811369965150193 0.4101482898255969 -0.9440885119988902 -0.011896751437585963 -0.2197182486333764 0.2008126699781251 0.35131193641367886 0.28966896679090115 -0.11660801300474756 0.3775500441746014 0.4615973496345082 -0.10836839870377465 0.5274055063785691 0.012109638779340435 -0.27633239758299505 0.021542759167782255 0.08080103060846729 0.06850138730550782 0.9215972728749094 0.006795682765594749 0.8349793784743491 -0.7524868190960718 0.046885351697628926 -0.2508440235039035 0.016096648451546472 0.0537846499206235 0.27586137148384754 0.13909822368746366 -0.15185115247775782 0.4259490043032793 0.04013286346514378 1.0509073068273578 -1.1011178662434777 -0.18784556829449583 0.3216555469998267 -0.10623849684496542 -0.7443888725792858 0.5973035169212875 -0.8180463501644363 0.7224046549987106 -0.26016324402230034 0.5635151076169327 1.0267811032031156 0.39177004442872526 -0.0014588439337136167 -0.1999202400708428 -0.8918871474049865 0.36393605293559256 0.23118459740176314 -0.2785327476684235 0.3402770187557559 0.21142027029064234 -0.9382770475234357 -0.2444664021123338 -0.5133454287410772 0.0683571484181597 0.048125908972949376 -0.08356805183064317 -0.08956540706465864 -0.08721696143714013 -0.894691192512685 -0.23653017798439266 0.42943953395504103 1.0276866457365206 0.1095009696463211 -1.8582424412218774 1.315907053006353 0.26559264256798776 0.2726248668244208 0.10995785467808158 -0.2493640965242673 0.13709044922881553 -0.14205473521262632 -1.0665658393002213 -0.23813583190861565 -0.06676486423037534 -0.7646692200948766 0.5856944719274494 -0.059993349834496675 -0.5463874467977107 0.2805389794651749 -0.027603106429249232 -0.6259777449275283 -0.07816667830941376 0.024070667795958546 -0.03846858838884343 -0.2095230532679295 0.40242495303941017 0.12378164793505135 0.44050633329216393 0.010067925758963306 -0.09659248911476913 -0.3621085128085506 0.6363025238923041 0.800190810040254 -0.6087580386151322 -1.1535313468481876 0.21866281078566854 -0.23478362760693114 0.0004471148397476171 0.0541407477084616 0.4183866185749891 -0.47614413710043163 -0.040682051100394453 -0.25064219190574255 -0.10762020768384047 -0.0877113845750554 0.8952848602326258 0.19460988360152293 -0.8182124434286554 0.9929772672797931 -0.46367248699598207 -0.16994554808562345 -0.16007354038755012 -0.6911199859528162 0.3976221323341281 -0.48538236786924793 0.15104022654068827 -0.03944277937665465 -0.21787193945325703 -0.46083193222339347 0.22940385135225655 -0.7052001181949662 -0.8634962549671193 -0.998135928662597 0.8775792154227466 0.9266124667013138 -0.1983500673702455 0.36027197382044407 0.20262195527272203 -0.7676678977118844 0.5736948763634119 -0.6498982602988679 0.30502308064946826 0.059492241828362054 0.905576471966621 0.05103665486184114 0.4076784881288656 -0.06188542465088698 0.2326187587451284 -0.2901777881065196 -0.029357884336826862 1.1274163949286906 -0.5364997553703534 -0.32817509328589933 0.8747600008063966 0.4997741178145457 -0.18330397167040044 0.9205114960098986 1.4309137829622516 -1.4650742308940445 0.44930490542040036 0.20294591427104405 -0.2664290224263541 0.3471027834283377 -0.4582436026709269 0.29473121180515693 0.0059420765160478305 0.054056158414455296 -0.30101241682817836 0.4382787295132258 -0.796315643355564 -0.006887214038136527 -0.055768256009555574 0.08338396084429511 0.19787004241003342 -0.0683967434068435 -0.8462657500214458 1.6652266415803514 -0.12779668263171537 -0.407275339153176 0.14567690534624586 0.7259255236677756 0.238490387034557 -1.2726112184321954
0.3218578928186199 -0.41438392517349926 0.10487452661790325 -0.6667371862330775 -0.02586195536842643 -0.3690900863327063 -0.2390172060723045 0.09779756516646383 0.2876028282904918 -0.04338248075069303 0.6331716915728064 -1.5014198594026142 -0.2913260427783499 0.318131078786336 0.32173216587403297 -1.0787490116299743 0.4806829055110496 0.2946977874640602 -0.05661903404562507 -1.303888174168606 0.020484750216913112 -0.014410518998375182 -0.0881297030593966 0.6401944027475427 0.40599158734474594 -0.19685934175733194 0.3284430022353053 0.47043448831016393 0.17102746829589255 0.581716718226624 -0.12445476274267599 -0.07681942025289995 0.04916103510568308 0.18260437450021455 -0.03663667738642722 0.19408049346061415 0.03384985866990945 0.58457604205229 -0.15348997363276146 -0.15750629388100618 -0.36235739559456304 -0.23501399845018237 0.08083008407418982 0.24361228164215465 -0.2252324935833863 0.045518553257089346 0.17455013673717037 -0.5035161013554812 1.028797362302196 -0.7474667401736611 0.01447788190120087 1.2514626093790384 0.8230605155495759 -0.8183299428431261 -0.014973333480380666 -0.30221415044576344 -0.2986616572078147 -0.1935829849989053 0.8361338037937666 0.5180253507152497 -0.715988981280354 -0.4136249355202877 -0.11372632058157833 -0.6132834372893116 0.5170290482402515 0.18261697290570483 -0.571259527449042 0.09323642815834265 0.5253062006473792 -0.3417942267312307 -0.8766045102143032 -1.7230620645315808 0.35803871361455114 -0.1924702115507008 -0.13846958896452927 -0.20009353242391345 -0.19441242287873614 -1.1362303936758948 -0.28451621894536805 0.638811663467403 2.114822338768293 0.07484738412819367 -0.26656246268042477 0.13601264278360448 0.22278891713890017 0.9274493607803124 1.0008540989247086 -0.2093572171140265 -0.03046680113028947 -0.22927606752514063 -0.44002682255258413 -0.24686524136181354 0.09970300971929281 0.07755012777133742 0.9546264354157366 0.5322502360653801 -0.25820894850940695 0.3559756604379353 -0.05402067719082954 -0.5019533848540516 0.27939149612429304 -0.08824308870880931 -0.1387593522908062 -0.001361399123900881 0.37787734560703307 0.12027749143653478 0.25578002735294014 -0.188359788926753 0.44862896239929834 -0.40282218847782886 0.19236479632108805 -0.22788690048709787 -0.18913626208146136 0.09580393177520274 0.5762135290202076 -0.7943394934657997 -0.5930372854457657 -0.36208254466662154 0.14809219965595785 -0.4067253801869769 0.49841246158032865 -0.6279040154159637 0.24378660243648986 0.0658238404733447 0.5249814703181088 0.652759898117379 -0.9359702537671298 1.511009045752946 -0.17042865836962906 0.42579602366518277 -0.5827497874768286 -0.7022708603633131 0.039743084225892844 -0.7432408750177716 0.036481382755485556 0.1340771163237884 -0.11945011043923298 -0.2639741331279583 -1.0094796358101905 -1.073813779111886 0.3344665827215659 0.2831188243772092 1.4268365275690844 0.7377610828501229 -0.7937306562372072 0.8285205102228828 0.7076035854301362 -0.6969170522505674 0.068487760458753 -0.5545033910366256 0.5603367098889511 0.33668878718386536 0.7980984462875996 0.1055872364142117 0.20282275842961842 -0.050637876761525695 0.5694574412432967 -0.4237391411361541 0.14034212339689378 1.2897576483044948 -0.3595276394552518 -0.4891541762068544 -0.5845891546784125 0.754196602698327 0.11426059581849353 0.5409480209496942 -0.33064283810010153 -0.4649032740792897 -0.22085776155445835 0.23391665162094555 0.06232945416684103 0.3056709986461123 -0.5323453668823477 0.13676057669322253 0.8931210198120876 -1.0844517184417066 -0.5958256468241803 -1.0418248849101155 -1.2634835450993145 0.2511625831855868 -0.07472602805898099 -0.041931093016147135 -0.04338788006733173 0.8931935249212358 -1.0533742803106116 0.10669666742830657 0.08892751637034363 -0.0787847715093869 -0.0865800991840896 0.7104019741108798 1.0581274787248809 -0.7380415902050192
-0.061090182443101236 -0.5928452240396177 0.15004726649979963 -0.6425346208449451 -0.10144004701505756 -0.25079928630889714 0.0625341139784794 0.8143154223670942 0.3231820109466821 0.05093458206633808 0.6616751983291379 -1.441812946373259 -0.02686957069733437 0.34840941805490316 -0.21511571686435854 -0.8491962934046795 0.42871551130482294 0.29467824708003443 -0.7365308099874477 -1.4857826670859895 0.015075663386199843 0.377155379839344 -0.4386232573368381 0.958700348374794 0.47201803074719995 -0.17819853212303505 0.23914653256131718 0.14882599249818884 0.49960751032969436 0.5032471639648107 -0.2502395571506852 0.14391569968076504 -0.004046402155231741 0.2668686810669339 -0.8330533650962297 -1.2582716618810716 -0.0807732626943254 0.28642012083630025 0.6715312651876112 -0.2660369291942579 -0.3501256294150615 -0.42068827012497223 0.11648485716332195 0.1546433705109143 -0.44919409087414897 0.24735169407992885 -0.042003341014979274 -0.7922782400613969 0.8290779253882494 0.12353302225935499 0.5192106292726026 1.9980466898374298 1.2309030400601317 -0.8123503282209236 -0.4357587913048495 0.06166508110996476 -0.94538357666123 -0.09035679261770245 1.1129315710489542 0.08603065443852281 -1.4161965313567353 -0.573088867348297 -0.11948353478032969 -0.12900304423499073 0.27518568557306156 0.38567678704679387 -0.9451568053624045 -0.32268655936750235 0.9771228167460398 -0.22722586986433127 -0.9523114141293147 -1.4895418770181057 0.7085505227244377 -0.3666107715542783 -0.3375989577029605 -0.21614467234950516 -0.2736062569010836 -1.0691582826177457 -0.08799729124659038 0.41737900324608124 1.583319779502215 -0.2633041036441272 0.7926255960984866 -0.3005269925513276 -0.3453382353287472 2.877506153002025 2.1168563384791867 -0.1274071605027806 -0.09262039184089856 -0.3335841801166126 0.293769619222836 -0.30266692171246584 0.0422221418940047 0.538428339851634 1.1898538354283055 0.8829006276356601 -0.08877504995287935 0.5754195723640025 -0.5302221498917578 0.014000170933833954 0.9592917021018897 0.48943185534827327 -0.2993977640428908 0.34260952354367447 0.33599047556526007 0.3641291427830052 0.17416858502803553 -0.20957730354463264 0.3616518848871062 -0.3293313183775296 0.0692323519342614 -0.9981436419720809 0.7471975456726745 0.49895573567830837 0.8051869777032648 -1.3121169898363014 -1.0855454657265176 -0.8836225934033493 -0.13900103598796706 -0.3811400755187049 0.819387437573363 -0.7937915913821297 0.6389057658431061 0.06179980691561615 0.18976438258376352 0.7393181429245976 -0.6679903419138883 1.0518318755241562 -0.19908745975690229 0.9876501986399249 -0.8034329711266357 -0.7042146143532453 -0.20111323193767947 -1.0088898247449916 -0.053007919655599034 0.18510271544203608 0.04669277607084862 -0.056703366229315245 -2.7139994185632097 -2.1463363502161745 1.8762568755214266 2.5566548470710484 2.121376080726411 -0.5741512471745402 -1.2324757838638902 1.0106487164176272 1.1228974240124145 -0.6751647481751404 -0.4798344414678252 -0.2824757914765716 0.8188210235469318 0.6601713600901017 0.5638166980177516 0.0729419395753647 -0.01556468720747642 -0.14156211184692394 0.7773640419537257 -0.4444010403608798 0.21617578269775672 1.1015397842722447 0.09961996308718328 -0.8297929491774031 -0.9009911665887838 0.5446779203057717 0.6694347876698987 0.040542954419368886 -1.356984025552321 0.007417375509993678 -0.7267778443657419 0.38692685740381105 0.4264164308580011 0.38281052124259235 -0.5678985813966091 -0.08508705957833088 1.616476982980474 -3.37470685366244 -1.417637891788952 -2.1492694647025696 -1.3590018273132982 0.2657322534696456 -0.08071541287319647 -0.13869198938798047 -0.2592520450619406 1.04121424790931 -0.8036083203622354 -0.33065312251274664 0.17513326293415 0.40530098903562456 -0.14053649879588703 0.5231436457784215 1.2442725193885023 -0.1484480403334798
-0.26261221978342514 -0.39789595482080503 0.2849826170588253 -0.47300790546429505 -0.8105068472542816 -0.40618827673658436 0.10386074064140823 1.3629050190224463 0.1404087149687711 0.016917344580628928 0.579247430750525 -1.2737772137158385 0.13564831746565026 0.4141502118961384 -0.7779078302723377 -0.4103940872878158 0.2609101494906539 0.009379127222054815 -0.9427713358493635 -1.3243266445286161 0.029024412256808078 0.5789412123640159 -0.5829125383069381 1.2500197062849245 0.48766113660109567 -0.10436364841975576 0.24236786771209226 -0.3277891707013903 1.1262259741650151 0.7862852557027555 -0.259648766279727 0.6783236055190963 -0.13628852215281043 0.26111043842691806 -1.631378582682655 -2.6520666856141553 -0.1986236327466063 0.09814389276228903 1.055682359618498 -0.2721525551736926 -0.19514287328685748 -0.5027206020373793 0.19100493985908396 0.044462858299065364 -0.6072138340564639 0.40511586960801194 -0.14375217751970729 -0.7958111929153198 1.194365093035098 0.9124677997698156 1.2142744303645152 1.0230871992912962 0.5922376723626058 -0.3396147025814087 -0.5482160153660172 0.2932785385190304 -1.0723608487154437 0.13935610533454065 1.462166056108314 -0.1077986422432337 -1.6432935889526858 -0.38905830192451707 0.08770238571399089 0.33428454861774687 -0.07547910417492162 0.8564920557351442 -1.262970867128954 -0.7150461577511105 1.2610571950460088 -0.2242179362759429 -0.6193563829562688 -0.368757642693952 0.8079460285056409 -0.3146958278525419 -0.8418797051386082 -0.12941956294711904 -0.3344989786213981 -0.9604713242322878 0.020045862907281605 -0.08704006953964363 0.0079508794159605 -0.5661923973387797 0.9903994792502878 -0.23767071934673906 -0.1840159101357605 2.104113951211854 1.9365980956136453 -0.08422394024708722 -0.11473445013111852 -0.4974323570552465 0.872973084109303 -0.4114793499321946 -0.19001943601736307 0.6638318396608245 1.1134817871254696 1.1027849695332557 -0.16476734631879364 1.2813115744196706 -1.8181604855993267 0.7411379697421558 1.8858339776869009 1.6650962866500743 -0.4022678586362556 0.6529241916093852 0.29781962092249353 0.7773200760896678 0.11737702996028816 0.027036435292501826 -0.5987232800869495 -0.21990079695782772 -0.3317270723032158 -0.8985715014036977 0.9658310458823043 0.4407027655736862 0.6227456111434759 -0.987006651518655 -0.8837624614153232 -1.308206856148618 -0.27460281648639806 -0.5183739923039201 0.8218896351699265 -1.031895027390913 0.7072251190447949 -0.05190825883351705 -0.3464628358514936 0.5489564930764674 -0.2195030472987768 0.25389000941907885 -0.43041783870791034 0.6446496103054188 -0.2575571738580209 -0.7108758284235047 -0.28064259492257476 -1.1530292104007887 -0.12181295424445471 0.28123446287030274 0.403800236120382 -0.017360602765634617 -1.201945476485517 -1.5118549386930091 1.6380871050510821 2.1196328727830593 1.0241678339499845 0.03405734669502521 -1.092124404495616 -0.040428283218375535 0.7872615035730959 -0.7048707598800054 -0.9580632290114275 0.33305119043127807 1.302004583992648 0.7120073709247867 0.09507630958055885 -0.0015146368723135202 -0.2477121627431411 -0.19608801080894617 0.9154410234655267 -0.48520933262649335 0.3951124785383969 0.4032621042287249 0.4353864955670953 -0.9743305987128832 -0.2605777058518996 -0.4668804524103185 2.0071638216473495 -0.8183021749289842 -1.2625085827805547 -0.18273292965827884 -1.0788922220760582 0.5804185682404907 0.6769352098120018 0.3388757675328551 -0.5853070066810436 -0.3939151157961861 1.1095014623214827 -2.5111887443184493 -1.1155553818250465 -1.3871098984034242 -0.7539361499480887 -0.1053712637486637 -0.012590949291133153 -0.07654868309001656 -0.31187172814018543 0.5124334584497691 -0.6823445537530313 -0.1286963116278493 0.2506581327453425 0.7932899691553629 -0.058264025848215786 0.19513181754326395 0.9653520493633567 0.14870360798771165
-0.3347005531092429 -0.11575672074804581 0.4017613513134823 -0.4310315610325092 -2.024471716798178 -1.0107777857963238 -0.29339115283749473 1.5789759007112225 -0.5394207856718903 -0.04313976861226764 0.4292032495745189 -0.8071541287319647 -0.02536650378924664 0.38006252618381 -0.7361705984345515 0.17749739229095235 -0.3377079724769991 -0.2962435346846253 -0.6921576831887112 -0.9958764432044591 -0.01289228258163586 0.27445600649588864 -0.4478437474938416 1.031742560973449 0.5353075348344651 0.02557270626278177 0.4034587936205632 -0.46842285719677385 2.0266065037529937 1.404671561436271 -0.1678899511081754 1.447453689598804 -0.3815072290501365 0.8227180446084927 0.16669670213102258 -2.326559368968406 -0.20068437193037694 -0.0510839631600088 0.664238845291256 -0.110424509901855 0.04267902692576521 -0.34291625615081583 0.35847091605596326 -0.18135790368762317 -0.6233189671484427 0.46396662119763327 0.0003172741301026794 -0.6560665938931088 1.3814434441462662 1.2377825407887844 1.4766341678175021 -0.5446928327041071 -0.38779537605169345 0.6444367229636644 -0.38276758381979886 0.42395022870569565 -0.6539143234367965 0.5020012073728515 1.8527155978663772 0.0056659400365257255 -1.4805239897902116 -0.060285427153618766 0.7833984210732637 0.7187472607517814 -0.4488017405317367 1.6356283590979446 -1.2728428748270273 -0.7777242535066219 0.8261610088517707 -0.2138137102234834 -0.2268224637783255 0.2230833084508674 0.6798233299930744 -0.08101957437717659 -1.1881975307718053 0.0013688553230686103 -0.3996571604862859 -0.8621826783620183 -0.060485458979566795 -0.2699162096440061 -1.0971822786344974 -0.5533448519521502 0.8683895785036787 -0.22646662310080354 0.29043541264328043 0.13800344796138814 0.7758797440987153 -0.2348309359050988 -0.08514002430345337 -0.6429894489941764 1.3188216555499868 -0.5008035875203246 -0.4298668513004468 0.4645775153087547 0.6595887481137545 1.035615413665294 -0.24446383100917252 1.4967018851016545 -2.1254571927743204 0.961343442424596 1.011842222505096 1.6007158634914755 -0.3315437526478161 0.7141395867764411 0.12017490442039948 1.0778187865062212 0.026380032655425538 0.31014214704358845 -2.1774024754933596 0.38042505172955127 -1.2162971172214987 -0.1508167976759725 0.5485435739087648 0.30444715354134017 0.29183306432175543 -0.3376616926200959 -0.5002693122834094 -1.3985086271586689 -0.37868929998536716 -0.597384506670868 0.47909036421294915 -1.14592962324153 0.46350407973891783 -0.18664949110386567 -0.9688076120121251 0.325479291621291 0.11428039331283543 -0.16055587934060736 -0.5076252384278483 -0.4317319295336436 0.39279257215596863 -0.8613933496915035 -0.30412885096997305 -0.9932965982924249 -0.1627035218112295 0.5269571059872409 0.8354450052568579 -0.31381291102695635 1.3715349267833024 -0.3944948995590561 1.7237392931042637 1.0339812204959806 -0.9681946610184744 0.13890102007499305 -0.32045972691951263 -1.324486824255564 -0.13457642455771016 -0.5369422422244107 -0.9666028910513225 1.0293876875880272 1.8129732849714324 0.4610157660994254 -0.4513229642916937 -0.1527834344840401 -0.4576987859110504 -0.15085767821623697 1.0156718806638314 -0.479530022853529 0.7192198295128258 -0.3815378251777558 0.3785005810133288 -0.5570143303839374 0.22014762286131118 -0.6381750583246687 2.234066760954623 -1.1690248144980964 -0.798501081042657 -0.11974270197898734 -1.2313283005230085 0.6522487628089154 0.5740136931554114 0.17890481416144027 -0.6132793235242534 -0.519489336855286 -0.14277747231126378 0.4241201786246567 0.5142342591039337 -0.36571474210257016 -0.16881606246687056 -0.36165137066647396 0.017433879205731265 0.06329901716896195 -0.20799838909328697 -0.2826128312750681 -1.8023116914925283 0.10114282748961291 0.29796437403047393 0.8201669960518648 -0.08089564720480262 -0.07063206049526545 0.5054768246262779 0.23077399222690578
-0.4094800601139787 0.05563430153485257 0.5917368214667874 -0.3684660795954622 -2.0857660448322854 -1.013157084661778 -0.7655472518244558 1.406464905891268 -1.2006408987414807 -0.13466872716120032 0.24820761432232089 -0.08994233078810315 -0.22666665492675156 0.35047349967278346 -0.2753278675778807 1.3536359350156946 -2.2325552094061036 -0.4600048083364077 -0.37872118166456714 -0.6550427806142848 -0.17557754956042018 -0.5852440146535921 -0.29833589843727976 -0.16056564953262023 0.6848158981116593 0.1379229724324399 0.5886417274812314 -0.38418271899977063 1.8244740865221805 1.2011119248406281 -0.14110625525642792 1.3173831233312474 -0.5739622710921857 1.1809583327108888 2.5119503050748224 -1.730680500308787 -0.2844691677575165 -0.40148110106890206 -0.02481551638178307 0.13516417874038011 0.20221135009786467 0.4900568905267818 0.5896426579419201 -0.5694960077907159 -0.5382771589857505 0.47371135928922287 0.44265808952784413 -0.49507748366982474 1.0198730632293724 1.1312339689025679 1.0385117613764823 -1.9608222582683326 -1.7526068680682332 1.915505536609404 -0.0783718523416844 0.5368424834217528 -0.089474132902433 0.579609184965318 1.8459862495623434 0.1709539347454798 -1.1700033763612818 0.047512186648350434 1.5678725917092093 0.7578380561056561 -0.7684862798481217 2.147983398901294 -1.0972527268611167 -0.6103693489663101 -0.373368401993086 -0.2277737719480013 0.2819633706165273 0.5571189742826018 0.5008928048000213 -0.029212874118530335 -0.7314515956923273 0.18795689706137952 -0.39594423041107296 -0.6173586357999498 -0.24191046845969952 -0.18322786701682636 -1.5625853751683412 -0.24888072912994555 0.7615556141665594 -0.3940922648039987 0.2886886051555028 -0.11756677737359109 0.11030135406042939 -0.6228574541309919 -0.06754313715729657 -0.8116499597197893 1.5010992428384018 -0.3908922698094623 -0.47612768204019934 0.17355023471774628 0.13558095456282457 0.6548903141968204 0.03681999704182691 0.8648075175793751 -0.871041671414545 0.9581678729100918 -0.2616951072857944 1.1615405903059093 -0.20030590554503566 0.5417311789726219 -0.28498313127945757 0.9201865085703119 0.013380792182280181 0.24124378140997807 -2.0608808515548316 0.5538328473321623 -1.2408537235149404 0.38200036663647113 0.24877762789317795 0.1783833944403315 0.07703307892560282 0.03718123703598758 -0.3205607712737511 -1.0090410056108752 -0.6231641867381331 -0.11743025179572679 0.15150585332319713 -1.0093050579055391 0.2114657788165971 -0.22108119041917412 -1.220942329302994 0.18885035540992637 0.3106687089710198 -0.371710811785005 -0.40345622251740193 -0.8821133558476744 0.4853597421614287 -0.69771383712025 -0.38855925080091147 -0.4817082614517705 -0.1696437005744885 0.8319778726438638 1.0817638871968984 -0.3845488440899378 0.4311063801345027 1.6609886922396038 1.5295875800860819 1.2427090315561242 -2.0574427724075597 -0.8157069033979824 1.025716152273711 -0.7164044715512178 -1.3844295233577835 -0.17004762088112652 -0.493068423659596 0.8210959356240375 1.7338146750623944 0.23942729702652957 -0.43689958977751214 -0.2973413957344944 -0.5467121771269811 0.07511992106328999 0.9503545475132602 -0.13886425329978666 0.9376921215542433 -0.47841956339816955 0.007038652014336265 -0.17472162931802812 -0.046102965005649636 0.45196548297169903 0.8747851976173773 -0.6118598174689075 -0.5924173924735797 0.34843692885872896 -1.1400554238489398 0.563477826621094 0.1922799499167656 0.01325712212022233 -0.6187778847449794 -0.385785030489884 -0.9328435352126903 1.7715289017837168 1.4178086130388614 0.0010595516127659172 0.12130053338441046 -0.32663397405102457 0.010664421692381635 0.21256903918310488 -0.0037566388289548207 -0.6251493354889621 -2.917653928865504 0.5121740341407953 0.21490025841944282 0.5156493942839055 -0.2942866680685706 -0.3291526267078202 -0.0004419726334250453 0.38143986614731085
-0.5615551556770845 0.15938062808558356 0.9286022434378329 -0.07697214378068035 -0.7808661415697132 -0.3618452318448349 -0.58795909959191 0.584548017027832 -0.7838781889231596 -0.35792738484766745 0.2652324310150916 0.4729785948882564 -0.2931893212393338 0.23395290417551964 -0.003705216765729103 2.4050186388175745 -3.815885016210647 -0.6320337213136211 -0.10646963901916501 -0.28554131777577274 -0.2540103370470271 -1.745104389043601 -0.3652794543373645 -1.834616317162505 0.9339529662267851 0.1691014549177733 0.6244715926956471 -0.4177983501716869 0.6745934490527027 0.1254901459857258 -0.4855453758096734 0.14542313746422697 -0.5802586456238586 0.32459714612665386 1.376426707657965 -1.5340836681842227 -0.4772710516160232 -1.206485787558032 -0.7228473989630841 -0.11546850008366566 -0.27074101953814667 1.6717155917388047 0.6899665890746634 -0.8700741652949532 -0.41199125657160657 0.4813053695863969 1.2285342827176389 -0.34505027177468317 0.6112106139206829 0.7939594844185616 0.4457974064877742 -2.060732241792109 -2.102008217722761 2.087245457591289 0.3181719593266004 0.47356094975428764 0.2184712636001528 0.3135779121980148 1.0967184516242017 0.18058065920196642 -0.7542562522916687 -0.2072136884084625 1.8955524905262453 0.17810622951954488 -0.9658094486157496 1.2636000160725205 -0.9054335186308535 -0.5165073714088266 -1.7364078897108677 -0.04192955035425037 1.089249911161298 1.1524573970577185 0.42368231975628967 -0.11805425853297087 -0.016183808848714065 0.2656594912501812 -0.28457278321491636 -0.25939371284612744 -0.36433945902159837 -0.30328938578781317 -1.351079487142428 0.15440888590260504 0.6010321307257843 -0.7441595301772991 0.2949045041582276 0.15935106039922878 -0.453374961724716 -0.8808733127929862 -0.1395185990543339 -0.85245645221319 1.1308963830574912 -0.006934522336304186 -0.2442794829125083 0.04998147412444941 -0.20902271659274324 0.12448895841472109 0.11170080551111729 0.4526249709325689 -0.03154100803107471 0.8567599646845502 -0.5169195192455807 0.8457186192687242 -0.20838096924368626 0.4416779850027619 -0.7710805229378591 0.40511844071117326 -0.022909043387689575 -0.2656538348232263 -0.6874044847744419 -0.26280119586577966 -0.9283441046804399 0.5358400102991674 0.20827812511723487 0.15570189368241572 -0.0006209214134505435 0.3932875095145162 -0.3140011157783625 -0.4244266541214819 -0.7591876281550151 0.9543670111067629 0.030471943336612035 -0.5172069685790125 0.08532308684853693 -0.13356161013995063 -0.7755724972709417 -0.25003232623588545 0.3398288754747438 -0.49662194533880916 -0.17099172996195067 -0.6424366618145001 0.627194648053765 0.4674021292417434 -0.5489405522368674 0.1495484724865102 -0.15988739251867304 0.9660205361852913 1.018318317147743 0.3898234622253158 -1.9184731038781606 3.864063375688087 0.9869068927159972 1.1120800216819362 -1.3137118451272474 -0.6173426949603497 1.2444452975209408 0.16687847912452553 -1.6176195812253498 0.11065976584111265 0.0035468368109938912 0.086374925151819 0.9738698570263808 -0.08369917809186875 0.2669985217765789 -0.21484575103242354 -0.20636085348986394 0.2634205746173334 0.815260302778867 0.41016885865088715 0.7218068735137118 0.03790063170051537 -0.38981523469519963 -0.30214550199135704 -0.34217680688163005 0.8405491592526426 -0.05193268431354927 0.1121108964653424 -0.7454355686762453 0.5558010268021266 -0.987690307849241 0.4211731801811908 -0.22626247750979742 -0.12350936811027115 -0.5285792149716961 -0.09045038077277326 -0.4974470123432659 0.9900312972775916 0.9783644024626248 0.05766084504657812 0.24650862935334322 -0.28739096939000186 0.058673859692124755 0.3087848616847456 0.12738222080211611 1.1010947263150264 -0.3365913423740526 0.8485411763191837 0.16773619913913046 0.1712796935160147 -0.41392806858300324 -0.6499342557431258 -0.3617644992055705 0.6948758534508226