An instance of this daemon is already running

     Program PWSCF v.7.1 starts on 11May2023 at  9:56:16 

     This program is part of the open-source Quantum ESPRESSO suite
     for quantum simulation of materials; please cite
         "P. Giannozzi et al., J. Phys.:Condens. Matter 21 395502 (2009);
         "P. Giannozzi et al., J. Phys.:Condens. Matter 29 465901 (2017);
         "P. Giannozzi et al., J. Chem. Phys. 152 154105 (2020);
          URL http://www.quantum-espresso.org", 
     in publications or presentations arising from this work. More details at
     http://www.quantum-espresso.org/quote

     Parallel version (MPI & OpenMP), running on       4 processor cores
     Number of MPI processes:                 4
     Threads/MPI process:                     1

     MPI processes distributed on     1 nodes
     269685 MiB available memory on the printing compute node when the environment starts
 
     Reading input from pw-si-81.in
Warning: card &CELL ignored
Warning: card / ignored

     Current dimensions of program PWSCF are:
     Max number of different atomic species (ntypx) = 10
     Max number of k-points (npk) =  40000
     Max angular momentum in pseudopotentials (lmaxx) =  4

     IMPORTANT: XC functional enforced from input :
     Exchange-correlation= PBE
                           (   1   4   3   4   0   0   0)
     Any further DFT definition will be discarded
     Please, verify this is what you really want


     gamma-point specific algorithms are used
 
     K-points division:     npool     =       2
     R & G space division:  proc/nbgrp/npool/nimage =       2
     Subspace diagonalization in iterative solution of the eigenvalue problem:
     a serial algorithm will be used

     Message from routine divide_et_impera:
     suboptimal parallelization: some nodes have no k-points
 
     Parallelization info
     --------------------
     sticks:   dense  smooth     PW     G-vecs:    dense   smooth      PW
     Min        1991    1991    524                94089    94089   12765
     Max        1994    1994    525                94094    94094   12768
     Sum        3985    3985   1049               188183   188183   25533
 
     Using Slab Decomposition
 


     bravais-lattice index     =            0
     lattice parameter (alat)  =      20.3823  a.u.
     unit-cell volume          =    8467.5956 (a.u.)^3
     number of atoms/cell      =           64
     number of atomic types    =            1
     number of electrons       =       256.00
     number of Kohn-Sham states=          154
     kinetic-energy cutoff     =      30.0000  Ry
     charge density cutoff     =     120.0000  Ry
     scf convergence threshold =      1.0E-06
     mixing beta               =       0.5000
     number of iterations used =            8  plain     mixing
     Exchange-correlation= PBE
                           (   1   4   3   4   0   0   0)

     GPU acceleration is ACTIVE.
     GPU-aware MPI enabled

     Message from routine print_cuda_info:
     High GPU oversubscription detected. Are you sure this is what you want?

     celldm(1)=  20.382308  celldm(2)=   0.000000  celldm(3)=   0.000000
     celldm(4)=   0.000000  celldm(5)=   0.000000  celldm(6)=   0.000000

     crystal axes: (cart. coord. in units of alat)
               a(1) = (   1.000000   0.000000   0.000000 )  
               a(2) = (   0.000000   1.000000   0.000000 )  
               a(3) = (   0.000000   0.000000   1.000000 )  

     reciprocal axes: (cart. coord. in units 2 pi/alat)
               b(1) = (  1.000000  0.000000  0.000000 )  
               b(2) = (  0.000000  1.000000  0.000000 )  
               b(3) = (  0.000000  0.000000  1.000000 )  


     PseudoPot. # 1 for Si read from file:
     /home/ppiaggi/pseudos/Si_ONCV_PBE_sr.upf
     MD5 check sum: 8553c464762ac42b85b1eed164b4d029
     Pseudo is Norm-conserving, Zval =  4.0
     Generated using ONCVPSP code by D. R. Hamann
     Using radial grid of 1510 points,  4 beta functions with: 
                l(1) =   0
                l(2) =   0
                l(3) =   1
                l(4) =   1

     atomic species   valence    mass     pseudopotential
        Si             4.00    28.08500     Si( 1.00)

     No symmetry found



   Cartesian axes

     site n.     atom                  positions (alat units)
         1           Si  tau(   1) = (   0.1071720   0.2960410   0.5631610  )
         2           Si  tau(   2) = (   0.3061410   0.9084890   0.4215730  )
         3           Si  tau(   3) = (   0.7435250   0.4033200   0.8878770  )
         4           Si  tau(   4) = (   0.4680480   0.0954612   0.1435050  )
         5           Si  tau(   5) = (   0.4178960   0.1560310   0.9221590  )
         6           Si  tau(   6) = (   0.3480660   0.0991004   0.3125510  )
         7           Si  tau(   7) = (   0.1626080   0.0666263   0.6427190  )
         8           Si  tau(   8) = (   0.6646830   0.1671560   0.1417420  )
         9           Si  tau(   9) = (   0.5039730   0.9241820   0.7264890  )
        10           Si  tau(  10) = (   0.0876461   0.1966410   0.3335650  )
        11           Si  tau(  11) = (   0.2578180   0.6267240   0.3729730  )
        12           Si  tau(  12) = (   0.8051330   0.6244380   0.0149563  )
        13           Si  tau(  13) = (   0.6921220   0.6834780   0.8286560  )
        14           Si  tau(  14) = (   0.8655500   0.2512560   0.4174730  )
        15           Si  tau(  15) = (   0.3561870   0.7863360   0.7345150  )
        16           Si  tau(  16) = (   0.4161750   0.7190980   0.5274000  )
        17           Si  tau(  17) = (   0.5471580   0.6896580   0.9935050  )
        18           Si  tau(  18) = (   0.0472977   0.1649800   0.8931680  )
        19           Si  tau(  19) = (   0.5220360   0.4233840   0.4582710  )
        20           Si  tau(  20) = (   0.9778190   0.3333950   0.2118280  )
        21           Si  tau(  21) = (   0.6516540   0.9259480   0.5401070  )
        22           Si  tau(  22) = (   0.8925780   0.7832740   0.7941410  )
        23           Si  tau(  23) = (   0.9894600   0.1551070   0.7055960  )
        24           Si  tau(  24) = (   0.6718170   0.6998100   0.1750330  )
        25           Si  tau(  25) = (   0.9068930   0.0278074   0.3386040  )
        26           Si  tau(  26) = (   0.8886640   0.5478640   0.2536370  )
        27           Si  tau(  27) = (   0.6678340   0.9535520   0.2543920  )
        28           Si  tau(  28) = (   0.1632030   0.2430360   0.1103210  )
        29           Si  tau(  29) = (   0.5187350   0.0198526   0.4073440  )
        30           Si  tau(  30) = (   0.8034410   0.7369670   0.5418620  )
        31           Si  tau(  31) = (   0.5400410   0.3541900   0.9335030  )
        32           Si  tau(  32) = (   0.1219540   0.6519890   0.1931610  )
        33           Si  tau(  33) = (   0.3663800   0.7695520   0.9498960  )
        34           Si  tau(  34) = (   0.0666268   0.5619000   0.7587410  )
        35           Si  tau(  35) = (   0.6449650   0.7736370   0.3843530  )
        36           Si  tau(  36) = (   0.0600352   0.6913550   0.4704240  )
        37           Si  tau(  37) = (   0.1307810   0.7784280   0.6858970  )
        38           Si  tau(  38) = (   0.9964790   0.9700750   0.9814290  )
        39           Si  tau(  39) = (   0.6183430   0.6437970   0.6050510  )
        40           Si  tau(  40) = (   0.9922070   0.9002590   0.5361450  )
        41           Si  tau(  41) = (   0.7950300   0.0072390   0.7508900  )
        42           Si  tau(  42) = (   0.4672600   0.6417810   0.3245150  )
        43           Si  tau(  43) = (   0.3459410   0.3549470   0.1993060  )
        44           Si  tau(  44) = (   0.8525670   0.2782240   0.0306119  )
        45           Si  tau(  45) = (   0.0764770   0.8635960   0.3137280  )
        46           Si  tau(  46) = (   0.8085950   0.0689053   0.5592640  )
        47           Si  tau(  47) = (   0.2908720   0.3111350   0.4013920  )
        48           Si  tau(  48) = (   0.5394490   0.3655960   0.1715450  )
        49           Si  tau(  49) = (   0.4348390   0.3120550   0.5983210  )
        50           Si  tau(  50) = (   0.8482210   0.5225660   0.5269680  )
        51           Si  tau(  51) = (   0.4296320   0.5512010   0.6635900  )
        52           Si  tau(  52) = (   0.7483280   0.2801450   0.6405740  )
        53           Si  tau(  53) = (   0.8244840   0.8457690   0.0923834  )
        54           Si  tau(  54) = (   0.4051710   0.1290310   0.7087460  )
        55           Si  tau(  55) = (   0.3987600   0.5836770   0.1451000  )
        56           Si  tau(  56) = (   0.3385950   0.3776960   0.9123880  )
        57           Si  tau(  57) = (   0.6662630   0.8880540   0.9003590  )
        58           Si  tau(  58) = (   0.2373660   0.5195920   0.0107748  )
        59           Si  tau(  59) = (   0.1443530   0.8105590   0.0348840  )
        60           Si  tau(  60) = (   0.1040500   0.3431800   0.8296860  )
        61           Si  tau(  61) = (   0.2445320   0.0477491   0.0113384  )
        62           Si  tau(  62) = (   0.6788570   0.5062710   0.3320380  )
        63           Si  tau(  63) = (   0.0143183   0.5495120   0.9860060  )
        64           Si  tau(  64) = (   0.7491240   0.4962430   0.7057660  )

     number of k points=     1  Fermi-Dirac smearing, width (Ry)=  0.0100
                       cart. coord. in units 2pi/alat
        k(    1) = (   0.0000000   0.0000000   0.0000000), wk =   2.0000000

     Dense  grid:    94092 G-vectors     FFT dimensions: (  72,  72,  72)

     Estimated max dynamical RAM per process >     150.31 MB

     Estimated total dynamical RAM >     578.25 MB

     Initial potential from superposition of free atoms

     starting charge     255.9608, renormalised to     256.0000
     Starting wfcs are  256 randomized atomic wfcs

     total cpu time spent up to now is        4.4 secs

     Self-consistent Calculation

     iteration #  1     ecut=    30.00 Ry     beta= 0.50
     Davidson diagonalization with overlap
     ethr =  1.00E-02,  avg # of iterations =  3.0

     Threshold (ethr) on eigenvalues was too large:
     Diagonalizing with lowered threshold

     Davidson diagonalization with overlap
     ethr =  7.27E-04,  avg # of iterations =  4.0

     total cpu time spent up to now is        4.6 secs

     total energy              =    -499.95967115 Ry
     estimated scf accuracy    <       2.38759239 Ry

     iteration #  2     ecut=    30.00 Ry     beta= 0.50
     Davidson diagonalization with overlap
     ethr =  9.33E-04,  avg # of iterations =  6.0

     total cpu time spent up to now is        4.7 secs

     total energy              =    -498.58906979 Ry
     estimated scf accuracy    <      22.11296828 Ry

     iteration #  3     ecut=    30.00 Ry     beta= 0.50
     Davidson diagonalization with overlap
     ethr =  9.33E-04,  avg # of iterations =  4.0

     total cpu time spent up to now is        4.8 secs

     total energy              =    -500.35318633 Ry
     estimated scf accuracy    <       3.98846450 Ry

     iteration #  4     ecut=    30.00 Ry     beta= 0.50
     Davidson diagonalization with overlap
     ethr =  9.33E-04,  avg # of iterations =  2.0

     total cpu time spent up to now is        4.9 secs

     total energy              =    -500.69098937 Ry
     estimated scf accuracy    <       0.78568767 Ry

     iteration #  5     ecut=    30.00 Ry     beta= 0.50
     Davidson diagonalization with overlap
     ethr =  3.07E-04,  avg # of iterations =  2.0

     total cpu time spent up to now is        5.0 secs

     total energy              =    -500.70825689 Ry
     estimated scf accuracy    <       0.90135713 Ry

     iteration #  6     ecut=    30.00 Ry     beta= 0.50
     Davidson diagonalization with overlap
     ethr =  3.07E-04,  avg # of iterations =  2.0

     total cpu time spent up to now is        5.1 secs

     total energy              =    -500.78323915 Ry
     estimated scf accuracy    <       0.10194223 Ry

     iteration #  7     ecut=    30.00 Ry     beta= 0.50
     Davidson diagonalization with overlap
     ethr =  3.98E-05,  avg # of iterations =  2.0

     total cpu time spent up to now is        5.2 secs

     total energy              =    -500.79512997 Ry
     estimated scf accuracy    <       0.03727841 Ry

     iteration #  8     ecut=    30.00 Ry     beta= 0.50
     Davidson diagonalization with overlap
     ethr =  1.46E-05,  avg # of iterations = 11.0

     total cpu time spent up to now is        5.3 secs

     total energy              =    -500.79767862 Ry
     estimated scf accuracy    <       0.05424441 Ry

     iteration #  9     ecut=    30.00 Ry     beta= 0.50
     Davidson diagonalization with overlap
     ethr =  1.46E-05,  avg # of iterations =  2.0

     total cpu time spent up to now is        5.4 secs

     total energy              =    -500.80161242 Ry
     estimated scf accuracy    <       0.00414972 Ry

     iteration # 10     ecut=    30.00 Ry     beta= 0.50
     Davidson diagonalization with overlap
     ethr =  1.62E-06,  avg # of iterations =  9.0

     total cpu time spent up to now is        5.5 secs

     total energy              =    -500.80213405 Ry
     estimated scf accuracy    <       0.00256576 Ry

     iteration # 11     ecut=    30.00 Ry     beta= 0.50
     Davidson diagonalization with overlap
     ethr =  1.00E-06,  avg # of iterations =  3.0

     total cpu time spent up to now is        5.6 secs

     total energy              =    -500.80229344 Ry
     estimated scf accuracy    <       0.00171228 Ry

     iteration # 12     ecut=    30.00 Ry     beta= 0.50
     Davidson diagonalization with overlap
     ethr =  6.69E-07,  avg # of iterations =  2.0

     total cpu time spent up to now is        5.7 secs

     total energy              =    -500.80240528 Ry
     estimated scf accuracy    <       0.00051047 Ry

     iteration # 13     ecut=    30.00 Ry     beta= 0.50
     Davidson diagonalization with overlap
     ethr =  1.99E-07,  avg # of iterations =  4.0

     total cpu time spent up to now is        5.8 secs

     total energy              =    -500.80239748 Ry
     estimated scf accuracy    <       0.00182601 Ry

     iteration # 14     ecut=    30.00 Ry     beta= 0.50
     Davidson diagonalization with overlap
     ethr =  1.99E-07,  avg # of iterations =  2.0

     total cpu time spent up to now is        5.9 secs

     total energy              =    -500.80250125 Ry
     estimated scf accuracy    <       0.00004550 Ry

     iteration # 15     ecut=    30.00 Ry     beta= 0.50
     Davidson diagonalization with overlap
     ethr =  1.78E-08,  avg # of iterations =  4.0

     total cpu time spent up to now is        6.0 secs

     total energy              =    -500.80250877 Ry
     estimated scf accuracy    <       0.00003518 Ry

     iteration # 16     ecut=    30.00 Ry     beta= 0.50
     Davidson diagonalization with overlap
     ethr =  1.37E-08,  avg # of iterations =  3.0

     total cpu time spent up to now is        6.1 secs

     total energy              =    -500.80251100 Ry
     estimated scf accuracy    <       0.00005910 Ry

     iteration # 17     ecut=    30.00 Ry     beta= 0.50
     Davidson diagonalization with overlap
     ethr =  1.37E-08,  avg # of iterations =  2.0

     total cpu time spent up to now is        6.1 secs

     total energy              =    -500.80251440 Ry
     estimated scf accuracy    <       0.00000395 Ry

     iteration # 18     ecut=    30.00 Ry     beta= 0.50
     Davidson diagonalization with overlap
     ethr =  1.54E-09,  avg # of iterations =  4.0

     total cpu time spent up to now is        6.2 secs

     total energy              =    -500.80251473 Ry
     estimated scf accuracy    <       0.00000512 Ry

     iteration # 19     ecut=    30.00 Ry     beta= 0.50
     Davidson diagonalization with overlap
     ethr =  1.54E-09,  avg # of iterations =  2.0

     total cpu time spent up to now is        6.3 secs

     End of self-consistent calculation

          k = 0.0000 0.0000 0.0000 ( 11792 PWs)   bands (ev):

    -6.2898  -5.5282  -5.4176  -5.2040  -4.9512  -4.8170  -4.6163  -4.5276
    -4.3812  -4.2928  -4.0486  -3.8420  -3.7377  -3.6898  -3.5332  -3.4387
    -3.2874  -3.1389  -2.9863  -2.8230  -2.7614  -2.6416  -2.4763  -2.4131
    -2.2714  -2.0714  -1.9560  -1.8082  -1.3598  -1.3238  -1.2311  -1.0559
    -0.9659  -0.9385  -0.7628  -0.7263  -0.5632  -0.4981  -0.4638  -0.4228
    -0.3794  -0.2341  -0.1066   0.0770   0.1348   0.1788   0.3485   0.4453
     0.5493   0.5870   0.6678   0.7754   0.8010   0.9960   1.0358   1.1027
     1.2453   1.4230   1.4935   1.6105   1.7866   1.8171   1.8886   1.9659
     2.0991   2.1454   2.1781   2.3392   2.4736   2.5142   2.6578   2.7162
     2.7875   2.8764   3.0165   3.0773   3.1642   3.2366   3.2655   3.3705
     3.4996   3.5951   3.6528   3.7037   3.8252   3.8472   3.8935   3.9577
     4.0871   4.2052   4.2726   4.2965   4.3914   4.4778   4.5032   4.5534
     4.6182   4.7365   4.7723   4.8911   4.9236   4.9605   5.0123   5.0848
     5.1481   5.2520   5.3693   5.4033   5.4910   5.5195   5.6469   5.6989
     5.7501   5.8092   5.8566   5.9406   6.0014   6.0856   6.1313   6.1624
     6.2116   6.2486   6.3407   6.3849   6.4373   6.5128   6.5331   6.6127
     6.6256   6.7002   6.8001   6.8363   6.9228   6.9700   7.0267   7.1541
     7.1672   7.2058   7.2599   7.3521   7.3779   7.4997   7.5182   7.6051
     7.6284   7.6702   7.8105   7.9132   7.9186   7.9999   8.0894   8.0953
     8.1513   8.2252

     the Fermi energy is     6.6384 ev

!    total energy              =    -500.80251463 Ry
     estimated scf accuracy    <       0.00000064 Ry
     smearing contrib. (-TS)   =      -0.15310359 Ry
     internal energy E=F+TS    =    -500.64941105 Ry

     The total energy is F=E-TS. E is the sum of the following terms:
     one-electron contribution =     134.09762916 Ry
     hartree contribution      =      46.17435204 Ry
     xc contribution           =    -151.62629752 Ry
     ewald contribution        =    -529.29509472 Ry

     convergence has been achieved in  19 iterations

     Forces acting on atoms (cartesian axes, Ry/au):

     atom    1 type  1   force =     0.00265478   -0.00999569   -0.01975943
     atom    2 type  1   force =    -0.02742840   -0.01323819    0.01129946
     atom    3 type  1   force =     0.00531305    0.00092635    0.03718447
     atom    4 type  1   force =     0.00059266   -0.01938723   -0.05939425
     atom    5 type  1   force =    -0.00145466    0.02812496    0.01460226
     atom    6 type  1   force =    -0.06040374    0.04301583    0.02744768
     atom    7 type  1   force =     0.08906952   -0.03525834   -0.04933998
     atom    8 type  1   force =     0.06242402    0.03412497    0.00217692
     atom    9 type  1   force =     0.08718315    0.06331601   -0.00093899
     atom   10 type  1   force =     0.01891336   -0.03914407    0.03549231
     atom   11 type  1   force =    -0.03988958    0.00359906    0.01262367
     atom   12 type  1   force =     0.02403449   -0.02250099    0.00402541
     atom   13 type  1   force =    -0.00200914   -0.02860234   -0.02404135
     atom   14 type  1   force =     0.00692535    0.02183155   -0.00112782
     atom   15 type  1   force =    -0.09032333   -0.04814299    0.00097179
     atom   16 type  1   force =    -0.01587268    0.03964344   -0.02124824
     atom   17 type  1   force =     0.05229678   -0.02789246    0.02446550
     atom   18 type  1   force =    -0.01662125   -0.07839608    0.15950412
     atom   19 type  1   force =     0.02726360    0.05679897   -0.05149712
     atom   20 type  1   force =    -0.04763142    0.06043672   -0.03665763
     atom   21 type  1   force =    -0.01731435   -0.02059049    0.08217896
     atom   22 type  1   force =     0.01425921    0.02614334   -0.01611924
     atom   23 type  1   force =    -0.12955535    0.03048869   -0.07175350
     atom   24 type  1   force =    -0.00421387   -0.01905767    0.00646320
     atom   25 type  1   force =     0.00236215    0.00384345    0.00819448
     atom   26 type  1   force =     0.03208715    0.00024908   -0.02071197
     atom   27 type  1   force =     0.03662628    0.03442437   -0.04813292
     atom   28 type  1   force =     0.03088379    0.00669355    0.02092183
     atom   29 type  1   force =    -0.01063473   -0.00081657   -0.02020871
     atom   30 type  1   force =     0.03737555    0.04287523   -0.01096681
     atom   31 type  1   force =     0.04815778   -0.02296893    0.03894141
     atom   32 type  1   force =    -0.02884442    0.01034466   -0.01851134
     atom   33 type  1   force =    -0.09754435    0.02169258   -0.00440101
     atom   34 type  1   force =    -0.02224567    0.00222608    0.01681606
     atom   35 type  1   force =     0.00857771   -0.04018477    0.00829742
     atom   36 type  1   force =    -0.00149097   -0.01352040    0.01496614
     atom   37 type  1   force =    -0.00906077   -0.02266157   -0.01475659
     atom   38 type  1   force =    -0.02595894   -0.05025781    0.00049945
     atom   39 type  1   force =    -0.01257364   -0.00653596    0.02499425
     atom   40 type  1   force =    -0.01454051    0.00998775    0.01082696
     atom   41 type  1   force =     0.02005106   -0.03685263    0.08190721
     atom   42 type  1   force =     0.06806033    0.00072536    0.04850280
     atom   43 type  1   force =    -0.13552024    0.00775693   -0.00965184
     atom   44 type  1   force =     0.00791055   -0.04776406    0.01987351
     atom   45 type  1   force =     0.02551583   -0.01092734    0.00681342
     atom   46 type  1   force =     0.03583168    0.04380093   -0.05935669
     atom   47 type  1   force =    -0.00911767   -0.01682987    0.03751138
     atom   48 type  1   force =     0.14822980   -0.00406196   -0.02656172
     atom   49 type  1   force =    -0.03577289   -0.00640218    0.02807405
     atom   50 type  1   force =     0.05385079   -0.00236504   -0.06776354
     atom   51 type  1   force =    -0.00835389   -0.04726605    0.01062413
     atom   52 type  1   force =     0.01798114   -0.01273757   -0.01533658
     atom   53 type  1   force =    -0.00859921    0.03340666   -0.02679009
     atom   54 type  1   force =    -0.04028015   -0.05057619    0.01324569
     atom   55 type  1   force =    -0.01370488   -0.03348726   -0.05816035
     atom   56 type  1   force =    -0.04471122   -0.06162061   -0.06370301
     atom   57 type  1   force =    -0.00405833    0.02842337   -0.00109086
     atom   58 type  1   force =    -0.05331340    0.05632323    0.04388312
     atom   59 type  1   force =     0.02414506    0.00823016    0.01456232
     atom   60 type  1   force =     0.05387618    0.13005121   -0.04878193
     atom   61 type  1   force =    -0.01771639    0.00824509    0.00837744
     atom   62 type  1   force =     0.00555153   -0.00254349   -0.01072797
     atom   63 type  1   force =     0.00396805   -0.00423485   -0.01368795
     atom   64 type  1   force =    -0.00521233   -0.00092795    0.01491059

     Total force =     0.561803     Total SCF correction =     0.001536


     Computing stress (Cartesian axis) and pressure

          total   stress  (Ry/bohr**3)                   (kbar)     P=        9.47
   0.00006735   0.00001435  -0.00008568            9.91        2.11      -12.60
   0.00001435  -0.00005530  -0.00006517            2.11       -8.13       -9.59
  -0.00008568  -0.00006517   0.00018104          -12.60       -9.59       26.63

 
     init_run     :      1.18s CPU      4.38s WALL (       1 calls)
     electrons    :      1.72s CPU      1.86s WALL (       1 calls)
     forces       :      0.03s CPU      0.03s WALL (       1 calls)
     stress       :      0.14s CPU      0.15s WALL (       1 calls)

     Called by init_run:
     wfcinit      :      0.67s CPU      3.71s WALL (       1 calls)
                                        3.71s GPU  (       1 calls)
     potinit      :      0.05s CPU      0.13s WALL (       1 calls)
     hinit0       :      0.45s CPU      0.48s WALL (       1 calls)

     Called by electrons:
     c_bands      :      1.12s CPU      1.19s WALL (      20 calls)
     sum_band     :      0.33s CPU      0.36s WALL (      20 calls)
     v_of_rho     :      0.13s CPU      0.22s WALL (      20 calls)
     mix_rho      :      0.14s CPU      0.16s WALL (      20 calls)

     Called by c_bands:
     init_us_2    :      0.05s CPU      0.05s WALL (      41 calls)
     init_us_2:gp :      0.05s CPU      0.05s WALL (      41 calls)
     regterg      :      0.97s CPU      1.03s WALL (      20 calls)

     Called by *egterg:
     rdiaghg      :      0.39s CPU      1.02s WALL (      92 calls)
                                        1.00s GPU  (      92 calls)
     h_psi        :      1.08s CPU      3.54s WALL (      94 calls)
                                        3.53s GPU  (      94 calls)
     g_psi        :      0.00s CPU      0.00s WALL (      73 calls)
                                        0.00s GPU  (      73 calls)

     Called by h_psi:
     h_psi:calbec :      0.66s CPU      3.04s WALL (      94 calls)
                                        3.04s GPU  (      94 calls)
     vloc_psi     :      0.37s CPU      0.43s WALL (      94 calls)
                                        0.43s GPU  (      94 calls)
     add_vuspsi   :      0.03s CPU      0.05s WALL (      94 calls)
                                        0.05s GPU  (      94 calls)

     General routines
     calbec       :      0.66s CPU      3.05s WALL (      99 calls)
     fft          :      0.56s CPU      0.67s WALL (     167 calls)
                                        0.12s GPU  (     106 calls)
     ffts         :      0.03s CPU      0.04s WALL (      20 calls)
     fftw         :      0.46s CPU      0.60s WALL (    2120 calls)
                                        0.52s GPU  (    2120 calls)
 
     Parallel routines
 
     PWSCF        :      3.12s CPU      6.49s WALL

 
   This run was terminated on:   9:56:22  11May2023            

=------------------------------------------------------------------------------=
   JOB DONE.
=------------------------------------------------------------------------------=
