An instance of this daemon is already running
An instance of this daemon is already running

     Program PWSCF v.7.1 starts on 11May2023 at  9:54:30 

     This program is part of the open-source Quantum ESPRESSO suite
     for quantum simulation of materials; please cite
         "P. Giannozzi et al., J. Phys.:Condens. Matter 21 395502 (2009);
         "P. Giannozzi et al., J. Phys.:Condens. Matter 29 465901 (2017);
         "P. Giannozzi et al., J. Chem. Phys. 152 154105 (2020);
          URL http://www.quantum-espresso.org", 
     in publications or presentations arising from this work. More details at
     http://www.quantum-espresso.org/quote

     Parallel version (MPI & OpenMP), running on       4 processor cores
     Number of MPI processes:                 4
     Threads/MPI process:                     1

     MPI processes distributed on     1 nodes
     259408 MiB available memory on the printing compute node when the environment starts
 
     Reading input from pw-si-69.in
Warning: card &CELL ignored
Warning: card / ignored

     Current dimensions of program PWSCF are:
     Max number of different atomic species (ntypx) = 10
     Max number of k-points (npk) =  40000
     Max angular momentum in pseudopotentials (lmaxx) =  4

     IMPORTANT: XC functional enforced from input :
     Exchange-correlation= PBE
                           (   1   4   3   4   0   0   0)
     Any further DFT definition will be discarded
     Please, verify this is what you really want


     gamma-point specific algorithms are used
 
     K-points division:     npool     =       2
     R & G space division:  proc/nbgrp/npool/nimage =       2
     Subspace diagonalization in iterative solution of the eigenvalue problem:
     a serial algorithm will be used

     Message from routine divide_et_impera:
     suboptimal parallelization: some nodes have no k-points
 
     Parallelization info
     --------------------
     sticks:   dense  smooth     PW     G-vecs:    dense   smooth      PW
     Min        2030    2030    542                97706    97706   13370
     Max        2031    2031    543                97707    97707   13375
     Sum        4061    4061   1085               195413   195413   26745
 
     Using Slab Decomposition
 


     bravais-lattice index     =            0
     lattice parameter (alat)  =      20.6637  a.u.
     unit-cell volume          =    8823.1650 (a.u.)^3
     number of atoms/cell      =           64
     number of atomic types    =            1
     number of electrons       =       256.00
     number of Kohn-Sham states=          154
     kinetic-energy cutoff     =      30.0000  Ry
     charge density cutoff     =     120.0000  Ry
     scf convergence threshold =      1.0E-06
     mixing beta               =       0.5000
     number of iterations used =            8  plain     mixing
     Exchange-correlation= PBE
                           (   1   4   3   4   0   0   0)

     GPU acceleration is ACTIVE.
     GPU-aware MPI enabled

     Message from routine print_cuda_info:
     High GPU oversubscription detected. Are you sure this is what you want?

     celldm(1)=  20.663702  celldm(2)=   0.000000  celldm(3)=   0.000000
     celldm(4)=   0.000000  celldm(5)=   0.000000  celldm(6)=   0.000000

     crystal axes: (cart. coord. in units of alat)
               a(1) = (   1.000000   0.000000   0.000000 )  
               a(2) = (   0.000000   1.000000   0.000000 )  
               a(3) = (   0.000000   0.000000   1.000000 )  

     reciprocal axes: (cart. coord. in units 2 pi/alat)
               b(1) = (  1.000000  0.000000  0.000000 )  
               b(2) = (  0.000000  1.000000  0.000000 )  
               b(3) = (  0.000000  0.000000  1.000000 )  


     PseudoPot. # 1 for Si read from file:
     /home/ppiaggi/pseudos/Si_ONCV_PBE_sr.upf
     MD5 check sum: 8553c464762ac42b85b1eed164b4d029
     Pseudo is Norm-conserving, Zval =  4.0
     Generated using ONCVPSP code by D. R. Hamann
     Using radial grid of 1510 points,  4 beta functions with: 
                l(1) =   0
                l(2) =   0
                l(3) =   1
                l(4) =   1

     atomic species   valence    mass     pseudopotential
        Si             4.00    28.08500     Si( 1.00)

     No symmetry found



   Cartesian axes

     site n.     atom                  positions (alat units)
         1           Si  tau(   1) = (   0.0394839   0.1879600   0.5886020  )
         2           Si  tau(   2) = (   0.3438970   0.9415350   0.3146150  )
         3           Si  tau(   3) = (   0.8179120   0.3657910   0.9169090  )
         4           Si  tau(   4) = (   0.4508530   0.9845100   0.0561529  )
         5           Si  tau(   5) = (   0.4312770   0.1565640   0.8992620  )
         6           Si  tau(   6) = (   0.3928380   0.1821220   0.3769800  )
         7           Si  tau(   7) = (   0.2044470   0.0352494   0.6246690  )
         8           Si  tau(   8) = (   0.7106460   0.2107410   0.1760070  )
         9           Si  tau(   9) = (   0.4670070   0.8825280   0.8152920  )
        10           Si  tau(  10) = (   0.1227720   0.2610110   0.3619260  )
        11           Si  tau(  11) = (   0.2555190   0.7273710   0.4156240  )
        12           Si  tau(  12) = (   0.7467280   0.6109700   0.9441540  )
        13           Si  tau(  13) = (   0.6864470   0.7133080   0.7764480  )
        14           Si  tau(  14) = (   0.8520990   0.2505890   0.4124270  )
        15           Si  tau(  15) = (   0.2410470   0.8226460   0.7933070  )
        16           Si  tau(  16) = (   0.3599710   0.8974940   0.5692040  )
        17           Si  tau(  17) = (   0.5219130   0.7247210   0.9971520  )
        18           Si  tau(  18) = (   0.0570013   0.1894270   0.8707650  )
        19           Si  tau(  19) = (   0.4846570   0.4180620   0.4117140  )
        20           Si  tau(  20) = (   0.0083703   0.3135690   0.1993760  )
        21           Si  tau(  21) = (   0.6073550   0.8236780   0.6222000  )
        22           Si  tau(  22) = (   0.9065320   0.8503240   0.8491580  )
        23           Si  tau(  23) = (   0.8916430   0.1165000   0.7473890  )
        24           Si  tau(  24) = (   0.6231520   0.6136820   0.1902730  )
        25           Si  tau(  25) = (   0.9862500   0.0873075   0.3673330  )
        26           Si  tau(  26) = (   0.9885730   0.5096220   0.3020020  )
        27           Si  tau(  27) = (   0.6214290   0.9905550   0.1844200  )
        28           Si  tau(  28) = (   0.2212870   0.2463750   0.0955387  )
        29           Si  tau(  29) = (   0.5345200   0.0220994   0.4272110  )
        30           Si  tau(  30) = (   0.8532560   0.7880310   0.5133130  )
        31           Si  tau(  31) = (   0.6026570   0.3437810   0.9070860  )
        32           Si  tau(  32) = (   0.0343328   0.6464540   0.1152800  )
        33           Si  tau(  33) = (   0.3139930   0.6801090   0.9252770  )
        34           Si  tau(  34) = (   0.9970660   0.4986790   0.7238710  )
        35           Si  tau(  35) = (   0.6675860   0.8237240   0.4192250  )
        36           Si  tau(  36) = (   0.0542307   0.6380190   0.4684020  )
        37           Si  tau(  37) = (   0.0849481   0.7191140   0.6559930  )
        38           Si  tau(  38) = (   0.0375796   0.9993630   0.0077112  )
        39           Si  tau(  39) = (   0.6065300   0.5949620   0.6081750  )
        40           Si  tau(  40) = (   0.0179355   0.9446560   0.5649700  )
        41           Si  tau(  41) = (   0.6833940   0.0134816   0.7623690  )
        42           Si  tau(  42) = (   0.5327840   0.6647800   0.4010610  )
        43           Si  tau(  43) = (   0.3979990   0.3420080   0.2135620  )
        44           Si  tau(  44) = (   0.8760600   0.1693900   0.0364139  )
        45           Si  tau(  45) = (   0.0985144   0.8931340   0.3255700  )
        46           Si  tau(  46) = (   0.7422000   0.0529082   0.4428230  )
        47           Si  tau(  47) = (   0.2568070   0.4066640   0.4377900  )
        48           Si  tau(  48) = (   0.5978930   0.3858900   0.1217520  )
        49           Si  tau(  49) = (   0.3981270   0.3249430   0.5882480  )
        50           Si  tau(  50) = (   0.8987910   0.4610180   0.5238750  )
        51           Si  tau(  51) = (   0.4035950   0.5150020   0.6908410  )
        52           Si  tau(  52) = (   0.7364930   0.2677890   0.6008030  )
        53           Si  tau(  53) = (   0.8528000   0.8908630   0.0315283  )
        54           Si  tau(  54) = (   0.3906750   0.1046430   0.6967100  )
        55           Si  tau(  55) = (   0.4481170   0.5284440   0.0706226  )
        56           Si  tau(  56) = (   0.3675560   0.3534900   0.9440340  )
        57           Si  tau(  57) = (   0.6339680   0.9430970   0.9508740  )
        58           Si  tau(  58) = (   0.1493860   0.5290960   0.9599490  )
        59           Si  tau(  59) = (   0.2251190   0.8374700   0.1783800  )
        60           Si  tau(  60) = (   0.1968530   0.3757450   0.7787600  )
        61           Si  tau(  61) = (   0.2285770   0.0308476   0.0501223  )
        62           Si  tau(  62) = (   0.7155270   0.4260170   0.3602170  )
        63           Si  tau(  63) = (   0.9734240   0.6609250   0.9047490  )
        64           Si  tau(  64) = (   0.7818300   0.4680680   0.7314260  )

     number of k points=     1  Fermi-Dirac smearing, width (Ry)=  0.0100
                       cart. coord. in units 2pi/alat
        k(    1) = (   0.0000000   0.0000000   0.0000000), wk =   2.0000000

     Dense  grid:    97707 G-vectors     FFT dimensions: (  75,  75,  75)

     Estimated max dynamical RAM per process >     157.73 MB

     Estimated total dynamical RAM >     607.08 MB

     Initial potential from superposition of free atoms

     starting charge     255.9608, renormalised to     256.0000
     Starting wfcs are  256 randomized atomic wfcs

     total cpu time spent up to now is        4.2 secs

     Self-consistent Calculation

     iteration #  1     ecut=    30.00 Ry     beta= 0.50
     Davidson diagonalization with overlap
     ethr =  1.00E-02,  avg # of iterations =  3.0

     Threshold (ethr) on eigenvalues was too large:
     Diagonalizing with lowered threshold

     Davidson diagonalization with overlap
     ethr =  4.71E-04,  avg # of iterations =  4.0

     total cpu time spent up to now is        4.5 secs

     total energy              =    -500.37968234 Ry
     estimated scf accuracy    <       1.59142194 Ry

     iteration #  2     ecut=    30.00 Ry     beta= 0.50
     Davidson diagonalization with overlap
     ethr =  6.22E-04,  avg # of iterations =  4.0

     total cpu time spent up to now is        4.6 secs

     total energy              =    -500.01649848 Ry
     estimated scf accuracy    <       3.81980445 Ry

     iteration #  3     ecut=    30.00 Ry     beta= 0.50
     Davidson diagonalization with overlap
     ethr =  6.22E-04,  avg # of iterations =  5.0

     total cpu time spent up to now is        4.7 secs

     total energy              =    -500.27280400 Ry
     estimated scf accuracy    <       5.96422567 Ry

     iteration #  4     ecut=    30.00 Ry     beta= 0.50
     Davidson diagonalization with overlap
     ethr =  6.22E-04,  avg # of iterations =  2.0

     total cpu time spent up to now is        4.8 secs

     total energy              =    -500.66212085 Ry
     estimated scf accuracy    <       0.53538989 Ry

     iteration #  5     ecut=    30.00 Ry     beta= 0.50
     Davidson diagonalization with overlap
     ethr =  2.09E-04,  avg # of iterations =  3.0

     total cpu time spent up to now is        5.0 secs

     total energy              =    -500.70315139 Ry
     estimated scf accuracy    <       0.25513818 Ry

     iteration #  6     ecut=    30.00 Ry     beta= 0.50
     Davidson diagonalization with overlap
     ethr =  9.97E-05,  avg # of iterations =  2.0

     total cpu time spent up to now is        5.1 secs

     total energy              =    -500.72647547 Ry
     estimated scf accuracy    <       0.22608052 Ry

     iteration #  7     ecut=    30.00 Ry     beta= 0.50
     Davidson diagonalization with overlap
     ethr =  8.83E-05,  avg # of iterations =  1.0

     total cpu time spent up to now is        5.1 secs

     total energy              =    -500.74231897 Ry
     estimated scf accuracy    <       0.01580023 Ry

     iteration #  8     ecut=    30.00 Ry     beta= 0.50
     Davidson diagonalization with overlap
     c_bands:  1 eigenvalues not converged
     ethr =  6.17E-06,  avg # of iterations = 20.0

     total cpu time spent up to now is        5.4 secs

     total energy              =    -500.74316670 Ry
     estimated scf accuracy    <       0.03786906 Ry

     iteration #  9     ecut=    30.00 Ry     beta= 0.50
     Davidson diagonalization with overlap
     ethr =  6.17E-06,  avg # of iterations =  3.0

     total cpu time spent up to now is        5.5 secs

     total energy              =    -500.74594365 Ry
     estimated scf accuracy    <       0.00562746 Ry

     iteration # 10     ecut=    30.00 Ry     beta= 0.50
     Davidson diagonalization with overlap
     ethr =  2.20E-06,  avg # of iterations =  3.0

     total cpu time spent up to now is        5.6 secs

     total energy              =    -500.74637622 Ry
     estimated scf accuracy    <       0.00265382 Ry

     iteration # 11     ecut=    30.00 Ry     beta= 0.50
     Davidson diagonalization with overlap
     ethr =  1.04E-06,  avg # of iterations =  2.0

     total cpu time spent up to now is        5.7 secs

     total energy              =    -500.74659303 Ry
     estimated scf accuracy    <       0.00112406 Ry

     iteration # 12     ecut=    30.00 Ry     beta= 0.50
     Davidson diagonalization with overlap
     ethr =  4.39E-07,  avg # of iterations =  2.0

     total cpu time spent up to now is        5.8 secs

     total energy              =    -500.74669127 Ry
     estimated scf accuracy    <       0.00017995 Ry

     iteration # 13     ecut=    30.00 Ry     beta= 0.50
     Davidson diagonalization with overlap
     ethr =  7.03E-08,  avg # of iterations =  3.0

     total cpu time spent up to now is        5.9 secs

     total energy              =    -500.74670929 Ry
     estimated scf accuracy    <       0.00015808 Ry

     iteration # 14     ecut=    30.00 Ry     beta= 0.50
     Davidson diagonalization with overlap
     ethr =  6.18E-08,  avg # of iterations =  2.0

     total cpu time spent up to now is        6.0 secs

     total energy              =    -500.74672088 Ry
     estimated scf accuracy    <       0.00006539 Ry

     iteration # 15     ecut=    30.00 Ry     beta= 0.50
     Davidson diagonalization with overlap
     ethr =  2.55E-08,  avg # of iterations =  2.0

     total cpu time spent up to now is        6.1 secs

     total energy              =    -500.74672463 Ry
     estimated scf accuracy    <       0.00001095 Ry

     iteration # 16     ecut=    30.00 Ry     beta= 0.50
     Davidson diagonalization with overlap
     ethr =  4.28E-09,  avg # of iterations =  4.0

     total cpu time spent up to now is        6.2 secs

     total energy              =    -500.74672645 Ry
     estimated scf accuracy    <       0.00002518 Ry

     iteration # 17     ecut=    30.00 Ry     beta= 0.50
     Davidson diagonalization with overlap
     ethr =  4.28E-09,  avg # of iterations =  2.0

     total cpu time spent up to now is        6.3 secs

     total energy              =    -500.74672774 Ry
     estimated scf accuracy    <       0.00000183 Ry

     iteration # 18     ecut=    30.00 Ry     beta= 0.50
     Davidson diagonalization with overlap
     ethr =  7.15E-10,  avg # of iterations =  5.0

     total cpu time spent up to now is        6.4 secs

     total energy              =    -500.74672796 Ry
     estimated scf accuracy    <       0.00000281 Ry

     iteration # 19     ecut=    30.00 Ry     beta= 0.50
     Davidson diagonalization with overlap
     ethr =  7.15E-10,  avg # of iterations =  2.0

     total cpu time spent up to now is        6.5 secs

     End of self-consistent calculation

          k = 0.0000 0.0000 0.0000 ( 12203 PWs)   bands (ev):

    -6.2534  -5.6295  -5.5419  -5.2977  -5.2803  -4.9499  -4.8017  -4.7624
    -4.5955  -4.4425  -4.2655  -4.2352  -4.1152  -3.9282  -3.8255  -3.6630
    -3.4707  -3.3590  -3.2653  -3.1922  -2.9284  -2.8284  -2.6024  -2.4630
    -2.3091  -2.1030  -2.0086  -1.9438  -1.8946  -1.7122  -1.5060  -1.3871
    -1.2276  -1.1314  -1.0658  -1.0074  -0.9544  -0.7850  -0.6893  -0.6545
    -0.4923  -0.4517  -0.3861  -0.3257  -0.1723  -0.0075   0.0518   0.0804
     0.1885   0.3733   0.3888   0.5183   0.5716   0.6769   0.7830   0.8325
     1.0171   1.0505   1.2499   1.2783   1.4632   1.6214   1.6752   1.7778
     1.8562   1.9559   1.9684   2.0673   2.1705   2.2317   2.3207   2.3938
     2.4815   2.5493   2.6467   2.7108   2.8019   2.8750   2.9456   3.1078
     3.1440   3.2013   3.2891   3.4479   3.5461   3.6305   3.6567   3.7365
     3.8001   3.8735   3.9649   4.0202   4.0416   4.0736   4.1509   4.2594
     4.3011   4.3407   4.5031   4.5272   4.5995   4.6536   4.7181   4.7604
     4.7721   4.8509   4.9063   4.9629   5.0247   5.0915   5.2043   5.2636
     5.2950   5.3552   5.4172   5.5269   5.5693   5.5777   5.6637   5.7193
     5.7829   5.8723   5.9266   6.0060   6.0691   6.1008   6.1720   6.2574
     6.3105   6.3211   6.3616   6.4611   6.4984   6.5369   6.6142   6.6932
     6.7146   6.7545   6.7949   6.8674   6.8956   6.9578   7.0823   7.1324
     7.1542   7.2124   7.2472   7.3364   7.4433   7.4684   7.5797   7.6066
     7.6713   7.7084

     the Fermi energy is     6.2506 ev

!    total energy              =    -500.74672779 Ry
     estimated scf accuracy    <       0.00000052 Ry
     smearing contrib. (-TS)   =      -0.15820904 Ry
     internal energy E=F+TS    =    -500.58851875 Ry

     The total energy is F=E-TS. E is the sum of the following terms:
     one-electron contribution =     132.00036786 Ry
     hartree contribution      =      43.40733269 Ry
     xc contribution           =    -150.04868350 Ry
     ewald contribution        =    -525.94753580 Ry

     convergence has been achieved in  19 iterations

     Forces acting on atoms (cartesian axes, Ry/au):

     atom    1 type  1   force =     0.00316564   -0.00983964   -0.02736725
     atom    2 type  1   force =     0.02367447    0.02093120    0.03634015
     atom    3 type  1   force =     0.01334374   -0.00693092    0.01007601
     atom    4 type  1   force =    -0.03301763    0.02480490   -0.01765246
     atom    5 type  1   force =     0.03338368   -0.02472747    0.03737190
     atom    6 type  1   force =    -0.01747151    0.01549560   -0.01142035
     atom    7 type  1   force =    -0.02079943   -0.00101092    0.02194508
     atom    8 type  1   force =     0.00891643   -0.03885638    0.03299812
     atom    9 type  1   force =    -0.01394705   -0.00223212   -0.02043227
     atom   10 type  1   force =     0.02773960   -0.02859425    0.03807725
     atom   11 type  1   force =     0.00942993    0.02248546    0.00849680
     atom   12 type  1   force =     0.02575277   -0.04499529    0.04129949
     atom   13 type  1   force =     0.02688170    0.00787014    0.00219165
     atom   14 type  1   force =    -0.01583261    0.03069754   -0.01842876
     atom   15 type  1   force =    -0.01517708    0.03444298   -0.05014598
     atom   16 type  1   force =     0.02724669   -0.02494292   -0.02018568
     atom   17 type  1   force =     0.01312519    0.03131675   -0.00897606
     atom   18 type  1   force =    -0.01007577   -0.00080725    0.00881701
     atom   19 type  1   force =     0.03310558    0.00334020   -0.02342826
     atom   20 type  1   force =    -0.01263995    0.00212034   -0.04442580
     atom   21 type  1   force =    -0.03669262    0.05333879    0.01479122
     atom   22 type  1   force =     0.02368205    0.01743779   -0.12050497
     atom   23 type  1   force =    -0.01060806   -0.00340519   -0.02734342
     atom   24 type  1   force =     0.01594632   -0.01498679   -0.00268108
     atom   25 type  1   force =     0.00614889   -0.02817208    0.03430975
     atom   26 type  1   force =    -0.01805682    0.00168148   -0.02676729
     atom   27 type  1   force =     0.00505683    0.02495968    0.03616128
     atom   28 type  1   force =     0.00619391    0.02236066    0.01520989
     atom   29 type  1   force =    -0.04122936   -0.01448487   -0.01179119
     atom   30 type  1   force =     0.05132041    0.00384808    0.02510643
     atom   31 type  1   force =    -0.03901702   -0.00687999   -0.01486475
     atom   32 type  1   force =     0.02088627   -0.00401417    0.01644232
     atom   33 type  1   force =     0.00576461   -0.03980016    0.01873620
     atom   34 type  1   force =     0.04027929    0.01848111    0.01993467
     atom   35 type  1   force =     0.00994692    0.04920670   -0.03715583
     atom   36 type  1   force =    -0.00596700    0.00317479   -0.04053555
     atom   37 type  1   force =     0.01429265    0.02433690    0.04520006
     atom   38 type  1   force =    -0.06592381    0.00585038   -0.05465566
     atom   39 type  1   force =    -0.03537331   -0.03194439   -0.01069007
     atom   40 type  1   force =    -0.03712329   -0.02075659   -0.01588124
     atom   41 type  1   force =     0.01193086    0.00387439   -0.04884103
     atom   42 type  1   force =    -0.03071432   -0.04242280   -0.00422705
     atom   43 type  1   force =    -0.01045301   -0.01704794    0.02543097
     atom   44 type  1   force =     0.01388511    0.02554119   -0.00032631
     atom   45 type  1   force =    -0.03423087    0.00158434    0.07840627
     atom   46 type  1   force =     0.02519605    0.00144477   -0.00316781
     atom   47 type  1   force =     0.01369607    0.00900337    0.00652274
     atom   48 type  1   force =     0.02182039   -0.01590291    0.02080580
     atom   49 type  1   force =    -0.02053108   -0.04195948    0.00237599
     atom   50 type  1   force =    -0.02865329   -0.01209066   -0.01461208
     atom   51 type  1   force =     0.01757660    0.00862495    0.02411857
     atom   52 type  1   force =     0.02232014   -0.01125398    0.01354250
     atom   53 type  1   force =    -0.05027359    0.00863436    0.10275432
     atom   54 type  1   force =     0.03163904    0.02201716   -0.00573464
     atom   55 type  1   force =    -0.06140145   -0.00400135   -0.01242039
     atom   56 type  1   force =    -0.03445994    0.03975409   -0.01344761
     atom   57 type  1   force =     0.03011665   -0.03192273    0.02498039
     atom   58 type  1   force =     0.02268820   -0.00298801    0.00231456
     atom   59 type  1   force =     0.01127191   -0.04156853   -0.07616350
     atom   60 type  1   force =    -0.00624803    0.01039411    0.01978498
     atom   61 type  1   force =     0.08462705    0.00994870    0.02759620
     atom   62 type  1   force =     0.00169245    0.02273492   -0.00575621
     atom   63 type  1   force =    -0.02042727   -0.02781688   -0.00253527
     atom   64 type  1   force =    -0.02739888    0.01461888   -0.01957274

     Total force =     0.399935     Total SCF correction =     0.001293


     Computing stress (Cartesian axis) and pressure

          total   stress  (Ry/bohr**3)                   (kbar)     P=      -18.63
  -0.00011416  -0.00004382   0.00003677          -16.79       -6.45        5.41
  -0.00004382  -0.00028901  -0.00001495           -6.45      -42.51       -2.20
   0.00003677  -0.00001495   0.00002331            5.41       -2.20        3.43

 
     init_run     :      0.62s CPU      4.18s WALL (       1 calls)
     electrons    :      2.08s CPU      2.26s WALL (       1 calls)
     forces       :      0.03s CPU      0.03s WALL (       1 calls)
     stress       :      0.15s CPU      0.15s WALL (       1 calls)

     Called by init_run:
     wfcinit      :      0.44s CPU      3.85s WALL (       1 calls)
                                        3.85s GPU  (       1 calls)
     potinit      :      0.03s CPU      0.11s WALL (       1 calls)
     hinit0       :      0.13s CPU      0.16s WALL (       1 calls)

     Called by electrons:
     c_bands      :      1.38s CPU      1.46s WALL (      20 calls)
     sum_band     :      0.38s CPU      0.44s WALL (      20 calls)
     v_of_rho     :      0.14s CPU      0.22s WALL (      20 calls)
     mix_rho      :      0.16s CPU      0.19s WALL (      20 calls)

     Called by c_bands:
     init_us_2    :      0.05s CPU      0.05s WALL (      41 calls)
     init_us_2:gp :      0.05s CPU      0.05s WALL (      41 calls)
     regterg      :      1.23s CPU      1.30s WALL (      20 calls)

     Called by *egterg:
     rdiaghg      :      0.40s CPU      1.10s WALL (      93 calls)
                                        1.08s GPU  (      93 calls)
     h_psi        :      1.09s CPU      3.84s WALL (      95 calls)
                                        3.84s GPU  (      95 calls)
     g_psi        :      0.00s CPU      0.00s WALL (      74 calls)
                                        0.00s GPU  (      74 calls)

     Called by h_psi:
     h_psi:calbec :      0.42s CPU      3.09s WALL (      95 calls)
                                        3.09s GPU  (      95 calls)
     vloc_psi     :      0.62s CPU      0.69s WALL (      95 calls)
                                        0.69s GPU  (      95 calls)
     add_vuspsi   :      0.03s CPU      0.05s WALL (      95 calls)
                                        0.05s GPU  (      95 calls)

     General routines
     calbec       :      0.42s CPU      3.09s WALL (     100 calls)
     fft          :      0.26s CPU      0.37s WALL (     167 calls)
                                        0.11s GPU  (     106 calls)
     ffts         :      0.04s CPU      0.05s WALL (      20 calls)
     fftw         :      0.69s CPU      0.89s WALL (    2114 calls)
                                        0.80s GPU  (    2114 calls)
 
     Parallel routines
 
     PWSCF        :      2.92s CPU      6.70s WALL

 
   This run was terminated on:   9:54:37  11May2023            

=------------------------------------------------------------------------------=
   JOB DONE.
=------------------------------------------------------------------------------=
