An instance of this daemon is already running

     Program PWSCF v.7.1 starts on 11May2023 at  9:52:43 

     This program is part of the open-source Quantum ESPRESSO suite
     for quantum simulation of materials; please cite
         "P. Giannozzi et al., J. Phys.:Condens. Matter 21 395502 (2009);
         "P. Giannozzi et al., J. Phys.:Condens. Matter 29 465901 (2017);
         "P. Giannozzi et al., J. Chem. Phys. 152 154105 (2020);
          URL http://www.quantum-espresso.org", 
     in publications or presentations arising from this work. More details at
     http://www.quantum-espresso.org/quote

     Parallel version (MPI & OpenMP), running on       4 processor cores
     Number of MPI processes:                 4
     Threads/MPI process:                     1

     MPI processes distributed on     1 nodes
     261657 MiB available memory on the printing compute node when the environment starts
 
     Reading input from pw-si-57.in
Warning: card &CELL ignored
Warning: card / ignored

     Current dimensions of program PWSCF are:
     Max number of different atomic species (ntypx) = 10
     Max number of k-points (npk) =  40000
     Max angular momentum in pseudopotentials (lmaxx) =  4

     IMPORTANT: XC functional enforced from input :
     Exchange-correlation= PBE
                           (   1   4   3   4   0   0   0)
     Any further DFT definition will be discarded
     Please, verify this is what you really want


     gamma-point specific algorithms are used
 
     K-points division:     npool     =       2
     R & G space division:  proc/nbgrp/npool/nimage =       2
     Subspace diagonalization in iterative solution of the eigenvalue problem:
     a serial algorithm will be used

     Message from routine divide_et_impera:
     suboptimal parallelization: some nodes have no k-points
 
     Parallelization info
     --------------------
     sticks:   dense  smooth     PW     G-vecs:    dense   smooth      PW
     Min        2023    2023    541                97113    97113   13096
     Max        2026    2026    544                97118    97118   13097
     Sum        4049    4049   1085               194231   194231   26193
 
     Using Slab Decomposition
 


     bravais-lattice index     =            0
     lattice parameter (alat)  =      20.6065  a.u.
     unit-cell volume          =    8750.1392 (a.u.)^3
     number of atoms/cell      =           64
     number of atomic types    =            1
     number of electrons       =       256.00
     number of Kohn-Sham states=          154
     kinetic-energy cutoff     =      30.0000  Ry
     charge density cutoff     =     120.0000  Ry
     scf convergence threshold =      1.0E-06
     mixing beta               =       0.5000
     number of iterations used =            8  plain     mixing
     Exchange-correlation= PBE
                           (   1   4   3   4   0   0   0)

     GPU acceleration is ACTIVE.
     GPU-aware MPI enabled

     Message from routine print_cuda_info:
     High GPU oversubscription detected. Are you sure this is what you want?

     celldm(1)=  20.606536  celldm(2)=   0.000000  celldm(3)=   0.000000
     celldm(4)=   0.000000  celldm(5)=   0.000000  celldm(6)=   0.000000

     crystal axes: (cart. coord. in units of alat)
               a(1) = (   1.000000   0.000000   0.000000 )  
               a(2) = (   0.000000   1.000000   0.000000 )  
               a(3) = (   0.000000   0.000000   1.000000 )  

     reciprocal axes: (cart. coord. in units 2 pi/alat)
               b(1) = (  1.000000  0.000000  0.000000 )  
               b(2) = (  0.000000  1.000000  0.000000 )  
               b(3) = (  0.000000  0.000000  1.000000 )  


     PseudoPot. # 1 for Si read from file:
     /home/ppiaggi/pseudos/Si_ONCV_PBE_sr.upf
     MD5 check sum: 8553c464762ac42b85b1eed164b4d029
     Pseudo is Norm-conserving, Zval =  4.0
     Generated using ONCVPSP code by D. R. Hamann
     Using radial grid of 1510 points,  4 beta functions with: 
                l(1) =   0
                l(2) =   0
                l(3) =   1
                l(4) =   1

     atomic species   valence    mass     pseudopotential
        Si             4.00    28.08500     Si( 1.00)

     No symmetry found



   Cartesian axes

     site n.     atom                  positions (alat units)
         1           Si  tau(   1) = (   0.9916820   0.1905370   0.5736820  )
         2           Si  tau(   2) = (   0.2894880   0.9477890   0.2567490  )
         3           Si  tau(   3) = (   0.8703060   0.2819310   0.8541870  )
         4           Si  tau(   4) = (   0.3746630   0.9857270   0.0628860  )
         5           Si  tau(   5) = (   0.5054260   0.1431940   0.9471430  )
         6           Si  tau(   6) = (   0.5153410   0.2588560   0.4151080  )
         7           Si  tau(   7) = (   0.2208010   0.0421661   0.7766230  )
         8           Si  tau(   8) = (   0.6877860   0.1843600   0.2371870  )
         9           Si  tau(   9) = (   0.4145430   0.8575500   0.8558560  )
        10           Si  tau(  10) = (   0.1385190   0.3285390   0.4162790  )
        11           Si  tau(  11) = (   0.3190200   0.7411150   0.5233110  )
        12           Si  tau(  12) = (   0.8053430   0.5860180   0.0141161  )
        13           Si  tau(  13) = (   0.6804940   0.6154630   0.7672200  )
        14           Si  tau(  14) = (   0.8531540   0.1979280   0.3840070  )
        15           Si  tau(  15) = (   0.1923790   0.8013610   0.7645150  )
        16           Si  tau(  16) = (   0.3077310   0.9690650   0.4976720  )
        17           Si  tau(  17) = (   0.5841550   0.7277970   0.9468900  )
        18           Si  tau(  18) = (   0.0553813   0.2393790   0.7680340  )
        19           Si  tau(  19) = (   0.4486370   0.4804790   0.4054700  )
        20           Si  tau(  20) = (   0.0615000   0.3137390   0.1869820  )
        21           Si  tau(  21) = (   0.4895970   0.8750360   0.6548440  )
        22           Si  tau(  22) = (   0.9471450   0.9049200   0.7956780  )
        23           Si  tau(  23) = (   0.7911790   0.0731366   0.8159150  )
        24           Si  tau(  24) = (   0.5984640   0.6071240   0.1604010  )
        25           Si  tau(  25) = (   0.0274873   0.0782349   0.2810070  )
        26           Si  tau(  26) = (   0.0889929   0.5213700   0.2684750  )
        27           Si  tau(  27) = (   0.5981280   0.0338878   0.1074800  )
        28           Si  tau(  28) = (   0.2644270   0.2310390   0.1261450  )
        29           Si  tau(  29) = (   0.5349870   0.0274146   0.3326390  )
        30           Si  tau(  30) = (   0.9373690   0.6283380   0.4384930  )
        31           Si  tau(  31) = (   0.6751050   0.2928450   0.9702020  )
        32           Si  tau(  32) = (   0.0319768   0.7113110   0.0943951  )
        33           Si  tau(  33) = (   0.3235460   0.6653930   0.8806750  )
        34           Si  tau(  34) = (   0.0183357   0.5074880   0.6715770  )
        35           Si  tau(  35) = (   0.6442280   0.8567970   0.4409970  )
        36           Si  tau(  36) = (   0.1562530   0.7092960   0.3546450  )
        37           Si  tau(  37) = (   0.0375170   0.7287230   0.6420980  )
        38           Si  tau(  38) = (   0.0364210   0.0927498   0.9394820  )
        39           Si  tau(  39) = (   0.5187690   0.5035440   0.6326080  )
        40           Si  tau(  40) = (   0.0089521   0.9853000   0.5909510  )
        41           Si  tau(  41) = (   0.6402160   0.0706244   0.6556990  )
        42           Si  tau(  42) = (   0.5563000   0.6593660   0.4865230  )
        43           Si  tau(  43) = (   0.4144150   0.3329800   0.2388500  )
        44           Si  tau(  44) = (   0.8979050   0.1917030   0.1124800  )
        45           Si  tau(  45) = (   0.9948520   0.8765560   0.3859110  )
        46           Si  tau(  46) = (   0.8208820   0.9748110   0.3306980  )
        47           Si  tau(  47) = (   0.2520380   0.4868850   0.4144000  )
        48           Si  tau(  48) = (   0.6066000   0.3862860   0.1558290  )
        49           Si  tau(  49) = (   0.3258150   0.3208460   0.6492880  )
        50           Si  tau(  50) = (   0.9499350   0.4385000   0.4967060  )
        51           Si  tau(  51) = (   0.3923330   0.4781030   0.8304660  )
        52           Si  tau(  52) = (   0.7653030   0.2455130   0.6084060  )
        53           Si  tau(  53) = (   0.9390460   0.8843860   0.1442490  )
        54           Si  tau(  54) = (   0.4072240   0.1367790   0.7549410  )
        55           Si  tau(  55) = (   0.4231220   0.4984460   0.0859436  )
        56           Si  tau(  56) = (   0.3608340   0.3097380   0.9544060  )
        57           Si  tau(  57) = (   0.7417080   0.8957190   0.0228182  )
        58           Si  tau(  58) = (   0.0717975   0.6085410   0.9095680  )
        59           Si  tau(  59) = (   0.2364350   0.7801620   0.1193640  )
        60           Si  tau(  60) = (   0.1768910   0.4147230   0.7753050  )
        61           Si  tau(  61) = (   0.1161750   0.0338182   0.1208320  )
        62           Si  tau(  62) = (   0.7483120   0.4216240   0.3132000  )
        63           Si  tau(  63) = (   0.8602440   0.7112020   0.8634080  )
        64           Si  tau(  64) = (   0.6886160   0.3746640   0.7359780  )

     number of k points=     1  Fermi-Dirac smearing, width (Ry)=  0.0100
                       cart. coord. in units 2pi/alat
        k(    1) = (   0.0000000   0.0000000   0.0000000), wk =   2.0000000

     Dense  grid:    97116 G-vectors     FFT dimensions: (  72,  72,  72)

     Estimated max dynamical RAM per process >     154.77 MB

     Estimated total dynamical RAM >     595.37 MB

     Initial potential from superposition of free atoms

     starting charge     255.9608, renormalised to     256.0000
     Starting wfcs are  256 randomized atomic wfcs

     total cpu time spent up to now is        4.5 secs

     Self-consistent Calculation

     iteration #  1     ecut=    30.00 Ry     beta= 0.50
     Davidson diagonalization with overlap
     ethr =  1.00E-02,  avg # of iterations =  3.0

     Threshold (ethr) on eigenvalues was too large:
     Diagonalizing with lowered threshold

     Davidson diagonalization with overlap
     ethr =  6.06E-04,  avg # of iterations =  4.0

     total cpu time spent up to now is        4.7 secs

     total energy              =    -500.26602221 Ry
     estimated scf accuracy    <       2.01959058 Ry

     iteration #  2     ecut=    30.00 Ry     beta= 0.50
     Davidson diagonalization with overlap
     ethr =  7.89E-04,  avg # of iterations =  5.0

     total cpu time spent up to now is        4.8 secs

     total energy              =    -499.45165953 Ry
     estimated scf accuracy    <      11.87692347 Ry

     iteration #  3     ecut=    30.00 Ry     beta= 0.50
     Davidson diagonalization with overlap
     ethr =  7.89E-04,  avg # of iterations =  5.0

     total cpu time spent up to now is        4.9 secs

     total energy              =    -500.55985166 Ry
     estimated scf accuracy    <       2.89093831 Ry

     iteration #  4     ecut=    30.00 Ry     beta= 0.50
     Davidson diagonalization with overlap
     ethr =  7.89E-04,  avg # of iterations =  2.0

     total cpu time spent up to now is        5.0 secs

     total energy              =    -500.75497322 Ry
     estimated scf accuracy    <       0.85366405 Ry

     iteration #  5     ecut=    30.00 Ry     beta= 0.50
     Davidson diagonalization with overlap
     ethr =  3.33E-04,  avg # of iterations =  2.0

     total cpu time spent up to now is        5.1 secs

     total energy              =    -500.79832794 Ry
     estimated scf accuracy    <       0.91399868 Ry

     iteration #  6     ecut=    30.00 Ry     beta= 0.50
     Davidson diagonalization with overlap
     ethr =  3.33E-04,  avg # of iterations =  1.0

     total cpu time spent up to now is        5.2 secs

     total energy              =    -500.86855853 Ry
     estimated scf accuracy    <       0.07413532 Ry

     iteration #  7     ecut=    30.00 Ry     beta= 0.50
     Davidson diagonalization with overlap
     ethr =  2.90E-05,  avg # of iterations =  4.0

     total cpu time spent up to now is        5.3 secs

     total energy              =    -500.87547847 Ry
     estimated scf accuracy    <       0.10228462 Ry

     iteration #  8     ecut=    30.00 Ry     beta= 0.50
     Davidson diagonalization with overlap
     ethr =  2.90E-05,  avg # of iterations =  2.0

     total cpu time spent up to now is        5.4 secs

     total energy              =    -500.88497428 Ry
     estimated scf accuracy    <       0.01668249 Ry

     iteration #  9     ecut=    30.00 Ry     beta= 0.50
     Davidson diagonalization with overlap
     c_bands:  1 eigenvalues not converged
     ethr =  6.52E-06,  avg # of iterations = 20.0

     total cpu time spent up to now is        5.5 secs

     total energy              =    -500.88643291 Ry
     estimated scf accuracy    <       0.00327922 Ry

     iteration # 10     ecut=    30.00 Ry     beta= 0.50
     Davidson diagonalization with overlap
     ethr =  1.28E-06,  avg # of iterations = 19.0

     total cpu time spent up to now is        5.7 secs

     total energy              =    -500.88649146 Ry
     estimated scf accuracy    <       0.00781040 Ry

     iteration # 11     ecut=    30.00 Ry     beta= 0.50
     Davidson diagonalization with overlap
     ethr =  1.28E-06,  avg # of iterations =  3.0

     total cpu time spent up to now is        5.8 secs

     total energy              =    -500.88702548 Ry
     estimated scf accuracy    <       0.00061070 Ry

     iteration # 12     ecut=    30.00 Ry     beta= 0.50
     Davidson diagonalization with overlap
     ethr =  2.39E-07,  avg # of iterations =  3.0

     total cpu time spent up to now is        5.9 secs

     total energy              =    -500.88706783 Ry
     estimated scf accuracy    <       0.00051925 Ry

     iteration # 13     ecut=    30.00 Ry     beta= 0.50
     Davidson diagonalization with overlap
     ethr =  2.03E-07,  avg # of iterations =  3.0

     total cpu time spent up to now is        6.0 secs

     total energy              =    -500.88709503 Ry
     estimated scf accuracy    <       0.00075457 Ry

     iteration # 14     ecut=    30.00 Ry     beta= 0.50
     Davidson diagonalization with overlap
     ethr =  2.03E-07,  avg # of iterations =  2.0

     total cpu time spent up to now is        6.1 secs

     total energy              =    -500.88713776 Ry
     estimated scf accuracy    <       0.00005983 Ry

     iteration # 15     ecut=    30.00 Ry     beta= 0.50
     Davidson diagonalization with overlap
     ethr =  2.34E-08,  avg # of iterations =  5.0

     total cpu time spent up to now is        6.2 secs

     total energy              =    -500.88714603 Ry
     estimated scf accuracy    <       0.00010305 Ry

     iteration # 16     ecut=    30.00 Ry     beta= 0.50
     Davidson diagonalization with overlap
     ethr =  2.34E-08,  avg # of iterations =  2.0

     total cpu time spent up to now is        6.3 secs

     total energy              =    -500.88715229 Ry
     estimated scf accuracy    <       0.00000669 Ry

     iteration # 17     ecut=    30.00 Ry     beta= 0.50
     Davidson diagonalization with overlap
     ethr =  2.61E-09,  avg # of iterations =  5.0

     total cpu time spent up to now is        6.4 secs

     total energy              =    -500.88715279 Ry
     estimated scf accuracy    <       0.00001058 Ry

     iteration # 18     ecut=    30.00 Ry     beta= 0.50
     Davidson diagonalization with overlap
     ethr =  2.61E-09,  avg # of iterations =  2.0

     total cpu time spent up to now is        6.5 secs

     total energy              =    -500.88715363 Ry
     estimated scf accuracy    <       0.00000294 Ry

     iteration # 19     ecut=    30.00 Ry     beta= 0.50
     Davidson diagonalization with overlap
     ethr =  1.15E-09,  avg # of iterations =  2.0

     total cpu time spent up to now is        6.5 secs

     End of self-consistent calculation

          k = 0.0000 0.0000 0.0000 ( 12104 PWs)   bands (ev):

    -6.4529  -5.8877  -5.5773  -5.4623  -5.2529  -4.9173  -4.7491  -4.6569
    -4.6075  -4.3731  -4.2390  -4.1309  -4.0143  -3.8265  -3.8086  -3.6651
    -3.4806  -3.3988  -3.2939  -3.0458  -3.0110  -2.8859  -2.5612  -2.4721
    -2.3346  -2.2884  -2.0748  -2.0030  -1.8580  -1.6033  -1.3326  -1.3231
    -1.2878  -1.1162  -1.0955  -1.0000  -0.8349  -0.7999  -0.7227  -0.6449
    -0.5614  -0.4372  -0.3981  -0.3498  -0.2344  -0.1938   0.0205   0.0798
     0.1928   0.2644   0.2905   0.4738   0.5367   0.6835   0.8108   0.8902
     0.9795   1.0347   1.2406   1.3631   1.4712   1.6084   1.7325   1.8093
     1.8325   1.9273   2.0339   2.1253   2.1609   2.2092   2.3690   2.4816
     2.5616   2.6256   2.6875   2.7118   2.7837   2.9017   2.9857   3.1297
     3.2405   3.2702   3.3094   3.4862   3.5471   3.6704   3.6940   3.7095
     3.8593   3.8868   3.9380   4.0260   4.0696   4.0956   4.1742   4.3046
     4.3485   4.4182   4.4380   4.5266   4.5742   4.6909   4.7242   4.7414
     4.8405   4.9245   4.9788   5.0311   5.0569   5.1551   5.2046   5.2565
     5.2593   5.3575   5.4610   5.5356   5.5987   5.6344   5.6879   5.8106
     5.8190   5.8840   5.9503   6.1382   6.1568   6.2230   6.2263   6.2868
     6.3452   6.3686   6.4019   6.5234   6.5736   6.5968   6.6802   6.7107
     6.7767   6.8772   6.8932   6.9725   7.0080   7.1023   7.1294   7.2020
     7.3393   7.3956   7.4867   7.5457   7.5915   7.6490   7.7177   7.7323
     7.7751   7.8706

     the Fermi energy is     6.3123 ev

!    total energy              =    -500.88715318 Ry
     estimated scf accuracy    <       0.00000086 Ry
     smearing contrib. (-TS)   =      -0.15910197 Ry
     internal energy E=F+TS    =    -500.72805121 Ry

     The total energy is F=E-TS. E is the sum of the following terms:
     one-electron contribution =     116.93909456 Ry
     hartree contribution      =      51.59914551 Ry
     xc contribution           =    -150.88809148 Ry
     ewald contribution        =    -518.37819981 Ry

     convergence has been achieved in  19 iterations

     Forces acting on atoms (cartesian axes, Ry/au):

     atom    1 type  1   force =    -0.01581896    0.03809562   -0.04148197
     atom    2 type  1   force =    -0.01527640    0.00278374    0.02185074
     atom    3 type  1   force =    -0.05269315    0.00388548    0.02144946
     atom    4 type  1   force =     0.01203002    0.00347711   -0.03928078
     atom    5 type  1   force =     0.00443332    0.02497730   -0.01327077
     atom    6 type  1   force =     0.02389004   -0.02042901    0.00561145
     atom    7 type  1   force =    -0.05603840   -0.03353303    0.00478308
     atom    8 type  1   force =     0.00874864    0.00079115   -0.00507917
     atom    9 type  1   force =     0.02197960    0.00689566    0.04761472
     atom   10 type  1   force =    -0.09322689   -0.10372916    0.02114730
     atom   11 type  1   force =    -0.00130871   -0.00477021    0.01537386
     atom   12 type  1   force =    -0.02343576   -0.02414334    0.05259312
     atom   13 type  1   force =     0.01916492    0.00527319    0.02758100
     atom   14 type  1   force =     0.00417117    0.00968040    0.02234683
     atom   15 type  1   force =     0.01895249    0.02272233   -0.00640500
     atom   16 type  1   force =     0.00975062   -0.01606028    0.00921293
     atom   17 type  1   force =     0.02191977    0.01106662    0.00529405
     atom   18 type  1   force =     0.05576779   -0.00442861    0.03018502
     atom   19 type  1   force =     0.09758672    0.01438506    0.00933839
     atom   20 type  1   force =     0.04103910    0.00962743    0.03153193
     atom   21 type  1   force =     0.00707904    0.02482241   -0.05391390
     atom   22 type  1   force =     0.01943300    0.02739854   -0.00458909
     atom   23 type  1   force =    -0.00579841   -0.02405797    0.00819845
     atom   24 type  1   force =     0.02268163    0.02506118   -0.01828008
     atom   25 type  1   force =    -0.08863910    0.05767384    0.13417104
     atom   26 type  1   force =    -0.03187674    0.00414269   -0.03081065
     atom   27 type  1   force =    -0.00013120   -0.02459706    0.02864290
     atom   28 type  1   force =    -0.04651593   -0.02152514   -0.00367058
     atom   29 type  1   force =    -0.01837707    0.01468725   -0.00279266
     atom   30 type  1   force =     0.01657918    0.09365567   -0.03063701
     atom   31 type  1   force =     0.00251473   -0.00880389   -0.04037129
     atom   32 type  1   force =     0.01101369   -0.06885222    0.00329991
     atom   33 type  1   force =    -0.04249044    0.03751753    0.03557286
     atom   34 type  1   force =     0.00809564    0.03980372    0.05981626
     atom   35 type  1   force =     0.01144337    0.03679930    0.00593738
     atom   36 type  1   force =     0.01052294    0.03165479    0.01185813
     atom   37 type  1   force =    -0.03248502   -0.01038843   -0.02330472
     atom   38 type  1   force =    -0.02152265   -0.01716725   -0.05399782
     atom   39 type  1   force =    -0.01452824   -0.04731071    0.03984600
     atom   40 type  1   force =     0.03120686   -0.05929947    0.01453035
     atom   41 type  1   force =    -0.03593906   -0.02037804    0.00648073
     atom   42 type  1   force =    -0.02467307    0.01858650   -0.01056954
     atom   43 type  1   force =    -0.01182619   -0.00779049    0.00165580
     atom   44 type  1   force =    -0.02153987   -0.02251500   -0.02104864
     atom   45 type  1   force =     0.06240954   -0.02537541    0.03084309
     atom   46 type  1   force =    -0.06504099    0.00413237   -0.00801993
     atom   47 type  1   force =    -0.01843996    0.09842932    0.02182444
     atom   48 type  1   force =     0.00225154   -0.01323576   -0.03563586
     atom   49 type  1   force =     0.02085453   -0.00799240   -0.02748130
     atom   50 type  1   force =    -0.02670039   -0.12983239   -0.03847427
     atom   51 type  1   force =     0.00441818   -0.02526779   -0.05399670
     atom   52 type  1   force =     0.05486204   -0.06431182   -0.08844664
     atom   53 type  1   force =    -0.06349400    0.05244888    0.00676562
     atom   54 type  1   force =     0.04515482    0.01077474   -0.02275179
     atom   55 type  1   force =    -0.01681768    0.00179430    0.00391213
     atom   56 type  1   force =     0.01283978   -0.00293220   -0.00781702
     atom   57 type  1   force =     0.01178889    0.00032887   -0.02419692
     atom   58 type  1   force =    -0.00168920   -0.00101473   -0.03188590
     atom   59 type  1   force =     0.01106305    0.00071331    0.00745512
     atom   60 type  1   force =     0.01180539    0.01141913    0.02705415
     atom   61 type  1   force =     0.12521072   -0.05178788   -0.10213846
     atom   62 type  1   force =     0.02468766   -0.00787485    0.04132026
     atom   63 type  1   force =     0.02538493    0.03099530   -0.05961129
     atom   64 type  1   force =    -0.04641185    0.09290378    0.08486125

     Total force =     0.529825     Total SCF correction =     0.001807


     Computing stress (Cartesian axis) and pressure

          total   stress  (Ry/bohr**3)                   (kbar)     P=       -1.70
  -0.00000045   0.00000372   0.00002308           -0.07        0.55        3.39
   0.00000372  -0.00000978  -0.00000899            0.55       -1.44       -1.32
   0.00002308  -0.00000899  -0.00002451            3.39       -1.32       -3.61

 
     init_run     :      0.93s CPU      4.47s WALL (       1 calls)
     electrons    :      1.83s CPU      2.01s WALL (       1 calls)
     forces       :      0.03s CPU      0.03s WALL (       1 calls)
     stress       :      0.14s CPU      0.15s WALL (       1 calls)

     Called by init_run:
     wfcinit      :      0.42s CPU      3.80s WALL (       1 calls)
                                        3.80s GPU  (       1 calls)
     potinit      :      0.04s CPU      0.12s WALL (       1 calls)
     hinit0       :      0.45s CPU      0.48s WALL (       1 calls)

     Called by electrons:
     c_bands      :      1.23s CPU      1.32s WALL (      20 calls)
     sum_band     :      0.31s CPU      0.36s WALL (      20 calls)
     v_of_rho     :      0.12s CPU      0.21s WALL (      20 calls)
     mix_rho      :      0.15s CPU      0.17s WALL (      20 calls)

     Called by c_bands:
     init_us_2    :      0.05s CPU      0.05s WALL (      41 calls)
     init_us_2:gp :      0.05s CPU      0.05s WALL (      41 calls)
     regterg      :      1.09s CPU      1.17s WALL (      20 calls)

     Called by *egterg:
     rdiaghg      :      0.50s CPU      1.19s WALL (     113 calls)
                                        1.17s GPU  (     113 calls)
     h_psi        :      0.83s CPU      3.58s WALL (     115 calls)
                                        3.58s GPU  (     115 calls)
     g_psi        :      0.00s CPU      0.00s WALL (      94 calls)
                                        0.00s GPU  (      94 calls)

     Called by h_psi:
     h_psi:calbec :      0.40s CPU      3.08s WALL (     115 calls)
                                        3.08s GPU  (     115 calls)
     vloc_psi     :      0.37s CPU      0.43s WALL (     115 calls)
                                        0.43s GPU  (     115 calls)
     add_vuspsi   :      0.04s CPU      0.06s WALL (     115 calls)
                                        0.06s GPU  (     115 calls)

     General routines
     calbec       :      0.41s CPU      3.08s WALL (     120 calls)
     fft          :      0.55s CPU      0.68s WALL (     167 calls)
                                        0.12s GPU  (     106 calls)
     ffts         :      0.03s CPU      0.04s WALL (      20 calls)
     fftw         :      0.44s CPU      0.58s WALL (    2156 calls)
                                        0.51s GPU  (    2156 calls)
 
     Parallel routines
 
     PWSCF        :      2.96s CPU      6.74s WALL

 
   This run was terminated on:   9:52:50  11May2023            

=------------------------------------------------------------------------------=
   JOB DONE.
=------------------------------------------------------------------------------=
