An instance of this daemon is already running

     Program PWSCF v.7.1 starts on 11May2023 at  9:49:19 

     This program is part of the open-source Quantum ESPRESSO suite
     for quantum simulation of materials; please cite
         "P. Giannozzi et al., J. Phys.:Condens. Matter 21 395502 (2009);
         "P. Giannozzi et al., J. Phys.:Condens. Matter 29 465901 (2017);
         "P. Giannozzi et al., J. Chem. Phys. 152 154105 (2020);
          URL http://www.quantum-espresso.org", 
     in publications or presentations arising from this work. More details at
     http://www.quantum-espresso.org/quote

     Parallel version (MPI & OpenMP), running on       4 processor cores
     Number of MPI processes:                 4
     Threads/MPI process:                     1

     MPI processes distributed on     1 nodes
     259098 MiB available memory on the printing compute node when the environment starts
 
     Reading input from pw-si-34.in
Warning: card &CELL ignored
Warning: card / ignored

     Current dimensions of program PWSCF are:
     Max number of different atomic species (ntypx) = 10
     Max number of k-points (npk) =  40000
     Max angular momentum in pseudopotentials (lmaxx) =  4

     IMPORTANT: XC functional enforced from input :
     Exchange-correlation= PBE
                           (   1   4   3   4   0   0   0)
     Any further DFT definition will be discarded
     Please, verify this is what you really want


     gamma-point specific algorithms are used
 
     K-points division:     npool     =       2
     R & G space division:  proc/nbgrp/npool/nimage =       2
     Subspace diagonalization in iterative solution of the eigenvalue problem:
     a serial algorithm will be used

     Message from routine divide_et_impera:
     suboptimal parallelization: some nodes have no k-points
 
     Parallelization info
     --------------------
     sticks:   dense  smooth     PW     G-vecs:    dense   smooth      PW
     Min        2023    2023    542                97221    97221   13262
     Max        2026    2026    543                97226    97226   13267
     Sum        4049    4049   1085               194447   194447   26529
 
     Using Slab Decomposition
 


     bravais-lattice index     =            0
     lattice parameter (alat)  =      20.6099  a.u.
     unit-cell volume          =    8754.4115 (a.u.)^3
     number of atoms/cell      =           64
     number of atomic types    =            1
     number of electrons       =       256.00
     number of Kohn-Sham states=          154
     kinetic-energy cutoff     =      30.0000  Ry
     charge density cutoff     =     120.0000  Ry
     scf convergence threshold =      1.0E-06
     mixing beta               =       0.5000
     number of iterations used =            8  plain     mixing
     Exchange-correlation= PBE
                           (   1   4   3   4   0   0   0)

     GPU acceleration is ACTIVE.
     GPU-aware MPI enabled

     Message from routine print_cuda_info:
     High GPU oversubscription detected. Are you sure this is what you want?

     celldm(1)=  20.609889  celldm(2)=   0.000000  celldm(3)=   0.000000
     celldm(4)=   0.000000  celldm(5)=   0.000000  celldm(6)=   0.000000

     crystal axes: (cart. coord. in units of alat)
               a(1) = (   1.000000   0.000000   0.000000 )  
               a(2) = (   0.000000   1.000000   0.000000 )  
               a(3) = (   0.000000   0.000000   1.000000 )  

     reciprocal axes: (cart. coord. in units 2 pi/alat)
               b(1) = (  1.000000  0.000000  0.000000 )  
               b(2) = (  0.000000  1.000000  0.000000 )  
               b(3) = (  0.000000  0.000000  1.000000 )  


     PseudoPot. # 1 for Si read from file:
     /home/ppiaggi/pseudos/Si_ONCV_PBE_sr.upf
     MD5 check sum: 8553c464762ac42b85b1eed164b4d029
     Pseudo is Norm-conserving, Zval =  4.0
     Generated using ONCVPSP code by D. R. Hamann
     Using radial grid of 1510 points,  4 beta functions with: 
                l(1) =   0
                l(2) =   0
                l(3) =   1
                l(4) =   1

     atomic species   valence    mass     pseudopotential
        Si             4.00    28.08500     Si( 1.00)

     No symmetry found



   Cartesian axes

     site n.     atom                  positions (alat units)
         1           Si  tau(   1) = (   0.0986712   0.1526380   0.5956070  )
         2           Si  tau(   2) = (   0.2544980   0.0851695   0.2669020  )
         3           Si  tau(   3) = (   0.9010710   0.1411910   0.6840330  )
         4           Si  tau(   4) = (   0.4355170   0.8310770   0.9878400  )
         5           Si  tau(   5) = (   0.5820370   0.1079850   0.8588840  )
         6           Si  tau(   6) = (   0.5008190   0.2602330   0.3847860  )
         7           Si  tau(   7) = (   0.2421740   0.0253386   0.8985990  )
         8           Si  tau(   8) = (   0.4845350   0.1724090   0.0963881  )
         9           Si  tau(   9) = (   0.4179910   0.8372530   0.7683970  )
        10           Si  tau(  10) = (   0.2398490   0.3420030   0.4295310  )
        11           Si  tau(  11) = (   0.3352770   0.6616820   0.6283190  )
        12           Si  tau(  12) = (   0.8381200   0.4727400   0.0474234  )
        13           Si  tau(  13) = (   0.6764230   0.5771290   0.7634430  )
        14           Si  tau(  14) = (   0.7063690   0.1725770   0.3081120  )
        15           Si  tau(  15) = (   0.1323370   0.9527330   0.7235030  )
        16           Si  tau(  16) = (   0.3428390   0.9892950   0.6175600  )
        17           Si  tau(  17) = (   0.5232040   0.6362970   0.9141580  )
        18           Si  tau(  18) = (   0.2064330   0.2951660   0.7238850  )
        19           Si  tau(  19) = (   0.6469540   0.5276240   0.5699570  )
        20           Si  tau(  20) = (   0.1228910   0.2970200   0.0929248  )
        21           Si  tau(  21) = (   0.5438420   0.9208120   0.5367690  )
        22           Si  tau(  22) = (   0.9142520   0.9782870   0.8269790  )
        23           Si  tau(  23) = (   0.6403160   0.8919180   0.9338600  )
        24           Si  tau(  24) = (   0.6543560   0.6766890   0.0957081  )
        25           Si  tau(  25) = (   0.0417733   0.2507470   0.3864970  )
        26           Si  tau(  26) = (   0.1101910   0.5295290   0.2287780  )
        27           Si  tau(  27) = (   0.5356850   0.8313130   0.2324250  )
        28           Si  tau(  28) = (   0.3326270   0.2846920   0.2480910  )
        29           Si  tau(  29) = (   0.4336130   0.0277367   0.3885870  )
        30           Si  tau(  30) = (   0.0362565   0.4967850   0.4383940  )
        31           Si  tau(  31) = (   0.6575280   0.2915860   0.0010352  )
        32           Si  tau(  32) = (   0.0103010   0.5523580   0.9844960  )
        33           Si  tau(  33) = (   0.1658470   0.6154080   0.8733330  )
        34           Si  tau(  34) = (   0.9046980   0.6485280   0.5499320  )
        35           Si  tau(  35) = (   0.7045660   0.0546437   0.5026960  )
        36           Si  tau(  36) = (   0.3067890   0.8400840   0.3980440  )
        37           Si  tau(  37) = (   0.9336460   0.7528240   0.3669510  )
        38           Si  tau(  38) = (   0.8441210   0.1476580   0.9253720  )
        39           Si  tau(  39) = (   0.5059660   0.3145420   0.6195090  )
        40           Si  tau(  40) = (   0.9703860   0.9074120   0.5400570  )
        41           Si  tau(  41) = (   0.7462970   0.9524270   0.6676280  )
        42           Si  tau(  42) = (   0.5322100   0.7102180   0.5155590  )
        43           Si  tau(  43) = (   0.4442170   0.4750200   0.4041820  )
        44           Si  tau(  44) = (   0.9120330   0.2572950   0.1299380  )
        45           Si  tau(  45) = (   0.1168990   0.9032090   0.3350300  )
        46           Si  tau(  46) = (   0.7287120   0.9185650   0.2515940  )
        47           Si  tau(  47) = (   0.2351240   0.6105690   0.3734590  )
        48           Si  tau(  48) = (   0.6043200   0.4622640   0.1658470  )
        49           Si  tau(  49) = (   0.2686040   0.4582580   0.6205120  )
        50           Si  tau(  50) = (   0.8830450   0.4043180   0.6657810  )
        51           Si  tau(  51) = (   0.4782530   0.4397710   0.8245450  )
        52           Si  tau(  52) = (   0.7004740   0.2360660   0.6802190  )
        53           Si  tau(  53) = (   0.0097736   0.8233910   0.1458400  )
        54           Si  tau(  54) = (   0.3781500   0.2044890   0.8532880  )
        55           Si  tau(  55) = (   0.3517900   0.5530750   0.0779267  )
        56           Si  tau(  56) = (   0.3175460   0.3570930   0.0452752  )
        57           Si  tau(  57) = (   0.8306910   0.8175600   0.0052601  )
        58           Si  tau(  58) = (   0.9483010   0.6715510   0.7957450  )
        59           Si  tau(  59) = (   0.3519680   0.7331710   0.1972890  )
        60           Si  tau(  60) = (   0.0798620   0.4720780   0.7215570  )
        61           Si  tau(  61) = (   0.2032530   0.9180540   0.0885286  )
        62           Si  tau(  62) = (   0.8373140   0.3482210   0.3370260  )
        63           Si  tau(  63) = (   0.7486460   0.7831350   0.8221870  )
        64           Si  tau(  64) = (   0.7899760   0.3980030   0.8559120  )

     number of k points=     1  Fermi-Dirac smearing, width (Ry)=  0.0100
                       cart. coord. in units 2pi/alat
        k(    1) = (   0.0000000   0.0000000   0.0000000), wk =   2.0000000

     Dense  grid:    97224 G-vectors     FFT dimensions: (  72,  72,  72)

     Estimated max dynamical RAM per process >     154.85 MB

     Estimated total dynamical RAM >     595.66 MB

     Initial potential from superposition of free atoms

     starting charge     255.9608, renormalised to     256.0000
     Starting wfcs are  256 randomized atomic wfcs

     total cpu time spent up to now is        4.5 secs

     Self-consistent Calculation

     iteration #  1     ecut=    30.00 Ry     beta= 0.50
     Davidson diagonalization with overlap
     ethr =  1.00E-02,  avg # of iterations =  3.0

     Threshold (ethr) on eigenvalues was too large:
     Diagonalizing with lowered threshold

     Davidson diagonalization with overlap
     ethr =  6.10E-04,  avg # of iterations =  4.0

     total cpu time spent up to now is        4.7 secs

     total energy              =    -500.08780436 Ry
     estimated scf accuracy    <       2.02950358 Ry

     iteration #  2     ecut=    30.00 Ry     beta= 0.50
     Davidson diagonalization with overlap
     ethr =  7.93E-04,  avg # of iterations =  3.0

     total cpu time spent up to now is        4.8 secs

     total energy              =    -499.37694071 Ry
     estimated scf accuracy    <      10.74047844 Ry

     iteration #  3     ecut=    30.00 Ry     beta= 0.50
     Davidson diagonalization with overlap
     ethr =  7.93E-04,  avg # of iterations =  4.0

     total cpu time spent up to now is        4.9 secs

     total energy              =    -500.30244819 Ry
     estimated scf accuracy    <       4.10552092 Ry

     iteration #  4     ecut=    30.00 Ry     beta= 0.50
     Davidson diagonalization with overlap
     ethr =  7.93E-04,  avg # of iterations =  2.0

     total cpu time spent up to now is        5.0 secs

     total energy              =    -500.63348861 Ry
     estimated scf accuracy    <       0.82111027 Ry

     iteration #  5     ecut=    30.00 Ry     beta= 0.50
     Davidson diagonalization with overlap
     ethr =  3.21E-04,  avg # of iterations =  2.0

     total cpu time spent up to now is        5.1 secs

     total energy              =    -500.65115661 Ry
     estimated scf accuracy    <       0.90399803 Ry

     iteration #  6     ecut=    30.00 Ry     beta= 0.50
     Davidson diagonalization with overlap
     ethr =  3.21E-04,  avg # of iterations =  1.0

     total cpu time spent up to now is        5.2 secs

     total energy              =    -500.72488113 Ry
     estimated scf accuracy    <       0.08992836 Ry

     iteration #  7     ecut=    30.00 Ry     beta= 0.50
     Davidson diagonalization with overlap
     ethr =  3.51E-05,  avg # of iterations =  2.0

     total cpu time spent up to now is        5.3 secs

     total energy              =    -500.73614717 Ry
     estimated scf accuracy    <       0.03073103 Ry

     iteration #  8     ecut=    30.00 Ry     beta= 0.50
     Davidson diagonalization with overlap
     ethr =  1.20E-05,  avg # of iterations = 11.0

     total cpu time spent up to now is        5.4 secs

     total energy              =    -500.73844306 Ry
     estimated scf accuracy    <       0.03669032 Ry

     iteration #  9     ecut=    30.00 Ry     beta= 0.50
     Davidson diagonalization with overlap
     ethr =  1.20E-05,  avg # of iterations =  2.0

     total cpu time spent up to now is        5.5 secs

     total energy              =    -500.74122599 Ry
     estimated scf accuracy    <       0.00573947 Ry

     iteration # 10     ecut=    30.00 Ry     beta= 0.50
     Davidson diagonalization with overlap
     ethr =  2.24E-06,  avg # of iterations = 17.0

     total cpu time spent up to now is        5.6 secs

     total energy              =    -500.74167340 Ry
     estimated scf accuracy    <       0.00380630 Ry

     iteration # 11     ecut=    30.00 Ry     beta= 0.50
     Davidson diagonalization with overlap
     ethr =  1.49E-06,  avg # of iterations =  2.0

     total cpu time spent up to now is        5.7 secs

     total energy              =    -500.74193613 Ry
     estimated scf accuracy    <       0.00171765 Ry

     iteration # 12     ecut=    30.00 Ry     beta= 0.50
     Davidson diagonalization with overlap
     ethr =  6.71E-07,  avg # of iterations =  2.0

     total cpu time spent up to now is        5.8 secs

     total energy              =    -500.74206799 Ry
     estimated scf accuracy    <       0.00044152 Ry

     iteration # 13     ecut=    30.00 Ry     beta= 0.50
     Davidson diagonalization with overlap
     ethr =  1.72E-07,  avg # of iterations =  3.0

     total cpu time spent up to now is        5.9 secs

     total energy              =    -500.74210412 Ry
     estimated scf accuracy    <       0.00073220 Ry

     iteration # 14     ecut=    30.00 Ry     beta= 0.50
     Davidson diagonalization with overlap
     ethr =  1.72E-07,  avg # of iterations =  2.0

     total cpu time spent up to now is        6.0 secs

     total energy              =    -500.74214761 Ry
     estimated scf accuracy    <       0.00004354 Ry

     iteration # 15     ecut=    30.00 Ry     beta= 0.50
     Davidson diagonalization with overlap
     ethr =  1.70E-08,  avg # of iterations =  4.0

     total cpu time spent up to now is        6.1 secs

     total energy              =    -500.74215414 Ry
     estimated scf accuracy    <       0.00003563 Ry

     iteration # 16     ecut=    30.00 Ry     beta= 0.50
     Davidson diagonalization with overlap
     ethr =  1.39E-08,  avg # of iterations =  2.0

     total cpu time spent up to now is        6.2 secs

     total energy              =    -500.74215675 Ry
     estimated scf accuracy    <       0.00003718 Ry

     iteration # 17     ecut=    30.00 Ry     beta= 0.50
     Davidson diagonalization with overlap
     ethr =  1.39E-08,  avg # of iterations =  1.0

     total cpu time spent up to now is        6.2 secs

     total energy              =    -500.74215910 Ry
     estimated scf accuracy    <       0.00000465 Ry

     iteration # 18     ecut=    30.00 Ry     beta= 0.50
     Davidson diagonalization with overlap
     ethr =  1.82E-09,  avg # of iterations =  3.0

     total cpu time spent up to now is        6.3 secs

     total energy              =    -500.74215952 Ry
     estimated scf accuracy    <       0.00000375 Ry

     iteration # 19     ecut=    30.00 Ry     beta= 0.50
     Davidson diagonalization with overlap
     ethr =  1.47E-09,  avg # of iterations =  2.0

     total cpu time spent up to now is        6.4 secs

     End of self-consistent calculation

          k = 0.0000 0.0000 0.0000 ( 12104 PWs)   bands (ev):

    -6.3864  -5.8462  -5.4160  -5.4063  -5.0477  -4.9658  -4.7729  -4.5828
    -4.4744  -4.2125  -4.1166  -4.0071  -3.8751  -3.8316  -3.5975  -3.5388
    -3.3589  -3.2482  -3.1439  -2.9813  -2.8401  -2.7310  -2.6370  -2.5508
    -2.3266  -2.1491  -2.0852  -1.7369  -1.7068  -1.5153  -1.4834  -1.3354
    -1.2328  -1.1042  -1.0194  -0.9715  -0.9403  -0.7727  -0.5670  -0.5303
    -0.5245  -0.4523  -0.3447  -0.2387  -0.1150  -0.0185   0.0077   0.2165
     0.3055   0.3764   0.4696   0.5070   0.7150   0.7735   0.9052   0.9610
     1.0251   1.1098   1.3174   1.4161   1.5603   1.6533   1.6826   1.7741
     1.9199   1.9414   2.0570   2.1228   2.1667   2.2584   2.3098   2.4208
     2.4741   2.6118   2.7161   2.7629   2.9630   3.0232   3.1010   3.1703
     3.2204   3.2737   3.3238   3.4464   3.5411   3.5865   3.6250   3.6564
     3.8212   3.9055   3.9804   4.0899   4.1700   4.2625   4.2978   4.3530
     4.4422   4.4547   4.5422   4.6353   4.6618   4.7026   4.8170   4.8478
     4.8994   4.9504   4.9993   5.0472   5.1033   5.1437   5.3037   5.3234
     5.3469   5.4833   5.5725   5.6021   5.6447   5.7335   5.8095   5.8379
     5.9414   5.9992   6.0070   6.0584   6.1142   6.1526   6.2239   6.2625
     6.3798   6.3994   6.4063   6.4922   6.5674   6.6012   6.6601   6.7152
     6.7704   6.8614   6.9233   6.9675   7.0123   7.0774   7.1389   7.2213
     7.2376   7.2983   7.3824   7.4417   7.5155   7.5611   7.6311   7.6806
     7.6837   7.7340

     the Fermi energy is     6.3088 ev

!    total energy              =    -500.74215910 Ry
     estimated scf accuracy    <       0.00000097 Ry
     smearing contrib. (-TS)   =      -0.16324412 Ry
     internal energy E=F+TS    =    -500.57891497 Ry

     The total energy is F=E-TS. E is the sum of the following terms:
     one-electron contribution =     124.82861548 Ry
     hartree contribution      =      47.80948417 Ry
     xc contribution           =    -150.28873846 Ry
     ewald contribution        =    -522.92827617 Ry

     convergence has been achieved in  19 iterations

     Forces acting on atoms (cartesian axes, Ry/au):

     atom    1 type  1   force =    -0.00389038   -0.00300848   -0.00272466
     atom    2 type  1   force =    -0.02812694   -0.03610197   -0.02487281
     atom    3 type  1   force =    -0.00417619    0.02645127   -0.00101203
     atom    4 type  1   force =    -0.00506871    0.00007195    0.00252675
     atom    5 type  1   force =     0.04540035    0.00505143    0.00231789
     atom    6 type  1   force =     0.04021763   -0.04680526    0.01023623
     atom    7 type  1   force =     0.02166466    0.00932734    0.00126989
     atom    8 type  1   force =    -0.01364582    0.00141133   -0.00499725
     atom    9 type  1   force =    -0.01601483   -0.01756688   -0.01951992
     atom   10 type  1   force =    -0.02525435    0.04844679    0.01998502
     atom   11 type  1   force =     0.02756301    0.04518344   -0.01803642
     atom   12 type  1   force =    -0.05957404   -0.02715446    0.05445436
     atom   13 type  1   force =     0.02014959   -0.00770145    0.06996033
     atom   14 type  1   force =    -0.02961733   -0.02486819    0.00944692
     atom   15 type  1   force =    -0.02617453    0.01422945   -0.02100036
     atom   16 type  1   force =    -0.00143355   -0.00399751   -0.01450552
     atom   17 type  1   force =    -0.01078233   -0.00045075    0.03485671
     atom   18 type  1   force =     0.00506651   -0.06668701    0.04550178
     atom   19 type  1   force =     0.00436146   -0.01611141   -0.06494030
     atom   20 type  1   force =    -0.01582084    0.00910507    0.04628107
     atom   21 type  1   force =    -0.00851414   -0.02616287    0.03759354
     atom   22 type  1   force =     0.01829360   -0.04738668    0.00236358
     atom   23 type  1   force =    -0.13135216    0.13367556    0.08041188
     atom   24 type  1   force =     0.01788817   -0.00821893   -0.00784159
     atom   25 type  1   force =     0.00393695   -0.00529382    0.01629930
     atom   26 type  1   force =    -0.02045803   -0.03308066   -0.05993777
     atom   27 type  1   force =     0.01422351   -0.00756855    0.00048970
     atom   28 type  1   force =     0.00741526    0.00000992   -0.02417067
     atom   29 type  1   force =    -0.01933699    0.02793811   -0.03013749
     atom   30 type  1   force =    -0.00029741   -0.01733495   -0.01243271
     atom   31 type  1   force =    -0.01076560   -0.00862524   -0.02112222
     atom   32 type  1   force =     0.01018441    0.02631810    0.04055047
     atom   33 type  1   force =     0.04523703    0.02120820   -0.02498234
     atom   34 type  1   force =    -0.01414049   -0.02710040    0.04399011
     atom   35 type  1   force =     0.00730213    0.07852257   -0.07948889
     atom   36 type  1   force =     0.00823556   -0.04163611    0.03288245
     atom   37 type  1   force =     0.00182353    0.03092753   -0.03004769
     atom   38 type  1   force =    -0.02840628    0.06734195    0.03382770
     atom   39 type  1   force =    -0.01119250    0.04220956   -0.01634871
     atom   40 type  1   force =     0.00285188   -0.00831016   -0.01258614
     atom   41 type  1   force =     0.04138699   -0.06123959    0.07279464
     atom   42 type  1   force =    -0.02662009   -0.03645586    0.00472300
     atom   43 type  1   force =    -0.02197678    0.02726199   -0.00149060
     atom   44 type  1   force =    -0.00912037    0.00425307   -0.01100700
     atom   45 type  1   force =    -0.04733992    0.01841260    0.01980760
     atom   46 type  1   force =     0.02044344    0.03649953    0.01142743
     atom   47 type  1   force =     0.06393307    0.01664898    0.03927872
     atom   48 type  1   force =     0.00373882    0.01839493   -0.00343585
     atom   49 type  1   force =     0.05587042    0.02385767   -0.05469564
     atom   50 type  1   force =    -0.00447898    0.00525424   -0.03578906
     atom   51 type  1   force =    -0.00817027   -0.01804993   -0.01689779
     atom   52 type  1   force =     0.00215520   -0.02278393    0.02149355
     atom   53 type  1   force =     0.00959112   -0.01758165    0.00482275
     atom   54 type  1   force =    -0.02381487   -0.00455920    0.01396684
     atom   55 type  1   force =     0.03621147    0.05050308   -0.02489989
     atom   56 type  1   force =     0.02363341   -0.06692226   -0.04307551
     atom   57 type  1   force =     0.03718291    0.00022148    0.09770371
     atom   58 type  1   force =     0.00137779    0.00182146   -0.01356756
     atom   59 type  1   force =    -0.02558328    0.01803695    0.00820817
     atom   60 type  1   force =    -0.01208666    0.01206875    0.02142509
     atom   61 type  1   force =     0.01367940    0.00313105    0.01729676
     atom   62 type  1   force =     0.03420303   -0.00798539   -0.02165770
     atom   63 type  1   force =     0.06763069   -0.10928518   -0.18470036
     atom   64 type  1   force =    -0.04961832    0.00223938   -0.01627148

     Total force =     0.505302     Total SCF correction =     0.001856


     Computing stress (Cartesian axis) and pressure

          total   stress  (Ry/bohr**3)                   (kbar)     P=      -12.51
  -0.00004592   0.00005694  -0.00002273           -6.76        8.38       -3.34
   0.00005694  -0.00006285  -0.00002359            8.38       -9.25       -3.47
  -0.00002273  -0.00002359  -0.00014640           -3.34       -3.47      -21.54

 
     init_run     :      0.94s CPU      4.47s WALL (       1 calls)
     electrons    :      1.72s CPU      1.87s WALL (       1 calls)
     forces       :      0.03s CPU      0.03s WALL (       1 calls)
     stress       :      0.15s CPU      0.15s WALL (       1 calls)

     Called by init_run:
     wfcinit      :      0.43s CPU      3.80s WALL (       1 calls)
                                        3.80s GPU  (       1 calls)
     potinit      :      0.03s CPU      0.13s WALL (       1 calls)
     hinit0       :      0.46s CPU      0.48s WALL (       1 calls)

     Called by electrons:
     c_bands      :      1.11s CPU      1.19s WALL (      20 calls)
     sum_band     :      0.31s CPU      0.36s WALL (      20 calls)
     v_of_rho     :      0.12s CPU      0.22s WALL (      20 calls)
     mix_rho      :      0.15s CPU      0.17s WALL (      20 calls)

     Called by c_bands:
     init_us_2    :      0.05s CPU      0.06s WALL (      41 calls)
     init_us_2:gp :      0.05s CPU      0.05s WALL (      41 calls)
     regterg      :      0.98s CPU      1.04s WALL (      20 calls)

     Called by *egterg:
     rdiaghg      :      0.41s CPU      1.10s WALL (      91 calls)
                                        1.08s GPU  (      91 calls)
     h_psi        :      0.84s CPU      3.55s WALL (      93 calls)
                                        3.55s GPU  (      93 calls)
     g_psi        :      0.00s CPU      0.00s WALL (      72 calls)
                                        0.00s GPU  (      72 calls)

     Called by h_psi:
     h_psi:calbec :      0.42s CPU      3.06s WALL (      93 calls)
                                        3.06s GPU  (      93 calls)
     vloc_psi     :      0.37s CPU      0.43s WALL (      93 calls)
                                        0.43s GPU  (      93 calls)
     add_vuspsi   :      0.03s CPU      0.05s WALL (      93 calls)
                                        0.05s GPU  (      93 calls)

     General routines
     calbec       :      0.42s CPU      3.06s WALL (      98 calls)
     fft          :      0.56s CPU      0.68s WALL (     167 calls)
                                        0.12s GPU  (     106 calls)
     ffts         :      0.03s CPU      0.03s WALL (      20 calls)
     fftw         :      0.45s CPU      0.58s WALL (    2108 calls)
                                        0.51s GPU  (    2108 calls)
 
     Parallel routines
 
     PWSCF        :      2.87s CPU      6.60s WALL

 
   This run was terminated on:   9:49:25  11May2023            

=------------------------------------------------------------------------------=
   JOB DONE.
=------------------------------------------------------------------------------=
