An instance of this daemon is already running

     Program PWSCF v.7.1 starts on 11May2023 at  9:56:53 

     This program is part of the open-source Quantum ESPRESSO suite
     for quantum simulation of materials; please cite
         "P. Giannozzi et al., J. Phys.:Condens. Matter 21 395502 (2009);
         "P. Giannozzi et al., J. Phys.:Condens. Matter 29 465901 (2017);
         "P. Giannozzi et al., J. Chem. Phys. 152 154105 (2020);
          URL http://www.quantum-espresso.org", 
     in publications or presentations arising from this work. More details at
     http://www.quantum-espresso.org/quote

     Parallel version (MPI & OpenMP), running on       4 processor cores
     Number of MPI processes:                 4
     Threads/MPI process:                     1

     MPI processes distributed on     1 nodes
     259166 MiB available memory on the printing compute node when the environment starts
 
     Reading input from pw-si-85.in
Warning: card &CELL ignored
Warning: card / ignored

     Current dimensions of program PWSCF are:
     Max number of different atomic species (ntypx) = 10
     Max number of k-points (npk) =  40000
     Max angular momentum in pseudopotentials (lmaxx) =  4

     IMPORTANT: XC functional enforced from input :
     Exchange-correlation= PBE
                           (   1   4   3   4   0   0   0)
     Any further DFT definition will be discarded
     Please, verify this is what you really want


     gamma-point specific algorithms are used
 
     K-points division:     npool     =       2
     R & G space division:  proc/nbgrp/npool/nimage =       2
     Subspace diagonalization in iterative solution of the eigenvalue problem:
     a serial algorithm will be used

     Message from routine divide_et_impera:
     suboptimal parallelization: some nodes have no k-points
 
     Parallelization info
     --------------------
     sticks:   dense  smooth     PW     G-vecs:    dense   smooth      PW
     Min        1973    1973    519                93311    93311   12703
     Max        1980    1980    522                93312    93312   12710
     Sum        3953    3953   1041               186623   186623   25413
 
     Using Slab Decomposition
 


     bravais-lattice index     =            0
     lattice parameter (alat)  =      20.3306  a.u.
     unit-cell volume          =    8403.3621 (a.u.)^3
     number of atoms/cell      =           64
     number of atomic types    =            1
     number of electrons       =       256.00
     number of Kohn-Sham states=          154
     kinetic-energy cutoff     =      30.0000  Ry
     charge density cutoff     =     120.0000  Ry
     scf convergence threshold =      1.0E-06
     mixing beta               =       0.5000
     number of iterations used =            8  plain     mixing
     Exchange-correlation= PBE
                           (   1   4   3   4   0   0   0)

     GPU acceleration is ACTIVE.
     GPU-aware MPI enabled

     Message from routine print_cuda_info:
     High GPU oversubscription detected. Are you sure this is what you want?

     celldm(1)=  20.330639  celldm(2)=   0.000000  celldm(3)=   0.000000
     celldm(4)=   0.000000  celldm(5)=   0.000000  celldm(6)=   0.000000

     crystal axes: (cart. coord. in units of alat)
               a(1) = (   1.000000   0.000000   0.000000 )  
               a(2) = (   0.000000   1.000000   0.000000 )  
               a(3) = (   0.000000   0.000000   1.000000 )  

     reciprocal axes: (cart. coord. in units 2 pi/alat)
               b(1) = (  1.000000  0.000000  0.000000 )  
               b(2) = (  0.000000  1.000000  0.000000 )  
               b(3) = (  0.000000  0.000000  1.000000 )  


     PseudoPot. # 1 for Si read from file:
     /home/ppiaggi/pseudos/Si_ONCV_PBE_sr.upf
     MD5 check sum: 8553c464762ac42b85b1eed164b4d029
     Pseudo is Norm-conserving, Zval =  4.0
     Generated using ONCVPSP code by D. R. Hamann
     Using radial grid of 1510 points,  4 beta functions with: 
                l(1) =   0
                l(2) =   0
                l(3) =   1
                l(4) =   1

     atomic species   valence    mass     pseudopotential
        Si             4.00    28.08500     Si( 1.00)

     No symmetry found



   Cartesian axes

     site n.     atom                  positions (alat units)
         1           Si  tau(   1) = (   0.1261850   0.3083800   0.5628590  )
         2           Si  tau(   2) = (   0.2965350   0.9135160   0.4593590  )
         3           Si  tau(   3) = (   0.7383750   0.3937860   0.8921650  )
         4           Si  tau(   4) = (   0.4661330   0.1001890   0.1283070  )
         5           Si  tau(   5) = (   0.4110240   0.1569450   0.9352630  )
         6           Si  tau(   6) = (   0.3054760   0.1023500   0.3139630  )
         7           Si  tau(   7) = (   0.2052260   0.0465726   0.5980010  )
         8           Si  tau(   8) = (   0.6903680   0.1588280   0.1442670  )
         9           Si  tau(   9) = (   0.5347030   0.9603830   0.7064490  )
        10           Si  tau(  10) = (   0.0834211   0.1816710   0.3502850  )
        11           Si  tau(  11) = (   0.2068570   0.5482010   0.3708840  )
        12           Si  tau(  12) = (   0.8551580   0.6217490   0.0497462  )
        13           Si  tau(  13) = (   0.6823680   0.6741580   0.8150720  )
        14           Si  tau(  14) = (   0.8846260   0.2482780   0.4189340  )
        15           Si  tau(  15) = (   0.3793950   0.7614540   0.7169310  )
        16           Si  tau(  16) = (   0.4009390   0.6988590   0.5025930  )
        17           Si  tau(  17) = (   0.5469860   0.6432320   0.9932470  )
        18           Si  tau(  18) = (   0.0145391   0.1728280   0.9775700  )
        19           Si  tau(  19) = (   0.5224770   0.4537890   0.4431510  )
        20           Si  tau(  20) = (   0.9481280   0.3475900   0.2222390  )
        21           Si  tau(  21) = (   0.6533450   0.9594220   0.5449590  )
        22           Si  tau(  22) = (   0.9101730   0.7542590   0.7942230  )
        23           Si  tau(  23) = (   0.9599840   0.1918850   0.6696470  )
        24           Si  tau(  24) = (   0.6636120   0.7513590   0.1638690  )
        25           Si  tau(  25) = (   0.8554240   0.0110580   0.3333180  )
        26           Si  tau(  26) = (   0.8931380   0.5765320   0.2456530  )
        27           Si  tau(  27) = (   0.6742060   0.9673840   0.2498650  )
        28           Si  tau(  28) = (   0.1674120   0.2242650   0.0993352  )
        29           Si  tau(  29) = (   0.4895580   0.0087478   0.3890350  )
        30           Si  tau(  30) = (   0.8306740   0.7579410   0.5446920  )
        31           Si  tau(  31) = (   0.5210940   0.3594170   0.9740960  )
        32           Si  tau(  32) = (   0.1073900   0.6665880   0.1940660  )
        33           Si  tau(  33) = (   0.3470300   0.8156600   0.9448990  )
        34           Si  tau(  34) = (   0.0659442   0.5951360   0.7879210  )
        35           Si  tau(  35) = (   0.6521730   0.7522020   0.4053750  )
        36           Si  tau(  36) = (   0.0691301   0.6972400   0.4868660  )
        37           Si  tau(  37) = (   0.1569850   0.7819970   0.6835100  )
        38           Si  tau(  38) = (   0.9749900   0.9363500   0.9641570  )
        39           Si  tau(  39) = (   0.6092750   0.6610160   0.6142830  )
        40           Si  tau(  40) = (   0.0009144   0.9119910   0.5320250  )
        41           Si  tau(  41) = (   0.8238700   0.0539153   0.7931120  )
        42           Si  tau(  42) = (   0.5010120   0.6300210   0.3363340  )
        43           Si  tau(  43) = (   0.2908560   0.3549630   0.2130040  )
        44           Si  tau(  44) = (   0.8417150   0.2580530   0.0440097  )
        45           Si  tau(  45) = (   0.0683992   0.8513090   0.3060930  )
        46           Si  tau(  46) = (   0.8163250   0.0838038   0.5380870  )
        47           Si  tau(  47) = (   0.2968580   0.2665230   0.4407330  )
        48           Si  tau(  48) = (   0.5526340   0.3856720   0.1818600  )
        49           Si  tau(  49) = (   0.4286030   0.3032490   0.6069100  )
        50           Si  tau(  50) = (   0.8975090   0.5334740   0.4775030  )
        51           Si  tau(  51) = (   0.4117320   0.5119360   0.6897680  )
        52           Si  tau(  52) = (   0.7630510   0.2828420   0.6434210  )
        53           Si  tau(  53) = (   0.8325580   0.8557710   0.0660523  )
        54           Si  tau(  54) = (   0.3647140   0.1074930   0.7129420  )
        55           Si  tau(  55) = (   0.4175750   0.6027690   0.1489400  )
        56           Si  tau(  56) = (   0.3028920   0.3665170   0.8520170  )
        57           Si  tau(  57) = (   0.7041720   0.8952570   0.8752630  )
        58           Si  tau(  58) = (   0.2489940   0.5281890   0.0311829  )
        59           Si  tau(  59) = (   0.1565520   0.8177110   0.0431883  )
        60           Si  tau(  60) = (   0.0904788   0.3728870   0.7952350  )
        61           Si  tau(  61) = (   0.2473320   0.0135412   0.0183631  )
        62           Si  tau(  62) = (   0.6932550   0.4772170   0.3111870  )
        63           Si  tau(  63) = (   0.0484706   0.5464190   0.9901600  )
        64           Si  tau(  64) = (   0.7313010   0.4861750   0.6794470  )

     number of k points=     1  Fermi-Dirac smearing, width (Ry)=  0.0100
                       cart. coord. in units 2pi/alat
        k(    1) = (   0.0000000   0.0000000   0.0000000), wk =   2.0000000

     Dense  grid:    93312 G-vectors     FFT dimensions: (  72,  72,  72)

     Estimated max dynamical RAM per process >     149.26 MB

     Estimated total dynamical RAM >     574.27 MB

     Initial potential from superposition of free atoms

     starting charge     255.9608, renormalised to     256.0000
     Starting wfcs are  256 randomized atomic wfcs

     total cpu time spent up to now is        4.5 secs

     Self-consistent Calculation

     iteration #  1     ecut=    30.00 Ry     beta= 0.50
     Davidson diagonalization with overlap
     ethr =  1.00E-02,  avg # of iterations =  3.0

     Threshold (ethr) on eigenvalues was too large:
     Diagonalizing with lowered threshold

     Davidson diagonalization with overlap
     ethr =  5.58E-04,  avg # of iterations =  4.0

     total cpu time spent up to now is        4.7 secs

     total energy              =    -500.40988326 Ry
     estimated scf accuracy    <       1.82079841 Ry

     iteration #  2     ecut=    30.00 Ry     beta= 0.50
     Davidson diagonalization with overlap
     ethr =  7.11E-04,  avg # of iterations =  5.0

     total cpu time spent up to now is        4.8 secs

     total energy              =    -499.56781965 Ry
     estimated scf accuracy    <      10.39016145 Ry

     iteration #  3     ecut=    30.00 Ry     beta= 0.50
     Davidson diagonalization with overlap
     ethr =  7.11E-04,  avg # of iterations =  4.0

     total cpu time spent up to now is        4.9 secs

     total energy              =    -500.53284570 Ry
     estimated scf accuracy    <       3.59863136 Ry

     iteration #  4     ecut=    30.00 Ry     beta= 0.50
     Davidson diagonalization with overlap
     ethr =  7.11E-04,  avg # of iterations =  2.0

     total cpu time spent up to now is        5.0 secs

     total energy              =    -500.75708170 Ry
     estimated scf accuracy    <       0.77046963 Ry

     iteration #  5     ecut=    30.00 Ry     beta= 0.50
     Davidson diagonalization with overlap
     ethr =  3.01E-04,  avg # of iterations =  2.0

     total cpu time spent up to now is        5.0 secs

     total energy              =    -500.80469615 Ry
     estimated scf accuracy    <       0.49346700 Ry

     iteration #  6     ecut=    30.00 Ry     beta= 0.50
     Davidson diagonalization with overlap
     ethr =  1.93E-04,  avg # of iterations =  2.0

     total cpu time spent up to now is        5.1 secs

     total energy              =    -500.85382340 Ry
     estimated scf accuracy    <       0.12426753 Ry

     iteration #  7     ecut=    30.00 Ry     beta= 0.50
     Davidson diagonalization with overlap
     ethr =  4.85E-05,  avg # of iterations =  2.0

     total cpu time spent up to now is        5.2 secs

     total energy              =    -500.86358092 Ry
     estimated scf accuracy    <       0.03302673 Ry

     iteration #  8     ecut=    30.00 Ry     beta= 0.50
     Davidson diagonalization with overlap
     ethr =  1.29E-05,  avg # of iterations = 14.0

     total cpu time spent up to now is        5.3 secs

     total energy              =    -500.86682030 Ry
     estimated scf accuracy    <       0.03796443 Ry

     iteration #  9     ecut=    30.00 Ry     beta= 0.50
     Davidson diagonalization with overlap
     ethr =  1.29E-05,  avg # of iterations =  2.0

     total cpu time spent up to now is        5.4 secs

     total energy              =    -500.86954541 Ry
     estimated scf accuracy    <       0.00343841 Ry

     iteration # 10     ecut=    30.00 Ry     beta= 0.50
     Davidson diagonalization with overlap
     ethr =  1.34E-06,  avg # of iterations = 13.0

     total cpu time spent up to now is        5.6 secs

     total energy              =    -500.86987126 Ry
     estimated scf accuracy    <       0.00381975 Ry

     iteration # 11     ecut=    30.00 Ry     beta= 0.50
     Davidson diagonalization with overlap
     ethr =  1.34E-06,  avg # of iterations =  2.0

     total cpu time spent up to now is        5.7 secs

     total energy              =    -500.87016924 Ry
     estimated scf accuracy    <       0.00095755 Ry

     iteration # 12     ecut=    30.00 Ry     beta= 0.50
     Davidson diagonalization with overlap
     ethr =  3.74E-07,  avg # of iterations =  2.0

     total cpu time spent up to now is        5.7 secs

     total energy              =    -500.87025721 Ry
     estimated scf accuracy    <       0.00058492 Ry

     iteration # 13     ecut=    30.00 Ry     beta= 0.50
     Davidson diagonalization with overlap
     ethr =  2.28E-07,  avg # of iterations =  2.0

     total cpu time spent up to now is        5.8 secs

     total energy              =    -500.87029278 Ry
     estimated scf accuracy    <       0.00039032 Ry

     iteration # 14     ecut=    30.00 Ry     beta= 0.50
     Davidson diagonalization with overlap
     ethr =  1.52E-07,  avg # of iterations =  1.0

     total cpu time spent up to now is        5.9 secs

     total energy              =    -500.87032406 Ry
     estimated scf accuracy    <       0.00004108 Ry

     iteration # 15     ecut=    30.00 Ry     beta= 0.50
     Davidson diagonalization with overlap
     ethr =  1.60E-08,  avg # of iterations =  3.0

     total cpu time spent up to now is        6.0 secs

     total energy              =    -500.87032814 Ry
     estimated scf accuracy    <       0.00003706 Ry

     iteration # 16     ecut=    30.00 Ry     beta= 0.50
     Davidson diagonalization with overlap
     ethr =  1.45E-08,  avg # of iterations =  2.0

     total cpu time spent up to now is        6.1 secs

     total energy              =    -500.87033081 Ry
     estimated scf accuracy    <       0.00002909 Ry

     iteration # 17     ecut=    30.00 Ry     beta= 0.50
     Davidson diagonalization with overlap
     ethr =  1.14E-08,  avg # of iterations =  1.0

     total cpu time spent up to now is        6.1 secs

     total energy              =    -500.87033273 Ry
     estimated scf accuracy    <       0.00000430 Ry

     iteration # 18     ecut=    30.00 Ry     beta= 0.50
     Davidson diagonalization with overlap
     ethr =  1.68E-09,  avg # of iterations =  3.0

     total cpu time spent up to now is        6.2 secs

     total energy              =    -500.87033316 Ry
     estimated scf accuracy    <       0.00000509 Ry

     iteration # 19     ecut=    30.00 Ry     beta= 0.50
     Davidson diagonalization with overlap
     ethr =  1.68E-09,  avg # of iterations =  2.0

     total cpu time spent up to now is        6.3 secs

     End of self-consistent calculation

          k = 0.0000 0.0000 0.0000 ( 11720 PWs)   bands (ev):

    -6.0766  -5.5097  -5.2112  -5.1156  -4.7907  -4.6471  -4.5258  -4.3060
    -4.1328  -4.0310  -3.9564  -3.7824  -3.6886  -3.5487  -3.4823  -3.3838
    -3.2841  -3.1915  -3.0798  -2.7501  -2.6684  -2.4296  -2.4084  -2.2832
    -2.2059  -2.1045  -1.7842  -1.4657  -1.4502  -1.3108  -1.2226  -1.0491
    -0.9105  -0.8344  -0.6700  -0.6403  -0.5441  -0.4794  -0.3723  -0.2866
    -0.2103  -0.1490  -0.0419   0.0816   0.1777   0.2092   0.3115   0.3798
     0.5398   0.7416   0.7715   0.8198   0.9573   1.0738   1.1593   1.1975
     1.3366   1.4979   1.5429   1.6137   1.6534   1.9325   2.0871   2.1671
     2.2825   2.3146   2.4032   2.4923   2.5819   2.6135   2.7303   2.7442
     2.8443   2.8747   3.0010   3.0741   3.1223   3.2402   3.3426   3.3811
     3.4792   3.5961   3.6912   3.7678   3.9304   3.9722   4.0092   4.0658
     4.1326   4.2452   4.3265   4.3406   4.5256   4.5646   4.6294   4.7065
     4.7229   4.7792   4.8579   4.9287   4.9712   5.1341   5.1949   5.2934
     5.3269   5.3773   5.4374   5.4542   5.4937   5.5469   5.6022   5.6964
     5.7933   5.8060   5.8756   6.0473   6.0987   6.1384   6.1909   6.2282
     6.2797   6.3505   6.4278   6.5245   6.5254   6.5524   6.6196   6.6441
     6.7796   6.8107   6.8399   6.9672   6.9826   7.0625   7.0721   7.1411
     7.2126   7.2802   7.3655   7.4049   7.4347   7.5226   7.5787   7.6807
     7.7872   7.8341   7.8920   7.9222   8.0319   8.0394   8.1382   8.2524
     8.3083   8.3763

     the Fermi energy is     6.7222 ev

!    total energy              =    -500.87033309 Ry
     estimated scf accuracy    <       0.00000064 Ry
     smearing contrib. (-TS)   =      -0.15468851 Ry
     internal energy E=F+TS    =    -500.71564458 Ry

     The total energy is F=E-TS. E is the sum of the following terms:
     one-electron contribution =     146.37837456 Ry
     hartree contribution      =      40.86426412 Ry
     xc contribution           =    -151.76290822 Ry
     ewald contribution        =    -536.19537504 Ry

     convergence has been achieved in  19 iterations

     Forces acting on atoms (cartesian axes, Ry/au):

     atom    1 type  1   force =    -0.02671069   -0.00073519    0.01138916
     atom    2 type  1   force =     0.00954928   -0.04916139   -0.04118642
     atom    3 type  1   force =    -0.02652195    0.00276350   -0.00252908
     atom    4 type  1   force =     0.02528051   -0.00151411    0.06834765
     atom    5 type  1   force =    -0.03563838    0.03764381   -0.07014871
     atom    6 type  1   force =    -0.02489145   -0.03126878   -0.06604537
     atom    7 type  1   force =    -0.09250362    0.00171384   -0.02251839
     atom    8 type  1   force =    -0.06881984    0.00468495    0.03656805
     atom    9 type  1   force =    -0.05206524   -0.02679382    0.09342547
     atom   10 type  1   force =     0.02313889   -0.00963971   -0.02118775
     atom   11 type  1   force =     0.01997147    0.00603201   -0.01051575
     atom   12 type  1   force =    -0.03577660    0.02446982   -0.06448388
     atom   13 type  1   force =     0.02412531   -0.00483805    0.03363898
     atom   14 type  1   force =    -0.00160719    0.04577003   -0.03246919
     atom   15 type  1   force =     0.00932681    0.01886099    0.00442695
     atom   16 type  1   force =    -0.05644173    0.01602380    0.03560462
     atom   17 type  1   force =     0.02907714    0.03579774   -0.02559543
     atom   18 type  1   force =    -0.00133790   -0.06652450   -0.08982564
     atom   19 type  1   force =    -0.00231994   -0.06070629    0.05241643
     atom   20 type  1   force =    -0.01211449    0.00835271   -0.01063315
     atom   21 type  1   force =    -0.02505416   -0.05814977   -0.07085553
     atom   22 type  1   force =    -0.02007361    0.02651378   -0.01266582
     atom   23 type  1   force =     0.02925637   -0.00103750    0.04517016
     atom   24 type  1   force =    -0.00994507   -0.00372142    0.00829845
     atom   25 type  1   force =     0.10259857    0.00679451   -0.00756130
     atom   26 type  1   force =     0.01065736   -0.03761569    0.08053617
     atom   27 type  1   force =    -0.06909225   -0.04329484   -0.02760239
     atom   28 type  1   force =     0.04852120   -0.02566502    0.05031386
     atom   29 type  1   force =     0.04903446   -0.02359572    0.00704206
     atom   30 type  1   force =     0.00043140   -0.00509382    0.01733061
     atom   31 type  1   force =     0.01499369    0.00743446   -0.04908917
     atom   32 type  1   force =     0.00043062   -0.02199682    0.01582244
     atom   33 type  1   force =     0.02913678   -0.01022719   -0.01256216
     atom   34 type  1   force =     0.02759995    0.01693925   -0.04961221
     atom   35 type  1   force =     0.05900103    0.08128032    0.01347225
     atom   36 type  1   force =     0.00511997   -0.01197577   -0.00394668
     atom   37 type  1   force =    -0.02178401   -0.00191607   -0.01583405
     atom   38 type  1   force =     0.12346060    0.06305433   -0.09729533
     atom   39 type  1   force =    -0.02058723   -0.02472406   -0.01703134
     atom   40 type  1   force =    -0.01233122    0.00321265   -0.00017255
     atom   41 type  1   force =     0.03357238    0.02722621   -0.01165230
     atom   42 type  1   force =    -0.01971138    0.01280125   -0.06265509
     atom   43 type  1   force =     0.04101359    0.03771399    0.02558468
     atom   44 type  1   force =    -0.02102937    0.06122078   -0.00545055
     atom   45 type  1   force =    -0.00392304    0.02977781    0.04410633
     atom   46 type  1   force =     0.02422087   -0.01422595    0.03915787
     atom   47 type  1   force =    -0.01328572    0.04727985   -0.01355153
     atom   48 type  1   force =    -0.05613096   -0.04911091    0.00900029
     atom   49 type  1   force =     0.01872134    0.01279772    0.00715656
     atom   50 type  1   force =     0.00134465    0.01896929    0.00093596
     atom   51 type  1   force =     0.00716590    0.00485886    0.00363427
     atom   52 type  1   force =    -0.00458347   -0.02855222    0.01266171
     atom   53 type  1   force =    -0.12602287   -0.06359613    0.06410900
     atom   54 type  1   force =     0.07171992    0.03265487    0.06389837
     atom   55 type  1   force =    -0.05301810   -0.02694956   -0.00722311
     atom   56 type  1   force =     0.02403676    0.03706850    0.02385035
     atom   57 type  1   force =    -0.02709309   -0.01795806    0.00182467
     atom   58 type  1   force =     0.06013803   -0.04474090    0.00833232
     atom   59 type  1   force =    -0.02209188   -0.01441891    0.00134565
     atom   60 type  1   force =    -0.01615189   -0.00850011   -0.00961160
     atom   61 type  1   force =     0.01847089    0.03674979    0.00886167
     atom   62 type  1   force =     0.05800297    0.01235426    0.02351119
     atom   63 type  1   force =    -0.03496069   -0.01945054    0.01365079
     atom   64 type  1   force =     0.01450033    0.02888312    0.00608647

     Total force =     0.525686     Total SCF correction =     0.001480


     Computing stress (Cartesian axis) and pressure

          total   stress  (Ry/bohr**3)                   (kbar)     P=       11.67
   0.00016490   0.00010010  -0.00006110           24.26       14.73       -8.99
   0.00010010  -0.00014500   0.00001407           14.73      -21.33        2.07
  -0.00006110   0.00001407   0.00021809           -8.99        2.07       32.08

 
     init_run     :      0.91s CPU      4.40s WALL (       1 calls)
     electrons    :      1.70s CPU      1.84s WALL (       1 calls)
     forces       :      0.03s CPU      0.03s WALL (       1 calls)
     stress       :      0.14s CPU      0.14s WALL (       1 calls)

     Called by init_run:
     wfcinit      :      0.40s CPU      3.73s WALL (       1 calls)
                                        3.73s GPU  (       1 calls)
     potinit      :      0.03s CPU      0.12s WALL (       1 calls)
     hinit0       :      0.46s CPU      0.48s WALL (       1 calls)

     Called by electrons:
     c_bands      :      1.11s CPU      1.16s WALL (      20 calls)
     sum_band     :      0.32s CPU      0.36s WALL (      20 calls)
     v_of_rho     :      0.11s CPU      0.22s WALL (      20 calls)
     mix_rho      :      0.15s CPU      0.16s WALL (      20 calls)

     Called by c_bands:
     init_us_2    :      0.05s CPU      0.05s WALL (      41 calls)
     init_us_2:gp :      0.05s CPU      0.05s WALL (      41 calls)
     regterg      :      0.97s CPU      1.02s WALL (      20 calls)

     Called by *egterg:
     rdiaghg      :      0.40s CPU      1.08s WALL (      90 calls)
                                        1.06s GPU  (      90 calls)
     h_psi        :      0.80s CPU      3.49s WALL (      92 calls)
                                        3.49s GPU  (      92 calls)
     g_psi        :      0.00s CPU      0.00s WALL (      71 calls)
                                        0.00s GPU  (      71 calls)

     Called by h_psi:
     h_psi:calbec :      0.38s CPU      3.00s WALL (      92 calls)
                                        3.00s GPU  (      92 calls)
     vloc_psi     :      0.36s CPU      0.42s WALL (      92 calls)
                                        0.42s GPU  (      92 calls)
     add_vuspsi   :      0.03s CPU      0.05s WALL (      92 calls)
                                        0.05s GPU  (      92 calls)

     General routines
     calbec       :      0.38s CPU      3.01s WALL (      97 calls)
     fft          :      0.56s CPU      0.68s WALL (     167 calls)
                                        0.12s GPU  (     106 calls)
     ffts         :      0.03s CPU      0.04s WALL (      20 calls)
     fftw         :      0.45s CPU      0.58s WALL (    2100 calls)
                                        0.51s GPU  (    2100 calls)
 
     Parallel routines
 
     PWSCF        :      2.82s CPU      6.49s WALL

 
   This run was terminated on:   9:56:59  11May2023            

=------------------------------------------------------------------------------=
   JOB DONE.
=------------------------------------------------------------------------------=
