An instance of this daemon is already running
An instance of this daemon is already running

     Program PWSCF v.7.1 starts on 11May2023 at  9:58:20 

     This program is part of the open-source Quantum ESPRESSO suite
     for quantum simulation of materials; please cite
         "P. Giannozzi et al., J. Phys.:Condens. Matter 21 395502 (2009);
         "P. Giannozzi et al., J. Phys.:Condens. Matter 29 465901 (2017);
         "P. Giannozzi et al., J. Chem. Phys. 152 154105 (2020);
          URL http://www.quantum-espresso.org", 
     in publications or presentations arising from this work. More details at
     http://www.quantum-espresso.org/quote

     Parallel version (MPI & OpenMP), running on       4 processor cores
     Number of MPI processes:                 4
     Threads/MPI process:                     1

     MPI processes distributed on     1 nodes
     259155 MiB available memory on the printing compute node when the environment starts
 
     Reading input from pw-si-95.in
Warning: card &CELL ignored
Warning: card / ignored

     Current dimensions of program PWSCF are:
     Max number of different atomic species (ntypx) = 10
     Max number of k-points (npk) =  40000
     Max angular momentum in pseudopotentials (lmaxx) =  4

     IMPORTANT: XC functional enforced from input :
     Exchange-correlation= PBE
                           (   1   4   3   4   0   0   0)
     Any further DFT definition will be discarded
     Please, verify this is what you really want


     gamma-point specific algorithms are used
 
     K-points division:     npool     =       2
     R & G space division:  proc/nbgrp/npool/nimage =       2
     Subspace diagonalization in iterative solution of the eigenvalue problem:
     a serial algorithm will be used

     Message from routine divide_et_impera:
     suboptimal parallelization: some nodes have no k-points
 
     Parallelization info
     --------------------
     sticks:   dense  smooth     PW     G-vecs:    dense   smooth      PW
     Min        1991    1991    524                94089    94089   12836
     Max        1994    1994    525                94094    94094   12841
     Sum        3985    3985   1049               188183   188183   25677
 
     Using Slab Decomposition
 


     bravais-lattice index     =            0
     lattice parameter (alat)  =      20.3921  a.u.
     unit-cell volume          =    8479.7661 (a.u.)^3
     number of atoms/cell      =           64
     number of atomic types    =            1
     number of electrons       =       256.00
     number of Kohn-Sham states=          154
     kinetic-energy cutoff     =      30.0000  Ry
     charge density cutoff     =     120.0000  Ry
     scf convergence threshold =      1.0E-06
     mixing beta               =       0.5000
     number of iterations used =            8  plain     mixing
     Exchange-correlation= PBE
                           (   1   4   3   4   0   0   0)

     GPU acceleration is ACTIVE.
     GPU-aware MPI enabled

     Message from routine print_cuda_info:
     High GPU oversubscription detected. Are you sure this is what you want?

     celldm(1)=  20.392069  celldm(2)=   0.000000  celldm(3)=   0.000000
     celldm(4)=   0.000000  celldm(5)=   0.000000  celldm(6)=   0.000000

     crystal axes: (cart. coord. in units of alat)
               a(1) = (   1.000000   0.000000   0.000000 )  
               a(2) = (   0.000000   1.000000   0.000000 )  
               a(3) = (   0.000000   0.000000   1.000000 )  

     reciprocal axes: (cart. coord. in units 2 pi/alat)
               b(1) = (  1.000000  0.000000  0.000000 )  
               b(2) = (  0.000000  1.000000  0.000000 )  
               b(3) = (  0.000000  0.000000  1.000000 )  


     PseudoPot. # 1 for Si read from file:
     /home/ppiaggi/pseudos/Si_ONCV_PBE_sr.upf
     MD5 check sum: 8553c464762ac42b85b1eed164b4d029
     Pseudo is Norm-conserving, Zval =  4.0
     Generated using ONCVPSP code by D. R. Hamann
     Using radial grid of 1510 points,  4 beta functions with: 
                l(1) =   0
                l(2) =   0
                l(3) =   1
                l(4) =   1

     atomic species   valence    mass     pseudopotential
        Si             4.00    28.08500     Si( 1.00)

     No symmetry found



   Cartesian axes

     site n.     atom                  positions (alat units)
         1           Si  tau(   1) = (   0.1078810   0.2627330   0.5411140  )
         2           Si  tau(   2) = (   0.2827030   0.8556420   0.4555440  )
         3           Si  tau(   3) = (   0.6545270   0.3320120   0.8546140  )
         4           Si  tau(   4) = (   0.5354860   0.1080460   0.0505901  )
         5           Si  tau(   5) = (   0.3776790   0.2036200   0.9330480  )
         6           Si  tau(   6) = (   0.2545360   0.0032422   0.2794840  )
         7           Si  tau(   7) = (   0.2236560   0.1039970   0.5718490  )
         8           Si  tau(   8) = (   0.6609470   0.2239160   0.1791520  )
         9           Si  tau(   9) = (   0.5315420   0.9353320   0.7342940  )
        10           Si  tau(  10) = (   0.0180835   0.1576850   0.3533770  )
        11           Si  tau(  11) = (   0.1612320   0.4856900   0.4068920  )
        12           Si  tau(  12) = (   0.8589640   0.6781490   0.9975260  )
        13           Si  tau(  13) = (   0.7257520   0.6793290   0.8347030  )
        14           Si  tau(  14) = (   0.8637560   0.3086700   0.4600860  )
        15           Si  tau(  15) = (   0.4278590   0.7487770   0.7556610  )
        16           Si  tau(  16) = (   0.3293490   0.5850060   0.5029630  )
        17           Si  tau(  17) = (   0.5891870   0.6051390   0.9784390  )
        18           Si  tau(  18) = (   0.9992160   0.0546323   0.0847967  )
        19           Si  tau(  19) = (   0.5164470   0.3757960   0.4532480  )
        20           Si  tau(  20) = (   0.9611090   0.3634440   0.1695280  )
        21           Si  tau(  21) = (   0.5987080   0.9750270   0.5410850  )
        22           Si  tau(  22) = (   0.9164900   0.8315880   0.7736350  )
        23           Si  tau(  23) = (   0.9621860   0.2522590   0.7159540  )
        24           Si  tau(  24) = (   0.5611700   0.7475610   0.1438800  )
        25           Si  tau(  25) = (   0.8854290   0.0171545   0.2482380  )
        26           Si  tau(  26) = (   0.8773150   0.5744360   0.2033810  )
        27           Si  tau(  27) = (   0.6329600   0.9592620   0.2053680  )
        28           Si  tau(  28) = (   0.1346210   0.1990430   0.1788610  )
        29           Si  tau(  29) = (   0.4765220   0.9990070   0.3563190  )
        30           Si  tau(  30) = (   0.9410810   0.7624770   0.5542010  )
        31           Si  tau(  31) = (   0.5043180   0.4203000   0.9635720  )
        32           Si  tau(  32) = (   0.1527040   0.6556840   0.1806310  )
        33           Si  tau(  33) = (   0.2827510   0.8186940   0.9093370  )
        34           Si  tau(  34) = (   0.0727756   0.6808800   0.7755450  )
        35           Si  tau(  35) = (   0.7131360   0.7756450   0.5074920  )
        36           Si  tau(  36) = (   0.1074700   0.7063860   0.4624190  )
        37           Si  tau(  37) = (   0.2301300   0.8179360   0.6799280  )
        38           Si  tau(  38) = (   0.1105940   0.9146090   0.8414630  )
        39           Si  tau(  39) = (   0.5826480   0.6140370   0.5823780  )
        40           Si  tau(  40) = (   0.0356755   0.9819490   0.4929830  )
        41           Si  tau(  41) = (   0.8978420   0.1144610   0.8800770  )
        42           Si  tau(  42) = (   0.5859280   0.6586440   0.3775540  )
        43           Si  tau(  43) = (   0.2479480   0.3546040   0.2500480  )
        44           Si  tau(  44) = (   0.7892990   0.2579000   0.0061199  )
        45           Si  tau(  45) = (   0.0670499   0.8314950   0.2859140  )
        46           Si  tau(  46) = (   0.8112950   0.1070920   0.5396750  )
        47           Si  tau(  47) = (   0.3535250   0.2466030   0.4113150  )
        48           Si  tau(  48) = (   0.4975150   0.4061850   0.2524990  )
        49           Si  tau(  49) = (   0.4745590   0.2911280   0.6513580  )
        50           Si  tau(  50) = (   0.9112120   0.5205540   0.5398880  )
        51           Si  tau(  51) = (   0.3892570   0.5065000   0.7004640  )
        52           Si  tau(  52) = (   0.7103290   0.2408970   0.6507190  )
        53           Si  tau(  53) = (   0.7348600   0.8701110   0.0522654  )
        54           Si  tau(  54) = (   0.3881620   0.1053060   0.7360140  )
        55           Si  tau(  55) = (   0.3715020   0.6147830   0.1472450  )
        56           Si  tau(  56) = (   0.2107890   0.3917500   0.8551210  )
        57           Si  tau(  57) = (   0.7398190   0.9771140   0.8546390  )
        58           Si  tau(  58) = (   0.3171070   0.4176790   0.0607873  )
        59           Si  tau(  59) = (   0.1566010   0.8851750   0.0893034  )
        60           Si  tau(  60) = (   0.0771069   0.4485770   0.6991480  )
        61           Si  tau(  61) = (   0.3232080   0.0069709   0.0358611  )
        62           Si  tau(  62) = (   0.7312380   0.4170590   0.3299530  )
        63           Si  tau(  63) = (   0.0591039   0.5319320   0.9839590  )
        64           Si  tau(  64) = (   0.7283700   0.4816070   0.7143890  )

     number of k points=     1  Fermi-Dirac smearing, width (Ry)=  0.0100
                       cart. coord. in units 2pi/alat
        k(    1) = (   0.0000000   0.0000000   0.0000000), wk =   2.0000000

     Dense  grid:    94092 G-vectors     FFT dimensions: (  72,  72,  72)

     Estimated max dynamical RAM per process >     150.46 MB

     Estimated total dynamical RAM >     578.88 MB

     Initial potential from superposition of free atoms

     starting charge     255.9608, renormalised to     256.0000
     Starting wfcs are  256 randomized atomic wfcs

     total cpu time spent up to now is        4.3 secs

     Self-consistent Calculation

     iteration #  1     ecut=    30.00 Ry     beta= 0.50
     Davidson diagonalization with overlap
     ethr =  1.00E-02,  avg # of iterations =  3.0

     Threshold (ethr) on eigenvalues was too large:
     Diagonalizing with lowered threshold

     Davidson diagonalization with overlap
     ethr =  5.26E-04,  avg # of iterations =  4.0

     total cpu time spent up to now is        4.5 secs

     total energy              =    -500.76352409 Ry
     estimated scf accuracy    <       1.69191489 Ry

     iteration #  2     ecut=    30.00 Ry     beta= 0.50
     Davidson diagonalization with overlap
     ethr =  6.61E-04,  avg # of iterations =  3.0

     total cpu time spent up to now is        4.6 secs

     total energy              =    -500.51436205 Ry
     estimated scf accuracy    <       3.17189849 Ry

     iteration #  3     ecut=    30.00 Ry     beta= 0.50
     Davidson diagonalization with overlap
     ethr =  6.61E-04,  avg # of iterations =  3.0

     total cpu time spent up to now is        4.7 secs

     total energy              =    -500.77952138 Ry
     estimated scf accuracy    <       3.10709424 Ry

     iteration #  4     ecut=    30.00 Ry     beta= 0.50
     Davidson diagonalization with overlap
     ethr =  6.61E-04,  avg # of iterations =  2.0

     total cpu time spent up to now is        4.8 secs

     total energy              =    -501.01456130 Ry
     estimated scf accuracy    <       0.99445816 Ry

     iteration #  5     ecut=    30.00 Ry     beta= 0.50
     Davidson diagonalization with overlap
     ethr =  3.88E-04,  avg # of iterations =  2.0

     total cpu time spent up to now is        4.9 secs

     total energy              =    -501.07996161 Ry
     estimated scf accuracy    <       0.32296283 Ry

     iteration #  6     ecut=    30.00 Ry     beta= 0.50
     Davidson diagonalization with overlap
     ethr =  1.26E-04,  avg # of iterations =  2.0

     total cpu time spent up to now is        4.9 secs

     total energy              =    -501.11695301 Ry
     estimated scf accuracy    <       0.15317072 Ry

     iteration #  7     ecut=    30.00 Ry     beta= 0.50
     Davidson diagonalization with overlap
     ethr =  5.98E-05,  avg # of iterations =  2.0

     total cpu time spent up to now is        5.0 secs

     total energy              =    -501.13001134 Ry
     estimated scf accuracy    <       0.00809323 Ry

     iteration #  8     ecut=    30.00 Ry     beta= 0.50
     Davidson diagonalization with overlap
     ethr =  3.16E-06,  avg # of iterations = 11.0

     total cpu time spent up to now is        5.2 secs

     total energy              =    -501.13000302 Ry
     estimated scf accuracy    <       0.03259696 Ry

     iteration #  9     ecut=    30.00 Ry     beta= 0.50
     Davidson diagonalization with overlap
     ethr =  3.16E-06,  avg # of iterations =  3.0

     total cpu time spent up to now is        5.3 secs

     total energy              =    -501.13260193 Ry
     estimated scf accuracy    <       0.00379077 Ry

     iteration # 10     ecut=    30.00 Ry     beta= 0.50
     Davidson diagonalization with overlap
     ethr =  1.48E-06,  avg # of iterations =  2.0

     total cpu time spent up to now is        5.3 secs

     total energy              =    -501.13288342 Ry
     estimated scf accuracy    <       0.00176714 Ry

     iteration # 11     ecut=    30.00 Ry     beta= 0.50
     Davidson diagonalization with overlap
     ethr =  6.90E-07,  avg # of iterations =  2.0

     total cpu time spent up to now is        5.4 secs

     total energy              =    -501.13298608 Ry
     estimated scf accuracy    <       0.00142626 Ry

     iteration # 12     ecut=    30.00 Ry     beta= 0.50
     Davidson diagonalization with overlap
     ethr =  5.57E-07,  avg # of iterations =  2.0

     total cpu time spent up to now is        5.5 secs

     total energy              =    -501.13310696 Ry
     estimated scf accuracy    <       0.00016710 Ry

     iteration # 13     ecut=    30.00 Ry     beta= 0.50
     Davidson diagonalization with overlap
     ethr =  6.53E-08,  avg # of iterations =  4.0

     total cpu time spent up to now is        5.6 secs

     total energy              =    -501.13312199 Ry
     estimated scf accuracy    <       0.00016776 Ry

     iteration # 14     ecut=    30.00 Ry     beta= 0.50
     Davidson diagonalization with overlap
     ethr =  6.53E-08,  avg # of iterations =  2.0

     total cpu time spent up to now is        5.7 secs

     total energy              =    -501.13313457 Ry
     estimated scf accuracy    <       0.00003225 Ry

     iteration # 15     ecut=    30.00 Ry     beta= 0.50
     Davidson diagonalization with overlap
     ethr =  1.26E-08,  avg # of iterations =  2.0

     total cpu time spent up to now is        5.8 secs

     total energy              =    -501.13313617 Ry
     estimated scf accuracy    <       0.00001412 Ry

     iteration # 16     ecut=    30.00 Ry     beta= 0.50
     Davidson diagonalization with overlap
     ethr =  5.51E-09,  avg # of iterations =  3.0

     total cpu time spent up to now is        5.9 secs

     total energy              =    -501.13313801 Ry
     estimated scf accuracy    <       0.00001743 Ry

     iteration # 17     ecut=    30.00 Ry     beta= 0.50
     Davidson diagonalization with overlap
     ethr =  5.51E-09,  avg # of iterations =  2.0

     total cpu time spent up to now is        5.9 secs

     total energy              =    -501.13313899 Ry
     estimated scf accuracy    <       0.00000128 Ry

     iteration # 18     ecut=    30.00 Ry     beta= 0.50
     Davidson diagonalization with overlap
     ethr =  5.02E-10,  avg # of iterations =  5.0

     total cpu time spent up to now is        6.0 secs

     total energy              =    -501.13313915 Ry
     estimated scf accuracy    <       0.00000131 Ry

     iteration # 19     ecut=    30.00 Ry     beta= 0.50
     Davidson diagonalization with overlap
     ethr =  5.02E-10,  avg # of iterations =  2.0

     total cpu time spent up to now is        6.1 secs

     End of self-consistent calculation

          k = 0.0000 0.0000 0.0000 ( 11792 PWs)   bands (ev):

    -6.0394  -5.3982  -5.2102  -5.0247  -4.8729  -4.6910  -4.5204  -4.3557
    -4.2009  -4.0614  -3.9460  -3.8567  -3.7390  -3.6220  -3.5672  -3.3954
    -3.2573  -3.2482  -3.1175  -2.8642  -2.7519  -2.5456  -2.3804  -2.1770
    -2.0562  -1.9944  -1.8041  -1.6312  -1.5125  -1.3919  -1.3232  -1.1003
    -1.0496  -0.8537  -0.7835  -0.6948  -0.6189  -0.4937  -0.3228  -0.2852
    -0.2534  -0.0359  -0.0227   0.0941   0.1139   0.2961   0.3625   0.5267
     0.5616   0.5859   0.6903   0.8539   0.9289   1.0087   1.1000   1.1846
     1.3317   1.4860   1.5590   1.6257   1.7034   1.8662   1.9127   2.0966
     2.1066   2.2574   2.3332   2.3850   2.4779   2.5025   2.6713   2.7543
     2.7779   2.8390   2.8786   2.8936   3.0533   3.0992   3.3333   3.4056
     3.4158   3.5334   3.6337   3.8048   3.8907   3.9608   3.9884   4.0456
     4.0932   4.1871   4.2291   4.2629   4.3549   4.3939   4.4889   4.5990
     4.6301   4.6801   4.7589   4.8561   4.8907   4.9385   5.0671   5.0802
     5.0870   5.1686   5.2284   5.3553   5.3860   5.4571   5.5103   5.5896
     5.6170   5.6684   5.6973   5.8669   5.9213   5.9417   5.9852   6.1097
     6.1835   6.2367   6.3012   6.3447   6.3943   6.4652   6.5480   6.6381
     6.6712   6.7110   6.7489   6.8814   6.9472   6.9891   7.0948   7.1730
     7.2052   7.2227   7.2747   7.3567   7.4046   7.4530   7.4766   7.5930
     7.6117   7.6824   7.8373   7.8555   7.8837   7.9180   8.0177   8.1100
     8.1384   8.2860

     the Fermi energy is     6.6371 ev

!    total energy              =    -501.13313901 Ry
     estimated scf accuracy    <       0.00000037 Ry
     smearing contrib. (-TS)   =      -0.13968279 Ry
     internal energy E=F+TS    =    -500.99345623 Ry

     The total energy is F=E-TS. E is the sum of the following terms:
     one-electron contribution =     149.70755042 Ry
     hartree contribution      =      38.36293524 Ry
     xc contribution           =    -151.41497789 Ry
     ewald contribution        =    -537.64896399 Ry

     convergence has been achieved in  19 iterations

     Forces acting on atoms (cartesian axes, Ry/au):

     atom    1 type  1   force =    -0.05392648    0.09781799   -0.02167674
     atom    2 type  1   force =     0.01421369   -0.01145010    0.03067468
     atom    3 type  1   force =     0.01718352   -0.03188022   -0.03614433
     atom    4 type  1   force =     0.00489956   -0.03080237   -0.01787135
     atom    5 type  1   force =    -0.03688409    0.01780302   -0.00096914
     atom    6 type  1   force =    -0.00510363    0.00861597   -0.01273215
     atom    7 type  1   force =     0.06080984   -0.09935028    0.00647711
     atom    8 type  1   force =     0.00900194    0.01586498    0.03409741
     atom    9 type  1   force =     0.02320157    0.04143003    0.03219099
     atom   10 type  1   force =    -0.01316627    0.03537709    0.04115536
     atom   11 type  1   force =    -0.02532242    0.01007362   -0.00425096
     atom   12 type  1   force =     0.04019701   -0.01542652    0.04334544
     atom   13 type  1   force =     0.00122180   -0.02012697   -0.05833942
     atom   14 type  1   force =     0.03005593   -0.00257250   -0.00653502
     atom   15 type  1   force =     0.00108994   -0.04535741   -0.00498003
     atom   16 type  1   force =     0.02043396    0.01071853   -0.01528404
     atom   17 type  1   force =     0.00869425    0.06302902    0.01984817
     atom   18 type  1   force =     0.03598765   -0.00392327   -0.10881647
     atom   19 type  1   force =     0.03570429    0.03195389    0.07785515
     atom   20 type  1   force =    -0.02728064    0.00709951   -0.04303113
     atom   21 type  1   force =     0.05151872   -0.00374935   -0.05286322
     atom   22 type  1   force =    -0.03302511   -0.00213955   -0.00976463
     atom   23 type  1   force =    -0.02206951    0.00596784   -0.00674951
     atom   24 type  1   force =    -0.03946126   -0.01651446    0.02505512
     atom   25 type  1   force =    -0.08506869   -0.04840417    0.05826557
     atom   26 type  1   force =     0.01304767   -0.01314574    0.01588593
     atom   27 type  1   force =    -0.00189016    0.04155576    0.03373785
     atom   28 type  1   force =    -0.02125592   -0.03305804   -0.01818319
     atom   29 type  1   force =    -0.01676078    0.00380666    0.02509828
     atom   30 type  1   force =    -0.12071521    0.03758822    0.06585002
     atom   31 type  1   force =    -0.04110895   -0.02892183    0.00630716
     atom   32 type  1   force =    -0.01221960   -0.01742229   -0.02009811
     atom   33 type  1   force =     0.02952843   -0.02233172    0.05243579
     atom   34 type  1   force =     0.01710323   -0.04490746    0.01926833
     atom   35 type  1   force =     0.02033415    0.03415900    0.00362772
     atom   36 type  1   force =     0.10328729   -0.05487050   -0.05775024
     atom   37 type  1   force =     0.00671516   -0.00091107   -0.04720974
     atom   38 type  1   force =    -0.03444060    0.03555334   -0.01111153
     atom   39 type  1   force =    -0.01314523   -0.04242061    0.07852491
     atom   40 type  1   force =     0.00380422    0.00393140    0.00907435
     atom   41 type  1   force =     0.03804821    0.01993422    0.03775300
     atom   42 type  1   force =     0.00122867   -0.01021099   -0.09288836
     atom   43 type  1   force =     0.03452684    0.02221301    0.03741507
     atom   44 type  1   force =     0.03271047    0.00552368    0.03098818
     atom   45 type  1   force =    -0.02188718    0.04308511    0.02363955
     atom   46 type  1   force =     0.01802164   -0.07968322   -0.02529371
     atom   47 type  1   force =    -0.00758309   -0.06560157    0.00513222
     atom   48 type  1   force =    -0.00886304    0.01060398   -0.06876517
     atom   49 type  1   force =     0.02644514    0.01504340   -0.00670611
     atom   50 type  1   force =     0.00314111   -0.01039000    0.03484450
     atom   51 type  1   force =     0.00238588   -0.00395269    0.01297644
     atom   52 type  1   force =    -0.03796866    0.06588201    0.05435098
     atom   53 type  1   force =     0.04819167   -0.02437976   -0.06416056
     atom   54 type  1   force =    -0.01415570   -0.00454258   -0.01683830
     atom   55 type  1   force =     0.01038347    0.02719353    0.01572415
     atom   56 type  1   force =     0.03790820    0.00582070    0.03355697
     atom   57 type  1   force =    -0.03929814   -0.04354928   -0.00594066
     atom   58 type  1   force =    -0.02176407    0.01093969   -0.03695160
     atom   59 type  1   force =    -0.04382096   -0.02201015   -0.00164241
     atom   60 type  1   force =    -0.03740652    0.00366905   -0.03709771
     atom   61 type  1   force =     0.04482406    0.02742873   -0.00178088
     atom   62 type  1   force =    -0.02523242    0.03138779   -0.03259698
     atom   63 type  1   force =    -0.00102217    0.02107881    0.02018688
     atom   64 type  1   force =     0.01599736    0.04185710   -0.04031986

     Total force =     0.503140     Total SCF correction =     0.001146


     Computing stress (Cartesian axis) and pressure

          total   stress  (Ry/bohr**3)                   (kbar)     P=        1.89
  -0.00004916  -0.00001137  -0.00004235           -7.23       -1.67       -6.23
  -0.00001137  -0.00001741   0.00000622           -1.67       -2.56        0.92
  -0.00004235   0.00000622   0.00010506           -6.23        0.92       15.45

 
     init_run     :      1.52s CPU      4.26s WALL (       1 calls)
     electrons    :      1.64s CPU      1.79s WALL (       1 calls)
     forces       :      0.03s CPU      0.03s WALL (       1 calls)
     stress       :      0.14s CPU      0.14s WALL (       1 calls)

     Called by init_run:
     wfcinit      :      1.01s CPU      3.59s WALL (       1 calls)
                                        3.59s GPU  (       1 calls)
     potinit      :      0.04s CPU      0.12s WALL (       1 calls)
     hinit0       :      0.45s CPU      0.48s WALL (       1 calls)

     Called by electrons:
     c_bands      :      1.04s CPU      1.12s WALL (      20 calls)
     sum_band     :      0.31s CPU      0.35s WALL (      20 calls)
     v_of_rho     :      0.12s CPU      0.22s WALL (      20 calls)
     mix_rho      :      0.14s CPU      0.16s WALL (      20 calls)

     Called by c_bands:
     init_us_2    :      0.05s CPU      0.06s WALL (      41 calls)
     init_us_2:gp :      0.05s CPU      0.05s WALL (      41 calls)
     regterg      :      0.90s CPU      0.97s WALL (      20 calls)

     Called by *egterg:
     rdiaghg      :      0.35s CPU      0.86s WALL (      80 calls)
                                        0.85s GPU  (      80 calls)
     h_psi        :      1.39s CPU      3.51s WALL (      82 calls)
                                        3.50s GPU  (      82 calls)
     g_psi        :      0.00s CPU      0.00s WALL (      61 calls)
                                        0.00s GPU  (      61 calls)

     Called by h_psi:
     h_psi:calbec :      0.99s CPU      3.03s WALL (      82 calls)
                                        3.03s GPU  (      82 calls)
     vloc_psi     :      0.36s CPU      0.42s WALL (      82 calls)
                                        0.42s GPU  (      82 calls)
     add_vuspsi   :      0.03s CPU      0.05s WALL (      82 calls)
                                        0.04s GPU  (      82 calls)

     General routines
     calbec       :      0.99s CPU      3.03s WALL (      87 calls)
     fft          :      0.56s CPU      0.68s WALL (     167 calls)
                                        0.12s GPU  (     106 calls)
     ffts         :      0.03s CPU      0.04s WALL (      20 calls)
     fftw         :      0.44s CPU      0.58s WALL (    2086 calls)
                                        0.51s GPU  (    2086 calls)
 
     Parallel routines
 
     PWSCF        :      3.37s CPU      6.30s WALL

 
   This run was terminated on:   9:58:26  11May2023            

=------------------------------------------------------------------------------=
   JOB DONE.
=------------------------------------------------------------------------------=
