An instance of this daemon is already running

     Program PWSCF v.7.1 starts on 11May2023 at  9:45:32 

     This program is part of the open-source Quantum ESPRESSO suite
     for quantum simulation of materials; please cite
         "P. Giannozzi et al., J. Phys.:Condens. Matter 21 395502 (2009);
         "P. Giannozzi et al., J. Phys.:Condens. Matter 29 465901 (2017);
         "P. Giannozzi et al., J. Chem. Phys. 152 154105 (2020);
          URL http://www.quantum-espresso.org", 
     in publications or presentations arising from this work. More details at
     http://www.quantum-espresso.org/quote

     Parallel version (MPI & OpenMP), running on       4 processor cores
     Number of MPI processes:                 4
     Threads/MPI process:                     1

     MPI processes distributed on     1 nodes
     259112 MiB available memory on the printing compute node when the environment starts
 
     Reading input from pw-si-8.in
Warning: card &CELL ignored
Warning: card / ignored

     Current dimensions of program PWSCF are:
     Max number of different atomic species (ntypx) = 10
     Max number of k-points (npk) =  40000
     Max angular momentum in pseudopotentials (lmaxx) =  4

     IMPORTANT: XC functional enforced from input :
     Exchange-correlation= PBE
                           (   1   4   3   4   0   0   0)
     Any further DFT definition will be discarded
     Please, verify this is what you really want


     gamma-point specific algorithms are used
 
     K-points division:     npool     =       2
     R & G space division:  proc/nbgrp/npool/nimage =       2
     Subspace diagonalization in iterative solution of the eigenvalue problem:
     a serial algorithm will be used

     Message from routine divide_et_impera:
     suboptimal parallelization: some nodes have no k-points
 
     Parallelization info
     --------------------
     sticks:   dense  smooth     PW     G-vecs:    dense   smooth      PW
     Min        1915    1915    502                89270    89270   12102
     Max        1918    1918    503                89271    89271   12105
     Sum        3833    3833   1005               178541   178541   24207
 
     Using Slab Decomposition
 


     bravais-lattice index     =            0
     lattice parameter (alat)  =      20.0386  a.u.
     unit-cell volume          =    8046.4528 (a.u.)^3
     number of atoms/cell      =           64
     number of atomic types    =            1
     number of electrons       =       256.00
     number of Kohn-Sham states=          154
     kinetic-energy cutoff     =      30.0000  Ry
     charge density cutoff     =     120.0000  Ry
     scf convergence threshold =      1.0E-06
     mixing beta               =       0.5000
     number of iterations used =            8  plain     mixing
     Exchange-correlation= PBE
                           (   1   4   3   4   0   0   0)

     GPU acceleration is ACTIVE.
     GPU-aware MPI enabled

     Message from routine print_cuda_info:
     High GPU oversubscription detected. Are you sure this is what you want?

     celldm(1)=  20.038636  celldm(2)=   0.000000  celldm(3)=   0.000000
     celldm(4)=   0.000000  celldm(5)=   0.000000  celldm(6)=   0.000000

     crystal axes: (cart. coord. in units of alat)
               a(1) = (   1.000000   0.000000   0.000000 )  
               a(2) = (   0.000000   1.000000   0.000000 )  
               a(3) = (   0.000000   0.000000   1.000000 )  

     reciprocal axes: (cart. coord. in units 2 pi/alat)
               b(1) = (  1.000000  0.000000  0.000000 )  
               b(2) = (  0.000000  1.000000  0.000000 )  
               b(3) = (  0.000000  0.000000  1.000000 )  


     PseudoPot. # 1 for Si read from file:
     /home/ppiaggi/pseudos/Si_ONCV_PBE_sr.upf
     MD5 check sum: 8553c464762ac42b85b1eed164b4d029
     Pseudo is Norm-conserving, Zval =  4.0
     Generated using ONCVPSP code by D. R. Hamann
     Using radial grid of 1510 points,  4 beta functions with: 
                l(1) =   0
                l(2) =   0
                l(3) =   1
                l(4) =   1

     atomic species   valence    mass     pseudopotential
        Si             4.00    28.08500     Si( 1.00)

     No symmetry found



   Cartesian axes

     site n.     atom                  positions (alat units)
         1           Si  tau(   1) = (   0.1204330   0.2315280   0.6363960  )
         2           Si  tau(   2) = (   0.1429320   0.1078550   0.2903650  )
         3           Si  tau(   3) = (   0.8994280   0.0995645   0.6366110  )
         4           Si  tau(   4) = (   0.4177560   0.8137510   0.0130010  )
         5           Si  tau(   5) = (   0.7007150   0.0150620   0.8609290  )
         6           Si  tau(   6) = (   0.3618230   0.3918890   0.3312380  )
         7           Si  tau(   7) = (   0.2180020   0.9782240   0.9215680  )
         8           Si  tau(   8) = (   0.4573740   0.1026890   0.0713295  )
         9           Si  tau(   9) = (   0.5158550   0.7592130   0.8310180  )
        10           Si  tau(  10) = (   0.1798540   0.3109430   0.4446510  )
        11           Si  tau(  11) = (   0.4335450   0.7110480   0.6292430  )
        12           Si  tau(  12) = (   0.7608150   0.4952040   0.2056950  )
        13           Si  tau(  13) = (   0.6721760   0.5290110   0.8753790  )
        14           Si  tau(  14) = (   0.5648790   0.1474510   0.2419640  )
        15           Si  tau(  15) = (   0.1474000   0.9772660   0.6679500  )
        16           Si  tau(  16) = (   0.4643310   0.9108120   0.6654120  )
        17           Si  tau(  17) = (   0.5551200   0.5485590   0.1061270  )
        18           Si  tau(  18) = (   0.2764380   0.3345850   0.7710640  )
        19           Si  tau(  19) = (   0.7205670   0.5904110   0.6215180  )
        20           Si  tau(  20) = (   0.0662615   0.2983590   0.1358510  )
        21           Si  tau(  21) = (   0.5809700   0.9256660   0.4524400  )
        22           Si  tau(  22) = (   0.0092558   0.0050394   0.8264100  )
        23           Si  tau(  23) = (   0.6167640   0.8864920   0.0434791  )
        24           Si  tau(  24) = (   0.7159000   0.6921500   0.0081726  )
        25           Si  tau(  25) = (   0.9367330   0.4302420   0.5052140  )
        26           Si  tau(  26) = (   0.0130794   0.4680960   0.2934760  )
        27           Si  tau(  27) = (   0.7414400   0.7483590   0.2587810  )
        28           Si  tau(  28) = (   0.2894060   0.2624330   0.1760810  )
        29           Si  tau(  29) = (   0.2665020   0.0806636   0.5239650  )
        30           Si  tau(  30) = (   0.1668320   0.4884390   0.5813960  )
        31           Si  tau(  31) = (   0.5535830   0.3195100   0.9219450  )
        32           Si  tau(  32) = (   0.9839800   0.5118750   0.8595560  )
        33           Si  tau(  33) = (   0.2075910   0.7759850   0.7472000  )
        34           Si  tau(  34) = (   0.8662460   0.6287430   0.4184740  )
        35           Si  tau(  35) = (   0.8385680   0.1853370   0.4492090  )
        36           Si  tau(  36) = (   0.2076580   0.8068400   0.5266210  )
        37           Si  tau(  37) = (   0.0765870   0.7021820   0.2376960  )
        38           Si  tau(  38) = (   0.7370540   0.1902220   0.9718120  )
        39           Si  tau(  39) = (   0.4905470   0.3037010   0.5479980  )
        40           Si  tau(  40) = (   0.9939760   0.8076290   0.4029130  )
        41           Si  tau(  41) = (   0.7768160   0.8974070   0.5852350  )
        42           Si  tau(  42) = (   0.5851050   0.6964140   0.4777600  )
        43           Si  tau(  43) = (   0.5438470   0.4920830   0.4013050  )
        44           Si  tau(  44) = (   0.9883030   0.1182390   0.9958690  )
        45           Si  tau(  45) = (   0.9535130   0.0044615   0.3171390  )
        46           Si  tau(  46) = (   0.6460940   0.9533050   0.2431320  )
        47           Si  tau(  47) = (   0.2316350   0.5823940   0.3532200  )
        48           Si  tau(  48) = (   0.4830880   0.7021700   0.2403160  )
        49           Si  tau(  49) = (   0.3895490   0.4951920   0.6377790  )
        50           Si  tau(  50) = (   0.8187550   0.3733340   0.7380900  )
        51           Si  tau(  51) = (   0.5433400   0.1226890   0.7100340  )
        52           Si  tau(  52) = (   0.6869830   0.2155740   0.6181310  )
        53           Si  tau(  53) = (   0.9859200   0.8963040   0.1354660  )
        54           Si  tau(  54) = (   0.3693330   0.1593980   0.8794030  )
        55           Si  tau(  55) = (   0.2881250   0.6517820   0.9606090  )
        56           Si  tau(  56) = (   0.3556280   0.4331750   0.9810890  )
        57           Si  tau(  57) = (   0.9343680   0.8097860   0.9321060  )
        58           Si  tau(  58) = (   0.9857690   0.6908300   0.7364740  )
        59           Si  tau(  59) = (   0.3223230   0.8743650   0.3302430  )
        60           Si  tau(  60) = (   0.0423363   0.3002980   0.8391370  )
        61           Si  tau(  61) = (   0.2236540   0.9573340   0.1486630  )
        62           Si  tau(  62) = (   0.7141240   0.2750530   0.2910540  )
        63           Si  tau(  63) = (   0.7503770   0.7585200   0.7537480  )
        64           Si  tau(  64) = (   0.8448640   0.4257770   0.0017488  )

     number of k points=     1  Fermi-Dirac smearing, width (Ry)=  0.0100
                       cart. coord. in units 2pi/alat
        k(    1) = (   0.0000000   0.0000000   0.0000000), wk =   2.0000000

     Dense  grid:    89271 G-vectors     FFT dimensions: (  72,  72,  72)

     Estimated max dynamical RAM per process >     143.59 MB

     Estimated total dynamical RAM >     552.57 MB

     Initial potential from superposition of free atoms

     starting charge     255.9608, renormalised to     256.0000
     Starting wfcs are  256 randomized atomic wfcs

     total cpu time spent up to now is        4.5 secs

     Self-consistent Calculation

     iteration #  1     ecut=    30.00 Ry     beta= 0.50
     Davidson diagonalization with overlap
     ethr =  1.00E-02,  avg # of iterations =  3.0

     Threshold (ethr) on eigenvalues was too large:
     Diagonalizing with lowered threshold

     Davidson diagonalization with overlap
     ethr =  5.27E-04,  avg # of iterations =  4.0

     total cpu time spent up to now is        4.7 secs

     total energy              =    -500.61528829 Ry
     estimated scf accuracy    <       1.71579017 Ry

     iteration #  2     ecut=    30.00 Ry     beta= 0.50
     Davidson diagonalization with overlap
     ethr =  6.70E-04,  avg # of iterations =  3.0

     total cpu time spent up to now is        4.8 secs

     total energy              =    -500.24754135 Ry
     estimated scf accuracy    <       4.36679279 Ry

     iteration #  3     ecut=    30.00 Ry     beta= 0.50
     Davidson diagonalization with overlap
     ethr =  6.70E-04,  avg # of iterations =  3.0

     total cpu time spent up to now is        4.9 secs

     total energy              =    -500.62018584 Ry
     estimated scf accuracy    <       4.27579668 Ry

     iteration #  4     ecut=    30.00 Ry     beta= 0.50
     Davidson diagonalization with overlap
     ethr =  6.70E-04,  avg # of iterations =  2.0

     total cpu time spent up to now is        5.0 secs

     total energy              =    -500.92677674 Ry
     estimated scf accuracy    <       0.76708028 Ry

     iteration #  5     ecut=    30.00 Ry     beta= 0.50
     Davidson diagonalization with overlap
     ethr =  3.00E-04,  avg # of iterations =  2.0

     total cpu time spent up to now is        5.1 secs

     total energy              =    -500.98420267 Ry
     estimated scf accuracy    <       0.23429786 Ry

     iteration #  6     ecut=    30.00 Ry     beta= 0.50
     Davidson diagonalization with overlap
     ethr =  9.15E-05,  avg # of iterations =  2.0

     total cpu time spent up to now is        5.1 secs

     total energy              =    -501.00462532 Ry
     estimated scf accuracy    <       0.26978252 Ry

     iteration #  7     ecut=    30.00 Ry     beta= 0.50
     Davidson diagonalization with overlap
     ethr =  9.15E-05,  avg # of iterations =  1.0

     total cpu time spent up to now is        5.2 secs

     total energy              =    -501.02568888 Ry
     estimated scf accuracy    <       0.01193243 Ry

     iteration #  8     ecut=    30.00 Ry     beta= 0.50
     Davidson diagonalization with overlap
     ethr =  4.66E-06,  avg # of iterations = 17.0

     total cpu time spent up to now is        5.4 secs

     total energy              =    -501.02713829 Ry
     estimated scf accuracy    <       0.02144849 Ry

     iteration #  9     ecut=    30.00 Ry     beta= 0.50
     Davidson diagonalization with overlap
     ethr =  4.66E-06,  avg # of iterations =  3.0

     total cpu time spent up to now is        5.5 secs

     total energy              =    -501.02904889 Ry
     estimated scf accuracy    <       0.00542518 Ry

     iteration # 10     ecut=    30.00 Ry     beta= 0.50
     Davidson diagonalization with overlap
     ethr =  2.12E-06,  avg # of iterations =  2.0

     total cpu time spent up to now is        5.6 secs

     total energy              =    -501.02936988 Ry
     estimated scf accuracy    <       0.00134387 Ry

     iteration # 11     ecut=    30.00 Ry     beta= 0.50
     Davidson diagonalization with overlap
     ethr =  5.25E-07,  avg # of iterations =  2.0

     total cpu time spent up to now is        5.6 secs

     total energy              =    -501.02946513 Ry
     estimated scf accuracy    <       0.00106943 Ry

     iteration # 12     ecut=    30.00 Ry     beta= 0.50
     Davidson diagonalization with overlap
     ethr =  4.18E-07,  avg # of iterations =  2.0

     total cpu time spent up to now is        5.7 secs

     total energy              =    -501.02955485 Ry
     estimated scf accuracy    <       0.00033307 Ry

     iteration # 13     ecut=    30.00 Ry     beta= 0.50
     Davidson diagonalization with overlap
     ethr =  1.30E-07,  avg # of iterations =  2.0

     total cpu time spent up to now is        5.8 secs

     total energy              =    -501.02957825 Ry
     estimated scf accuracy    <       0.00017836 Ry

     iteration # 14     ecut=    30.00 Ry     beta= 0.50
     Davidson diagonalization with overlap
     ethr =  6.97E-08,  avg # of iterations =  2.0

     total cpu time spent up to now is        5.9 secs

     total energy              =    -501.02959372 Ry
     estimated scf accuracy    <       0.00005188 Ry

     iteration # 15     ecut=    30.00 Ry     beta= 0.50
     Davidson diagonalization with overlap
     ethr =  2.03E-08,  avg # of iterations =  2.0

     total cpu time spent up to now is        6.0 secs

     total energy              =    -501.02959701 Ry
     estimated scf accuracy    <       0.00000853 Ry

     iteration # 16     ecut=    30.00 Ry     beta= 0.50
     Davidson diagonalization with overlap
     ethr =  3.33E-09,  avg # of iterations =  5.0

     total cpu time spent up to now is        6.1 secs

     total energy              =    -501.02959755 Ry
     estimated scf accuracy    <       0.00002731 Ry

     iteration # 17     ecut=    30.00 Ry     beta= 0.50
     Davidson diagonalization with overlap
     ethr =  3.33E-09,  avg # of iterations =  3.0

     total cpu time spent up to now is        6.1 secs

     total energy              =    -501.02959885 Ry
     estimated scf accuracy    <       0.00001116 Ry

     iteration # 18     ecut=    30.00 Ry     beta= 0.50
     Davidson diagonalization with overlap
     ethr =  3.33E-09,  avg # of iterations =  2.0

     total cpu time spent up to now is        6.2 secs

     total energy              =    -501.02959964 Ry
     estimated scf accuracy    <       0.00000126 Ry

     iteration # 19     ecut=    30.00 Ry     beta= 0.50
     Davidson diagonalization with overlap
     ethr =  4.90E-10,  avg # of iterations =  2.0

     total cpu time spent up to now is        6.3 secs

     End of self-consistent calculation

          k = 0.0000 0.0000 0.0000 ( 11168 PWs)   bands (ev):

    -5.6787  -4.9661  -4.6654  -4.5804  -4.5458  -4.3470  -4.2304  -3.8166
    -3.6466  -3.5716  -3.4604  -3.4302  -3.3413  -3.2115  -3.0677  -2.9523
    -2.8114  -2.5097  -2.4692  -2.2816  -2.1963  -2.0155  -1.9162  -1.8421
    -1.5989  -1.3948  -1.3293  -1.0911  -1.0224  -0.8740  -0.7424  -0.6307
    -0.4443  -0.3481  -0.2675  -0.1781  -0.0099   0.0131   0.1234   0.1973
     0.2762   0.3770   0.4186   0.5054   0.6875   0.7861   0.7893   0.9525
     1.0964   1.1138   1.2680   1.3835   1.4994   1.5468   1.6915   1.7796
     1.8788   1.9916   2.0780   2.1363   2.2203   2.2409   2.2868   2.3595
     2.4849   2.6312   2.6412   2.7651   2.8330   2.8573   2.9183   3.0632
     3.1584   3.3288   3.3933   3.4963   3.5719   3.6247   3.7071   3.7569
     3.8300   4.0935   4.1603   4.2620   4.2891   4.4526   4.5715   4.6405
     4.6752   4.7433   4.8710   4.9977   5.0324   5.0726   5.1530   5.3245
     5.3637   5.4260   5.4543   5.5594   5.5675   5.6404   5.6521   5.7096
     5.7610   5.8503   5.8912   5.9558   6.0152   6.0671   6.1201   6.1719
     6.2153   6.3443   6.4331   6.5049   6.5126   6.5851   6.6127   6.6229
     6.6929   6.8352   6.8992   6.9366   7.0073   7.0726   7.1536   7.2120
     7.2476   7.2659   7.3161   7.3971   7.5144   7.5468   7.5801   7.6027
     7.7239   7.7618   7.8170   7.8931   7.9588   8.0269   8.0726   8.1571
     8.2145   8.2413   8.2937   8.4160   8.4854   8.5071   8.6405   8.6883
     8.7403   8.8266

     the Fermi energy is     7.2098 ev

!    total energy              =    -501.02959955 Ry
     estimated scf accuracy    <       0.00000036 Ry
     smearing contrib. (-TS)   =      -0.15258682 Ry
     internal energy E=F+TS    =    -500.87701273 Ry

     The total energy is F=E-TS. E is the sum of the following terms:
     one-electron contribution =     170.57965452 Ry
     hartree contribution      =      33.49142284 Ry
     xc contribution           =    -152.31840874 Ry
     ewald contribution        =    -552.62968135 Ry

     convergence has been achieved in  19 iterations

     Forces acting on atoms (cartesian axes, Ry/au):

     atom    1 type  1   force =    -0.03373332   -0.01016063    0.03151921
     atom    2 type  1   force =     0.02352553    0.05696698    0.01401642
     atom    3 type  1   force =     0.01587001   -0.04055795    0.03865975
     atom    4 type  1   force =    -0.05409186    0.02678425    0.04260528
     atom    5 type  1   force =    -0.01523561   -0.05561549   -0.03074816
     atom    6 type  1   force =    -0.00227493    0.01025291    0.01054064
     atom    7 type  1   force =     0.01843633    0.00554043   -0.00623683
     atom    8 type  1   force =    -0.06146906   -0.00510600   -0.02015537
     atom    9 type  1   force =     0.04629932   -0.00410839   -0.02213528
     atom   10 type  1   force =    -0.00608759   -0.01049423   -0.04405407
     atom   11 type  1   force =    -0.06278784   -0.09389600    0.00259312
     atom   12 type  1   force =     0.00462961   -0.03181190   -0.00553142
     atom   13 type  1   force =    -0.02199392   -0.04097324   -0.03311098
     atom   14 type  1   force =    -0.04617843    0.00528898    0.02663142
     atom   15 type  1   force =    -0.00174860   -0.00559249   -0.00699907
     atom   16 type  1   force =     0.01433234    0.11965194    0.00728162
     atom   17 type  1   force =     0.00151884   -0.02880227   -0.02693646
     atom   18 type  1   force =    -0.00640703    0.01025436    0.01767992
     atom   19 type  1   force =     0.02418948   -0.04438882   -0.00211385
     atom   20 type  1   force =    -0.00071892   -0.01848855   -0.00214582
     atom   21 type  1   force =     0.00407328   -0.03097361    0.03993724
     atom   22 type  1   force =    -0.03787566   -0.05142485   -0.03305860
     atom   23 type  1   force =     0.01594331    0.02079134   -0.03977133
     atom   24 type  1   force =     0.03083918    0.02892601    0.03834351
     atom   25 type  1   force =     0.01366519   -0.02623549    0.03546876
     atom   26 type  1   force =     0.01491503    0.00434164   -0.01650586
     atom   27 type  1   force =    -0.00880605   -0.02536329   -0.01537904
     atom   28 type  1   force =     0.00920457   -0.01293288   -0.06927388
     atom   29 type  1   force =     0.03528354    0.02427343   -0.04875615
     atom   30 type  1   force =    -0.01365571    0.01176986   -0.00639005
     atom   31 type  1   force =    -0.00698017    0.02104021    0.00387135
     atom   32 type  1   force =     0.00246527   -0.01357658   -0.00497788
     atom   33 type  1   force =    -0.00363309   -0.03256370    0.04021131
     atom   34 type  1   force =    -0.02580790   -0.00416858    0.00609048
     atom   35 type  1   force =     0.01640878    0.01211001   -0.04545770
     atom   36 type  1   force =    -0.01786747   -0.02346447   -0.05966643
     atom   37 type  1   force =     0.01751981   -0.03751846   -0.05264869
     atom   38 type  1   force =     0.03641752    0.07607218    0.03576773
     atom   39 type  1   force =    -0.01848081    0.03462273   -0.02592345
     atom   40 type  1   force =     0.02273020    0.01925715    0.08336515
     atom   41 type  1   force =     0.00437231    0.04273509   -0.02622538
     atom   42 type  1   force =     0.01638423    0.00941986   -0.05094101
     atom   43 type  1   force =     0.01241049   -0.02976656    0.00127304
     atom   44 type  1   force =    -0.01426553    0.08096845    0.08294584
     atom   45 type  1   force =    -0.05376577    0.03724468    0.04609113
     atom   46 type  1   force =     0.02987907   -0.01360576    0.03315748
     atom   47 type  1   force =    -0.01471903    0.00139565    0.02399636
     atom   48 type  1   force =     0.00229089    0.03617136    0.03185301
     atom   49 type  1   force =    -0.02016397   -0.02853013   -0.00442813
     atom   50 type  1   force =     0.00251363    0.01234029   -0.01665181
     atom   51 type  1   force =    -0.12318976   -0.09620250    0.12631181
     atom   52 type  1   force =     0.12256217    0.09214399   -0.05792896
     atom   53 type  1   force =     0.02791490   -0.01056826   -0.05223747
     atom   54 type  1   force =     0.01747562   -0.01830085   -0.04092475
     atom   55 type  1   force =    -0.02780800   -0.02922143   -0.02327196
     atom   56 type  1   force =     0.02475634   -0.01125194    0.01440678
     atom   57 type  1   force =    -0.02803323    0.00610119   -0.00926753
     atom   58 type  1   force =     0.00845967    0.00113637    0.00330253
     atom   59 type  1   force =     0.04264149   -0.01952897    0.01713296
     atom   60 type  1   force =     0.00822012   -0.01000352   -0.00127366
     atom   61 type  1   force =     0.00735322    0.00568828   -0.02435793
     atom   62 type  1   force =     0.05446356    0.10674336   -0.00248468
     atom   63 type  1   force =     0.00647285    0.01287137    0.03938393
     atom   64 type  1   force =    -0.02865847   -0.01770654    0.03353185

     Total force =     0.511383     Total SCF correction =     0.001196


     Computing stress (Cartesian axis) and pressure

          total   stress  (Ry/bohr**3)                   (kbar)     P=       17.33
  -0.00007260   0.00008132  -0.00004082          -10.68       11.96       -6.00
   0.00008132   0.00014215   0.00012083           11.96       20.91       17.77
  -0.00004082   0.00012083   0.00028386           -6.00       17.77       41.76

 
     init_run     :      0.94s CPU      4.45s WALL (       1 calls)
     electrons    :      1.64s CPU      1.79s WALL (       1 calls)
     forces       :      0.03s CPU      0.03s WALL (       1 calls)
     stress       :      0.13s CPU      0.14s WALL (       1 calls)

     Called by init_run:
     wfcinit      :      0.44s CPU      3.79s WALL (       1 calls)
                                        3.79s GPU  (       1 calls)
     potinit      :      0.03s CPU      0.12s WALL (       1 calls)
     hinit0       :      0.45s CPU      0.48s WALL (       1 calls)

     Called by electrons:
     c_bands      :      1.06s CPU      1.13s WALL (      20 calls)
     sum_band     :      0.31s CPU      0.36s WALL (      20 calls)
     v_of_rho     :      0.11s CPU      0.22s WALL (      20 calls)
     mix_rho      :      0.14s CPU      0.15s WALL (      20 calls)

     Called by c_bands:
     init_us_2    :      0.05s CPU      0.05s WALL (      41 calls)
     init_us_2:gp :      0.05s CPU      0.05s WALL (      41 calls)
     regterg      :      0.91s CPU      0.98s WALL (      20 calls)

     Called by *egterg:
     rdiaghg      :      0.36s CPU      1.04s WALL (      83 calls)
                                        1.03s GPU  (      83 calls)
     h_psi        :      0.83s CPU      3.54s WALL (      85 calls)
                                        3.54s GPU  (      85 calls)
     g_psi        :      0.00s CPU      0.00s WALL (      64 calls)
                                        0.00s GPU  (      64 calls)

     Called by h_psi:
     h_psi:calbec :      0.42s CPU      3.06s WALL (      85 calls)
                                        3.06s GPU  (      85 calls)
     vloc_psi     :      0.36s CPU      0.42s WALL (      85 calls)
                                        0.42s GPU  (      85 calls)
     add_vuspsi   :      0.03s CPU      0.05s WALL (      85 calls)
                                        0.05s GPU  (      85 calls)

     General routines
     calbec       :      0.43s CPU      3.06s WALL (      90 calls)
     fft          :      0.55s CPU      0.68s WALL (     167 calls)
                                        0.12s GPU  (     106 calls)
     ffts         :      0.03s CPU      0.03s WALL (      20 calls)
     fftw         :      0.44s CPU      0.58s WALL (    2094 calls)
                                        0.51s GPU  (    2094 calls)
 
     Parallel routines
 
     PWSCF        :      2.77s CPU      6.49s WALL

 
   This run was terminated on:   9:45:38  11May2023            

=------------------------------------------------------------------------------=
   JOB DONE.
=------------------------------------------------------------------------------=
