An instance of this daemon is already running

     Program PWSCF v.7.1 starts on 11May2023 at  9:53:55 

     This program is part of the open-source Quantum ESPRESSO suite
     for quantum simulation of materials; please cite
         "P. Giannozzi et al., J. Phys.:Condens. Matter 21 395502 (2009);
         "P. Giannozzi et al., J. Phys.:Condens. Matter 29 465901 (2017);
         "P. Giannozzi et al., J. Chem. Phys. 152 154105 (2020);
          URL http://www.quantum-espresso.org", 
     in publications or presentations arising from this work. More details at
     http://www.quantum-espresso.org/quote

     Parallel version (MPI & OpenMP), running on       4 processor cores
     Number of MPI processes:                 4
     Threads/MPI process:                     1

     MPI processes distributed on     1 nodes
     259419 MiB available memory on the printing compute node when the environment starts
 
     Reading input from pw-si-65.in
Warning: card &CELL ignored
Warning: card / ignored

     Current dimensions of program PWSCF are:
     Max number of different atomic species (ntypx) = 10
     Max number of k-points (npk) =  40000
     Max angular momentum in pseudopotentials (lmaxx) =  4

     IMPORTANT: XC functional enforced from input :
     Exchange-correlation= PBE
                           (   1   4   3   4   0   0   0)
     Any further DFT definition will be discarded
     Please, verify this is what you really want


     gamma-point specific algorithms are used
 
     K-points division:     npool     =       2
     R & G space division:  proc/nbgrp/npool/nimage =       2
     Subspace diagonalization in iterative solution of the eigenvalue problem:
     a serial algorithm will be used

     Message from routine divide_et_impera:
     suboptimal parallelization: some nodes have no k-points
 
     Parallelization info
     --------------------
     sticks:   dense  smooth     PW     G-vecs:    dense   smooth      PW
     Min        2046    2046    542                98378    98378   13370
     Max        2047    2047    543                98379    98379   13375
     Sum        4093    4093   1085               196757   196757   26745
 
     Using Slab Decomposition
 


     bravais-lattice index     =            0
     lattice parameter (alat)  =      20.6935  a.u.
     unit-cell volume          =    8861.3432 (a.u.)^3
     number of atoms/cell      =           64
     number of atomic types    =            1
     number of electrons       =       256.00
     number of Kohn-Sham states=          154
     kinetic-energy cutoff     =      30.0000  Ry
     charge density cutoff     =     120.0000  Ry
     scf convergence threshold =      1.0E-06
     mixing beta               =       0.5000
     number of iterations used =            8  plain     mixing
     Exchange-correlation= PBE
                           (   1   4   3   4   0   0   0)

     GPU acceleration is ACTIVE.
     GPU-aware MPI enabled

     Message from routine print_cuda_info:
     High GPU oversubscription detected. Are you sure this is what you want?

     celldm(1)=  20.693464  celldm(2)=   0.000000  celldm(3)=   0.000000
     celldm(4)=   0.000000  celldm(5)=   0.000000  celldm(6)=   0.000000

     crystal axes: (cart. coord. in units of alat)
               a(1) = (   1.000000   0.000000   0.000000 )  
               a(2) = (   0.000000   1.000000   0.000000 )  
               a(3) = (   0.000000   0.000000   1.000000 )  

     reciprocal axes: (cart. coord. in units 2 pi/alat)
               b(1) = (  1.000000  0.000000  0.000000 )  
               b(2) = (  0.000000  1.000000  0.000000 )  
               b(3) = (  0.000000  0.000000  1.000000 )  


     PseudoPot. # 1 for Si read from file:
     /home/ppiaggi/pseudos/Si_ONCV_PBE_sr.upf
     MD5 check sum: 8553c464762ac42b85b1eed164b4d029
     Pseudo is Norm-conserving, Zval =  4.0
     Generated using ONCVPSP code by D. R. Hamann
     Using radial grid of 1510 points,  4 beta functions with: 
                l(1) =   0
                l(2) =   0
                l(3) =   1
                l(4) =   1

     atomic species   valence    mass     pseudopotential
        Si             4.00    28.08500     Si( 1.00)

     No symmetry found



   Cartesian axes

     site n.     atom                  positions (alat units)
         1           Si  tau(   1) = (   0.0184448   0.1638610   0.6100740  )
         2           Si  tau(   2) = (   0.3523220   0.9517610   0.3258870  )
         3           Si  tau(   3) = (   0.8428960   0.3346590   0.9203790  )
         4           Si  tau(   4) = (   0.4180330   0.9817150   0.0588463  )
         5           Si  tau(   5) = (   0.4754000   0.1595240   0.9237540  )
         6           Si  tau(   6) = (   0.4355370   0.2106380   0.4107520  )
         7           Si  tau(   7) = (   0.1913660   0.0312842   0.6346060  )
         8           Si  tau(   8) = (   0.7350800   0.1809280   0.2138700  )
         9           Si  tau(   9) = (   0.4520100   0.8755900   0.8365730  )
        10           Si  tau(  10) = (   0.1284300   0.2558230   0.3990860  )
        11           Si  tau(  11) = (   0.3025940   0.7444630   0.4550500  )
        12           Si  tau(  12) = (   0.7393030   0.6069040   0.9588860  )
        13           Si  tau(  13) = (   0.6704470   0.6955330   0.7737840  )
        14           Si  tau(  14) = (   0.8399490   0.2367770   0.3966980  )
        15           Si  tau(  15) = (   0.2230790   0.8288230   0.7859150  )
        16           Si  tau(  16) = (   0.3647910   0.9371270   0.5258530  )
        17           Si  tau(  17) = (   0.5361170   0.7253670   0.9646840  )
        18           Si  tau(  18) = (   0.0728045   0.2150350   0.8074650  )
        19           Si  tau(  19) = (   0.5042900   0.4359580   0.3981780  )
        20           Si  tau(  20) = (   0.0214786   0.2995500   0.1681450  )
        21           Si  tau(  21) = (   0.5498910   0.8616390   0.6477550  )
        22           Si  tau(  22) = (   0.9400940   0.9139100   0.8164170  )
        23           Si  tau(  23) = (   0.8624200   0.1046040   0.7546630  )
        24           Si  tau(  24) = (   0.6217840   0.6326920   0.1796410  )
        25           Si  tau(  25) = (   0.9806950   0.0864700   0.3594120  )
        26           Si  tau(  26) = (   0.0167912   0.5092260   0.2885490  )
        27           Si  tau(  27) = (   0.6052550   0.0308726   0.1690140  )
        28           Si  tau(  28) = (   0.2324320   0.2594130   0.0918130  )
        29           Si  tau(  29) = (   0.5111910   0.0198353   0.4264280  )
        30           Si  tau(  30) = (   0.8812790   0.7691100   0.4894790  )
        31           Si  tau(  31) = (   0.6105600   0.3227270   0.8939220  )
        32           Si  tau(  32) = (   0.0351213   0.6693150   0.0941253  )
        33           Si  tau(  33) = (   0.3282090   0.6514400   0.9313480  )
        34           Si  tau(  34) = (   0.0212095   0.4952370   0.7239010  )
        35           Si  tau(  35) = (   0.6864550   0.8258160   0.4321070  )
        36           Si  tau(  36) = (   0.0930820   0.6666970   0.4342490  )
        37           Si  tau(  37) = (   0.0779374   0.7187230   0.6726250  )
        38           Si  tau(  38) = (   0.0033430   0.0515081   0.9598990  )
        39           Si  tau(  39) = (   0.5838950   0.5540620   0.6175030  )
        40           Si  tau(  40) = (   0.9974550   0.9456830   0.5679310  )
        41           Si  tau(  41) = (   0.6640020   0.0375308   0.7058280  )
        42           Si  tau(  42) = (   0.5080360   0.6678440   0.4487720  )
        43           Si  tau(  43) = (   0.3870730   0.3198150   0.2297790  )
        44           Si  tau(  44) = (   0.8799170   0.1680090   0.0604089  )
        45           Si  tau(  45) = (   0.0699819   0.8983110   0.3719620  )
        46           Si  tau(  46) = (   0.7303890   0.0470805   0.4122160  )
        47           Si  tau(  47) = (   0.2339900   0.4752410   0.4477630  )
        48           Si  tau(  48) = (   0.6116230   0.3691580   0.1214430  )
        49           Si  tau(  49) = (   0.3953630   0.3158650   0.5864820  )
        50           Si  tau(  50) = (   0.9097200   0.4168030   0.5022450  )
        51           Si  tau(  51) = (   0.3879760   0.4890460   0.7345730  )
        52           Si  tau(  52) = (   0.7365710   0.2274790   0.5980660  )
        53           Si  tau(  53) = (   0.8708080   0.8926350   0.0782370  )
        54           Si  tau(  54) = (   0.4290660   0.1152650   0.7034290  )
        55           Si  tau(  55) = (   0.4292350   0.5190770   0.0582509  )
        56           Si  tau(  56) = (   0.3440480   0.3492550   0.9353370  )
        57           Si  tau(  57) = (   0.6628700   0.9188390   0.9585210  )
        58           Si  tau(  58) = (   0.1416620   0.5402280   0.9275820  )
        59           Si  tau(  59) = (   0.2420420   0.8030000   0.1724890  )
        60           Si  tau(  60) = (   0.2080420   0.3814230   0.7818050  )
        61           Si  tau(  61) = (   0.2244470   0.0191279   0.0778556  )
        62           Si  tau(  62) = (   0.7120320   0.3937470   0.3654450  )
        63           Si  tau(  63) = (   0.9647340   0.6804730   0.8799010  )
        64           Si  tau(  64) = (   0.7251280   0.4533660   0.7402370  )

     number of k points=     1  Fermi-Dirac smearing, width (Ry)=  0.0100
                       cart. coord. in units 2pi/alat
        k(    1) = (   0.0000000   0.0000000   0.0000000), wk =   2.0000000

     Dense  grid:    98379 G-vectors     FFT dimensions: (  75,  75,  75)

     Estimated max dynamical RAM per process >     158.40 MB

     Estimated total dynamical RAM >     609.59 MB

     Initial potential from superposition of free atoms

     starting charge     255.9608, renormalised to     256.0000
     Starting wfcs are  256 randomized atomic wfcs

     total cpu time spent up to now is        4.2 secs

     Self-consistent Calculation

     iteration #  1     ecut=    30.00 Ry     beta= 0.50
     Davidson diagonalization with overlap
     ethr =  1.00E-02,  avg # of iterations =  3.0

     Threshold (ethr) on eigenvalues was too large:
     Diagonalizing with lowered threshold

     Davidson diagonalization with overlap
     ethr =  6.97E-04,  avg # of iterations =  4.0

     total cpu time spent up to now is        4.4 secs

     total energy              =    -499.85822361 Ry
     estimated scf accuracy    <       2.35210790 Ry

     iteration #  2     ecut=    30.00 Ry     beta= 0.50
     Davidson diagonalization with overlap
     ethr =  9.19E-04,  avg # of iterations =  5.0

     total cpu time spent up to now is        4.5 secs

     total energy              =    -498.47885324 Ry
     estimated scf accuracy    <      23.03224653 Ry

     iteration #  3     ecut=    30.00 Ry     beta= 0.50
     Davidson diagonalization with overlap
     ethr =  9.19E-04,  avg # of iterations =  4.0

     total cpu time spent up to now is        4.6 secs

     total energy              =    -500.36981530 Ry
     estimated scf accuracy    <       2.94420197 Ry

     iteration #  4     ecut=    30.00 Ry     beta= 0.50
     Davidson diagonalization with overlap
     ethr =  9.19E-04,  avg # of iterations =  2.0

     total cpu time spent up to now is        4.7 secs

     total energy              =    -500.57258445 Ry
     estimated scf accuracy    <       0.96794968 Ry

     iteration #  5     ecut=    30.00 Ry     beta= 0.50
     Davidson diagonalization with overlap
     ethr =  3.78E-04,  avg # of iterations =  2.0

     total cpu time spent up to now is        4.8 secs

     total energy              =    -500.62502168 Ry
     estimated scf accuracy    <       1.00630848 Ry

     iteration #  6     ecut=    30.00 Ry     beta= 0.50
     Davidson diagonalization with overlap
     ethr =  3.78E-04,  avg # of iterations =  1.0

     total cpu time spent up to now is        4.9 secs

     total energy              =    -500.70003333 Ry
     estimated scf accuracy    <       0.08723882 Ry

     iteration #  7     ecut=    30.00 Ry     beta= 0.50
     Davidson diagonalization with overlap
     ethr =  3.41E-05,  avg # of iterations =  3.0

     total cpu time spent up to now is        5.0 secs

     total energy              =    -500.71107504 Ry
     estimated scf accuracy    <       0.05734218 Ry

     iteration #  8     ecut=    30.00 Ry     beta= 0.50
     Davidson diagonalization with overlap
     ethr =  2.24E-05,  avg # of iterations =  3.0

     total cpu time spent up to now is        5.1 secs

     total energy              =    -500.71673986 Ry
     estimated scf accuracy    <       0.03485541 Ry

     iteration #  9     ecut=    30.00 Ry     beta= 0.50
     Davidson diagonalization with overlap
     ethr =  1.36E-05,  avg # of iterations = 13.0

     total cpu time spent up to now is        5.3 secs

     total energy              =    -500.71949330 Ry
     estimated scf accuracy    <       0.00399925 Ry

     iteration # 10     ecut=    30.00 Ry     beta= 0.50
     Davidson diagonalization with overlap
     ethr =  1.56E-06,  avg # of iterations =  8.0

     total cpu time spent up to now is        5.4 secs

     total energy              =    -500.71959377 Ry
     estimated scf accuracy    <       0.00948559 Ry

     iteration # 11     ecut=    30.00 Ry     beta= 0.50
     Davidson diagonalization with overlap
     ethr =  1.56E-06,  avg # of iterations =  3.0

     total cpu time spent up to now is        5.5 secs

     total energy              =    -500.72025582 Ry
     estimated scf accuracy    <       0.00070434 Ry

     iteration # 12     ecut=    30.00 Ry     beta= 0.50
     Davidson diagonalization with overlap
     ethr =  2.75E-07,  avg # of iterations =  4.0

     total cpu time spent up to now is        5.6 secs

     total energy              =    -500.72029545 Ry
     estimated scf accuracy    <       0.00077682 Ry

     iteration # 13     ecut=    30.00 Ry     beta= 0.50
     Davidson diagonalization with overlap
     ethr =  2.75E-07,  avg # of iterations =  3.0

     total cpu time spent up to now is        5.8 secs

     total energy              =    -500.72034460 Ry
     estimated scf accuracy    <       0.00094373 Ry

     iteration # 14     ecut=    30.00 Ry     beta= 0.50
     Davidson diagonalization with overlap
     ethr =  2.75E-07,  avg # of iterations =  1.0

     total cpu time spent up to now is        5.8 secs

     total energy              =    -500.72040235 Ry
     estimated scf accuracy    <       0.00008104 Ry

     iteration # 15     ecut=    30.00 Ry     beta= 0.50
     Davidson diagonalization with overlap
     ethr =  3.17E-08,  avg # of iterations =  4.0

     total cpu time spent up to now is        6.0 secs

     total energy              =    -500.72041272 Ry
     estimated scf accuracy    <       0.00006983 Ry

     iteration # 16     ecut=    30.00 Ry     beta= 0.50
     Davidson diagonalization with overlap
     ethr =  2.73E-08,  avg # of iterations =  2.0

     total cpu time spent up to now is        6.1 secs

     total energy              =    -500.72041793 Ry
     estimated scf accuracy    <       0.00001289 Ry

     iteration # 17     ecut=    30.00 Ry     beta= 0.50
     Davidson diagonalization with overlap
     ethr =  5.03E-09,  avg # of iterations =  2.0

     total cpu time spent up to now is        6.2 secs

     total energy              =    -500.72041878 Ry
     estimated scf accuracy    <       0.00000777 Ry

     iteration # 18     ecut=    30.00 Ry     beta= 0.50
     Davidson diagonalization with overlap
     ethr =  3.04E-09,  avg # of iterations =  3.0

     total cpu time spent up to now is        6.3 secs

     total energy              =    -500.72041896 Ry
     estimated scf accuracy    <       0.00001849 Ry

     iteration # 19     ecut=    30.00 Ry     beta= 0.50
     Davidson diagonalization with overlap
     ethr =  3.04E-09,  avg # of iterations =  2.0

     total cpu time spent up to now is        6.4 secs

     total energy              =    -500.72041992 Ry
     estimated scf accuracy    <       0.00000290 Ry

     iteration # 20     ecut=    30.00 Ry     beta= 0.50
     Davidson diagonalization with overlap
     ethr =  1.13E-09,  avg # of iterations =  2.0

     total cpu time spent up to now is        6.4 secs

     End of self-consistent calculation

          k = 0.0000 0.0000 0.0000 ( 12287 PWs)   bands (ev):

    -6.5047  -5.9518  -5.7999  -5.5691  -5.2703  -5.0221  -4.7852  -4.6281
    -4.6077  -4.2561  -4.2022  -4.0914  -3.9892  -3.8975  -3.7857  -3.6895
    -3.5362  -3.4110  -3.2064  -3.0662  -2.9724  -2.8452  -2.6621  -2.6127
    -2.3519  -2.2841  -2.0704  -1.9210  -1.7309  -1.5175  -1.4794  -1.3699
    -1.2517  -1.1874  -1.0531  -0.9998  -0.9241  -0.9011  -0.6780  -0.6468
    -0.6285  -0.5629  -0.5343  -0.4056  -0.2902  -0.1489  -0.0637  -0.0436
     0.0876   0.1440   0.2546   0.3746   0.5271   0.5747   0.7820   0.9043
     0.9901   1.0370   1.1465   1.3318   1.5097   1.5258   1.5979   1.6292
     1.7126   1.8407   1.9053   2.0166   2.1812   2.2000   2.2410   2.3292
     2.3625   2.5774   2.6107   2.6781   2.7222   2.8878   2.9310   2.9496
     3.0927   3.1641   3.1896   3.3012   3.4268   3.5840   3.6233   3.7010
     3.7734   3.8127   3.8807   3.9344   4.0187   4.1545   4.2032   4.2565
     4.2857   4.3632   4.4636   4.4820   4.5066   4.5705   4.6441   4.6967
     4.7410   4.8267   4.9134   4.9692   5.0111   5.1368   5.1718   5.2005
     5.2629   5.3207   5.4282   5.5108   5.5427   5.5881   5.6228   5.7206
     5.7365   5.7835   5.9287   5.9668   5.9714   6.0240   6.0700   6.1046
     6.1717   6.2162   6.2935   6.3834   6.4183   6.4892   6.5102   6.5715
     6.6525   6.7362   6.7554   6.8408   6.8992   6.9745   7.0416   7.0581
     7.1597   7.1881   7.2479   7.3179   7.3344   7.3892   7.5139   7.5654
     7.6257   7.6657

     the Fermi energy is     6.1627 ev

!    total energy              =    -500.72041996 Ry
     estimated scf accuracy    <       0.00000032 Ry
     smearing contrib. (-TS)   =      -0.16259365 Ry
     internal energy E=F+TS    =    -500.55782630 Ry

     The total energy is F=E-TS. E is the sum of the following terms:
     one-electron contribution =     118.16915078 Ry
     hartree contribution      =      49.92500978 Ry
     xc contribution           =    -150.06447846 Ry
     ewald contribution        =    -518.58750840 Ry

     convergence has been achieved in  20 iterations

     Forces acting on atoms (cartesian axes, Ry/au):

     atom    1 type  1   force =    -0.01280729    0.02878238   -0.06230309
     atom    2 type  1   force =    -0.07250871   -0.03014575   -0.12721687
     atom    3 type  1   force =     0.00671680   -0.02318586   -0.02079673
     atom    4 type  1   force =     0.08569633    0.00596348   -0.03533206
     atom    5 type  1   force =    -0.01970524   -0.01454663   -0.02908813
     atom    6 type  1   force =    -0.02554590    0.01565386   -0.03095763
     atom    7 type  1   force =     0.05250649   -0.03638110    0.02519624
     atom    8 type  1   force =     0.00682979    0.04529378    0.00277618
     atom    9 type  1   force =    -0.04952012    0.03620211    0.02622915
     atom   10 type  1   force =    -0.01131160    0.01696215    0.00310929
     atom   11 type  1   force =    -0.00185158   -0.01251741   -0.01950850
     atom   12 type  1   force =     0.03579393   -0.01995057   -0.01048051
     atom   13 type  1   force =    -0.01123077   -0.00640488   -0.01676947
     atom   14 type  1   force =     0.03567141   -0.00649099    0.02269333
     atom   15 type  1   force =     0.02953918    0.02084079    0.00092604
     atom   16 type  1   force =    -0.08222104   -0.02930504    0.15526710
     atom   17 type  1   force =     0.02673303   -0.01301136    0.03006340
     atom   18 type  1   force =    -0.02632113   -0.00576498    0.04081394
     atom   19 type  1   force =    -0.02961306    0.02717030    0.01020603
     atom   20 type  1   force =     0.02424263    0.01328927    0.02949484
     atom   21 type  1   force =     0.02068674   -0.00662539   -0.04075430
     atom   22 type  1   force =    -0.00959423   -0.05782012    0.01134896
     atom   23 type  1   force =    -0.00764438    0.03238515    0.02714713
     atom   24 type  1   force =    -0.01534704   -0.03624956   -0.04759730
     atom   25 type  1   force =     0.00306440    0.00756925   -0.01014198
     atom   26 type  1   force =     0.00254541   -0.02695549   -0.01404998
     atom   27 type  1   force =    -0.05951142   -0.06879244   -0.01982018
     atom   28 type  1   force =    -0.04065443   -0.03295427    0.02855487
     atom   29 type  1   force =     0.15411151    0.03683274   -0.03788110
     atom   30 type  1   force =     0.05244933    0.01579137    0.01484476
     atom   31 type  1   force =     0.01929687    0.01996631    0.01973593
     atom   32 type  1   force =     0.01272109    0.00493221    0.01841336
     atom   33 type  1   force =    -0.02743917    0.02968779   -0.03422556
     atom   34 type  1   force =    -0.00762168    0.03333114    0.00769684
     atom   35 type  1   force =    -0.04494041    0.01169504   -0.00291356
     atom   36 type  1   force =     0.01747965    0.00391291    0.02944574
     atom   37 type  1   force =    -0.00689655   -0.02370573   -0.02894588
     atom   38 type  1   force =     0.10083065   -0.03982776   -0.02493866
     atom   39 type  1   force =    -0.04502703    0.00749750    0.00314715
     atom   40 type  1   force =    -0.00929485   -0.03095608    0.01017950
     atom   41 type  1   force =    -0.05168768    0.00325594    0.00556857
     atom   42 type  1   force =     0.01844576   -0.01741825   -0.01029996
     atom   43 type  1   force =     0.05071061    0.02676856    0.00569587
     atom   44 type  1   force =    -0.02179044    0.06292735    0.04412893
     atom   45 type  1   force =     0.02223208   -0.04593862   -0.02340120
     atom   46 type  1   force =    -0.01751545   -0.03191135    0.01773864
     atom   47 type  1   force =    -0.00216332   -0.00723529   -0.00610884
     atom   48 type  1   force =    -0.03136793    0.01080345    0.01559334
     atom   49 type  1   force =    -0.01706019    0.01198850    0.02233901
     atom   50 type  1   force =     0.00259027    0.00579968   -0.00780689
     atom   51 type  1   force =     0.03281540    0.01876311   -0.00894773
     atom   52 type  1   force =     0.01461327    0.00966060   -0.01205710
     atom   53 type  1   force =    -0.01590685   -0.00763522   -0.03503065
     atom   54 type  1   force =     0.01661079    0.00911328    0.00894405
     atom   55 type  1   force =     0.02870262   -0.02727589    0.03807417
     atom   56 type  1   force =     0.04818922   -0.00711125    0.02350205
     atom   57 type  1   force =     0.02682221    0.00027417    0.00880604
     atom   58 type  1   force =    -0.01327199    0.00842067    0.02403762
     atom   59 type  1   force =    -0.02025732    0.02621038   -0.00002400
     atom   60 type  1   force =    -0.03028467    0.00515372   -0.03919260
     atom   61 type  1   force =    -0.09099342    0.02173988    0.02221568
     atom   62 type  1   force =    -0.00631732    0.04793653   -0.01475363
     atom   63 type  1   force =    -0.03668386    0.00812425   -0.01305027
     atom   64 type  1   force =     0.02326061   -0.02458235    0.03046059

     Total force =     0.478107     Total SCF correction =     0.000992


     Computing stress (Cartesian axis) and pressure

          total   stress  (Ry/bohr**3)                   (kbar)     P=      -18.35
  -0.00006875  -0.00000915  -0.00000024          -10.11       -1.35       -0.04
  -0.00000915  -0.00016040   0.00000576           -1.35      -23.60        0.85
  -0.00000024   0.00000576  -0.00014515           -0.04        0.85      -21.35

 
     init_run     :      0.63s CPU      4.10s WALL (       1 calls)
     electrons    :      2.12s CPU      2.29s WALL (       1 calls)
     forces       :      0.03s CPU      0.03s WALL (       1 calls)
     stress       :      0.15s CPU      0.15s WALL (       1 calls)

     Called by init_run:
     wfcinit      :      0.45s CPU      3.76s WALL (       1 calls)
                                        3.76s GPU  (       1 calls)
     potinit      :      0.03s CPU      0.11s WALL (       1 calls)
     hinit0       :      0.13s CPU      0.16s WALL (       1 calls)

     Called by electrons:
     c_bands      :      1.40s CPU      1.47s WALL (      21 calls)
     sum_band     :      0.38s CPU      0.44s WALL (      21 calls)
     v_of_rho     :      0.14s CPU      0.22s WALL (      21 calls)
     mix_rho      :      0.17s CPU      0.19s WALL (      21 calls)

     Called by c_bands:
     init_us_2    :      0.05s CPU      0.06s WALL (      43 calls)
     init_us_2:gp :      0.05s CPU      0.06s WALL (      43 calls)
     regterg      :      1.25s CPU      1.32s WALL (      21 calls)

     Called by *egterg:
     rdiaghg      :      0.40s CPU      1.08s WALL (      94 calls)
                                        1.06s GPU  (      94 calls)
     h_psi        :      1.12s CPU      3.81s WALL (      96 calls)
                                        3.81s GPU  (      96 calls)
     g_psi        :      0.00s CPU      0.00s WALL (      74 calls)
                                        0.00s GPU  (      74 calls)

     Called by h_psi:
     h_psi:calbec :      0.42s CPU      3.03s WALL (      96 calls)
                                        3.03s GPU  (      96 calls)
     vloc_psi     :      0.64s CPU      0.71s WALL (      96 calls)
                                        0.71s GPU  (      96 calls)
     add_vuspsi   :      0.04s CPU      0.06s WALL (      96 calls)
                                        0.05s GPU  (      96 calls)

     General routines
     calbec       :      0.43s CPU      3.04s WALL (     101 calls)
     fft          :      0.27s CPU      0.38s WALL (     175 calls)
                                        0.11s GPU  (     111 calls)
     ffts         :      0.04s CPU      0.05s WALL (      21 calls)
     fftw         :      0.71s CPU      0.91s WALL (    2217 calls)
                                        0.83s GPU  (    2217 calls)
 
     Parallel routines
 
     PWSCF        :      2.96s CPU      6.64s WALL

 
   This run was terminated on:   9:54: 1  11May2023            

=------------------------------------------------------------------------------=
   JOB DONE.
=------------------------------------------------------------------------------=
