An instance of this daemon is already running

     Program PWSCF v.7.1 starts on 10May2023 at 11:45:58 

     This program is part of the open-source Quantum ESPRESSO suite
     for quantum simulation of materials; please cite
         "P. Giannozzi et al., J. Phys.:Condens. Matter 21 395502 (2009);
         "P. Giannozzi et al., J. Phys.:Condens. Matter 29 465901 (2017);
         "P. Giannozzi et al., J. Chem. Phys. 152 154105 (2020);
          URL http://www.quantum-espresso.org", 
     in publications or presentations arising from this work. More details at
     http://www.quantum-espresso.org/quote

     Parallel version (MPI & OpenMP), running on       4 processor cores
     Number of MPI processes:                 4
     Threads/MPI process:                     1

     MPI processes distributed on     1 nodes
     707054 MiB available memory on the printing compute node when the environment starts
 
     Reading input from pw-si-97.in
Warning: card &CELL ignored
Warning: card / ignored

     Current dimensions of program PWSCF are:
     Max number of different atomic species (ntypx) = 10
     Max number of k-points (npk) =  40000
     Max angular momentum in pseudopotentials (lmaxx) =  4

     IMPORTANT: XC functional enforced from input :
     Exchange-correlation= PBE
                           (   1   4   3   4   0   0   0)
     Any further DFT definition will be discarded
     Please, verify this is what you really want


     gamma-point specific algorithms are used
 
     K-points division:     npool     =       2
     R & G space division:  proc/nbgrp/npool/nimage =       2
     Subspace diagonalization in iterative solution of the eigenvalue problem:
     a serial algorithm will be used

     Message from routine divide_et_impera:
     suboptimal parallelization: some nodes have no k-points
 
     Parallelization info
     --------------------
     sticks:   dense  smooth     PW     G-vecs:    dense   smooth      PW
     Min        2023    2023    537                99840    99840   13595
     Max        2024    2024    540                99841    99841   13600
     Sum        4047    4047   1077               199681   199681   27195
 
     Using Slab Decomposition
 


     bravais-lattice index     =            0
     lattice parameter (alat)  =      19.7867  a.u.
     unit-cell volume          =    8991.5747 (a.u.)^3
     number of atoms/cell      =           64
     number of atomic types    =            1
     number of electrons       =       256.00
     number of Kohn-Sham states=          154
     kinetic-energy cutoff     =      30.0000  Ry
     charge density cutoff     =     120.0000  Ry
     scf convergence threshold =      1.0E-06
     mixing beta               =       0.5000
     number of iterations used =            8  plain     mixing
     Exchange-correlation= PBE
                           (   1   4   3   4   0   0   0)

     GPU acceleration is ACTIVE.
     GPU-aware MPI enabled

     Message from routine print_cuda_info:
     High GPU oversubscription detected. Are you sure this is what you want?

     celldm(1)=  19.786711  celldm(2)=   0.000000  celldm(3)=   0.000000
     celldm(4)=   0.000000  celldm(5)=   0.000000  celldm(6)=   0.000000

     crystal axes: (cart. coord. in units of alat)
               a(1) = (   1.000000   0.000000   0.000000 )  
               a(2) = (   0.000000   1.081778   0.000000 )  
               a(3) = (   0.000000   0.000000   1.072943 )  

     reciprocal axes: (cart. coord. in units 2 pi/alat)
               b(1) = (  1.000000  0.000000  0.000000 )  
               b(2) = (  0.000000  0.924404  0.000000 )  
               b(3) = (  0.000000  0.000000  0.932016 )  


     PseudoPot. # 1 for Si read from file:
     /home/ppiaggi/pseudos/Si_ONCV_PBE_sr.upf
     MD5 check sum: 8553c464762ac42b85b1eed164b4d029
     Pseudo is Norm-conserving, Zval =  4.0
     Generated using ONCVPSP code by D. R. Hamann
     Using radial grid of 1510 points,  4 beta functions with: 
                l(1) =   0
                l(2) =   0
                l(3) =   1
                l(4) =   1

     atomic species   valence    mass     pseudopotential
        Si             4.00    28.08500     Si( 1.00)

     No symmetry found



   Cartesian axes

     site n.     atom                  positions (alat units)
         1           Si  tau(   1) = (  -0.0150100   0.0070460  -0.0142465  )
         2           Si  tau(   2) = (   0.0013207   0.2558639   0.2625921  )
         3           Si  tau(   3) = (   0.2318451   0.0109292   0.2574416  )
         4           Si  tau(   4) = (   0.2285281   0.2786205  -0.0041524  )
         5           Si  tau(   5) = (   0.1077124   0.1194957   0.1454787  )
         6           Si  tau(   6) = (   0.4669501  -0.0178012  -0.0013435  )
         7           Si  tau(   7) = (   0.4934875   0.2684467   0.2669206  )
         8           Si  tau(   8) = (   0.5918151   0.1526816   0.1217110  )
         9           Si  tau(   9) = (   0.7059262  -0.0016433   0.2500192  )
        10           Si  tau(  10) = (   0.7300954   0.2615002   0.0135944  )
        11           Si  tau(  11) = (  -0.0088938   0.5368143   0.0126828  )
        12           Si  tau(  12) = (   0.2418467   0.5572815   0.2375445  )
        13           Si  tau(  13) = (   0.1023164   0.6722947   0.1148441  )
        14           Si  tau(  14) = (   0.3543194   0.4197449   0.1378536  )
        15           Si  tau(  15) = (   0.4692172   0.5470017   0.0184525  )
        16           Si  tau(  16) = (   0.6091684   0.6847678   0.1171678  )
        17           Si  tau(  17) = (   0.8271917   0.3902321   0.1386380  )
        18           Si  tau(  18) = (   0.7028565   0.5381864   0.2609082  )
        19           Si  tau(  19) = (   0.0083107   0.8135172   0.2512822  )
        20           Si  tau(  20) = (   0.2253910   0.8277620  -0.0153494  )
        21           Si  tau(  21) = (   0.3532330   0.9325653   0.1180782  )
        22           Si  tau(  22) = (   0.4660284   0.8139137   0.2564457  )
        23           Si  tau(  23) = (   0.7199370   0.8280639   0.0082449  )
        24           Si  tau(  24) = (   0.8225134   0.9332635   0.1369665  )
        25           Si  tau(  25) = (  -0.0149788   0.0063954   0.5270674  )
        26           Si  tau(  26) = (   0.2507443   0.2643794   0.5005898  )
        27           Si  tau(  27) = (   0.1063599   0.1375751   0.6564908  )
        28           Si  tau(  28) = (   0.3463622   0.1379940   0.3985023  )
        29           Si  tau(  29) = (   0.4773190  -0.0182752   0.5001670  )
        30           Si  tau(  30) = (   0.6121538   0.1531864   0.6543693  )
        31           Si  tau(  31) = (   0.8373043   0.1459153   0.3717440  )
        32           Si  tau(  32) = (   0.7261932   0.2653463   0.4950365  )
        33           Si  tau(  33) = (   0.1046275   0.3902788   0.3812805  )
        34           Si  tau(  34) = (   0.0027568   0.5337209   0.5165157  )
        35           Si  tau(  35) = (   0.1104284   0.6795697   0.6443632  )
        36           Si  tau(  36) = (   0.5925617   0.3917359   0.3988157  )
        37           Si  tau(  37) = (   0.3650368   0.6677477   0.3748742  )
        38           Si  tau(  38) = (   0.3750824   0.4219120   0.6382047  )
        39           Si  tau(  39) = (   0.4881265   0.5415489   0.5154763  )
        40           Si  tau(  40) = (   0.5842508   0.6685607   0.6293961  )
        41           Si  tau(  41) = (   0.8387466   0.6601564   0.3766722  )
        42           Si  tau(  42) = (   0.8342468   0.4202245   0.6219688  )
        43           Si  tau(  43) = (   0.1114247   0.9281343   0.3814411  )
        44           Si  tau(  44) = (   0.2235352   0.8246504   0.4930207  )
        45           Si  tau(  45) = (   0.5841846   0.9471170   0.3957190  )
        46           Si  tau(  46) = (   0.3535910   0.9287002   0.6353478  )
        47           Si  tau(  47) = (   0.7091941   0.8035784   0.5202830  )
        48           Si  tau(  48) = (   0.8435371   0.9536248   0.6280787  )
        49           Si  tau(  49) = (  -0.0054118   0.2869379   0.7673520  )
        50           Si  tau(  50) = (   0.2442219  -0.0113055   0.7712109  )
        51           Si  tau(  51) = (   0.3534895   0.1498365   0.8996898  )
        52           Si  tau(  52) = (   0.4782598   0.2583157   0.7764050  )
        53           Si  tau(  53) = (   0.7157278   0.0075299   0.7550298  )
        54           Si  tau(  54) = (   0.8303234   0.1183998   0.8835717  )
        55           Si  tau(  55) = (   0.1170663   0.3873535   0.8863808  )
        56           Si  tau(  56) = (   0.2366642   0.5490011   0.7802463  )
        57           Si  tau(  57) = (   0.6141653   0.4137578   0.8840999  )
        58           Si  tau(  58) = (   0.3646391   0.6660848   0.8867275  )
        59           Si  tau(  59) = (   0.7149363   0.5356241   0.7685505  )
        60           Si  tau(  60) = (   0.8296659   0.6893480   0.8887157  )
        61           Si  tau(  61) = (  -0.0013465   0.8020781   0.7488475  )
        62           Si  tau(  62) = (   0.1205577   0.9459327   0.8975345  )
        63           Si  tau(  63) = (   0.4919790   0.7982551   0.7834768  )
        64           Si  tau(  64) = (   0.5949724   0.9570025   0.8794428  )

     number of k points=     1  Fermi-Dirac smearing, width (Ry)=  0.0100
                       cart. coord. in units 2pi/alat
        k(    1) = (   0.0000000   0.0000000   0.0000000), wk =   2.0000000

     Dense  grid:    99841 G-vectors     FFT dimensions: (  72,  75,  75)

     Estimated max dynamical RAM per process >     159.88 MB

     Estimated total dynamical RAM >     615.14 MB

     Initial potential from superposition of free atoms

     starting charge     255.9608, renormalised to     256.0000
     Starting wfcs are  256 randomized atomic wfcs

     total cpu time spent up to now is        5.1 secs

     Self-consistent Calculation

     iteration #  1     ecut=    30.00 Ry     beta= 0.50
     Davidson diagonalization with overlap
     ethr =  1.00E-02,  avg # of iterations =  3.0

     Threshold (ethr) on eigenvalues was too large:
     Diagonalizing with lowered threshold

     Davidson diagonalization with overlap
     ethr =  7.56E-04,  avg # of iterations =  4.0

     total cpu time spent up to now is        5.3 secs

     total energy              =    -501.71934760 Ry
     estimated scf accuracy    <       2.22677262 Ry

     iteration #  2     ecut=    30.00 Ry     beta= 0.50
     Davidson diagonalization with overlap
     ethr =  8.70E-04,  avg # of iterations =  4.0

     total cpu time spent up to now is        5.5 secs

     total energy              =    -501.27765327 Ry
     estimated scf accuracy    <       3.62304410 Ry

     iteration #  3     ecut=    30.00 Ry     beta= 0.50
     Davidson diagonalization with overlap
     ethr =  8.70E-04,  avg # of iterations =  5.0

     total cpu time spent up to now is        5.6 secs

     total energy              =    -501.83441006 Ry
     estimated scf accuracy    <       1.65850388 Ry

     iteration #  4     ecut=    30.00 Ry     beta= 0.50
     Davidson diagonalization with overlap
     ethr =  6.48E-04,  avg # of iterations =  2.0

     total cpu time spent up to now is        5.7 secs

     total energy              =    -501.95030286 Ry
     estimated scf accuracy    <       0.17846369 Ry

     iteration #  5     ecut=    30.00 Ry     beta= 0.50
     Davidson diagonalization with overlap
     ethr =  6.97E-05,  avg # of iterations = 13.0

     total cpu time spent up to now is        5.9 secs

     total energy              =    -501.97950677 Ry
     estimated scf accuracy    <       0.11760641 Ry

     iteration #  6     ecut=    30.00 Ry     beta= 0.50
     Davidson diagonalization with overlap
     ethr =  4.59E-05,  avg # of iterations =  3.0

     total cpu time spent up to now is        6.0 secs

     total energy              =    -501.99483153 Ry
     estimated scf accuracy    <       0.01749336 Ry

     iteration #  7     ecut=    30.00 Ry     beta= 0.50
     Davidson diagonalization with overlap
     ethr =  6.83E-06,  avg # of iterations =  6.0

     total cpu time spent up to now is        6.2 secs

     total energy              =    -501.99679513 Ry
     estimated scf accuracy    <       0.00324552 Ry

     iteration #  8     ecut=    30.00 Ry     beta= 0.50
     Davidson diagonalization with overlap
     ethr =  1.27E-06,  avg # of iterations = 10.0

     total cpu time spent up to now is        6.3 secs

     total energy              =    -501.99703978 Ry
     estimated scf accuracy    <       0.00306398 Ry

     iteration #  9     ecut=    30.00 Ry     beta= 0.50
     Davidson diagonalization with overlap
     ethr =  1.20E-06,  avg # of iterations =  3.0

     total cpu time spent up to now is        6.4 secs

     total energy              =    -501.99741772 Ry
     estimated scf accuracy    <       0.00033169 Ry

     iteration # 10     ecut=    30.00 Ry     beta= 0.50
     Davidson diagonalization with overlap
     ethr =  1.30E-07,  avg # of iterations =  4.0

     total cpu time spent up to now is        6.6 secs

     total energy              =    -501.99745978 Ry
     estimated scf accuracy    <       0.00009931 Ry

     iteration # 11     ecut=    30.00 Ry     beta= 0.50
     Davidson diagonalization with overlap
     ethr =  3.88E-08,  avg # of iterations =  4.0

     total cpu time spent up to now is        6.7 secs

     total energy              =    -501.99747069 Ry
     estimated scf accuracy    <       0.00003936 Ry

     iteration # 12     ecut=    30.00 Ry     beta= 0.50
     Davidson diagonalization with overlap
     ethr =  1.54E-08,  avg # of iterations =  4.0

     total cpu time spent up to now is        6.8 secs

     total energy              =    -501.99747625 Ry
     estimated scf accuracy    <       0.00001982 Ry

     iteration # 13     ecut=    30.00 Ry     beta= 0.50
     Davidson diagonalization with overlap
     ethr =  7.74E-09,  avg # of iterations =  2.0

     total cpu time spent up to now is        6.9 secs

     total energy              =    -501.99747817 Ry
     estimated scf accuracy    <       0.00000228 Ry

     iteration # 14     ecut=    30.00 Ry     beta= 0.50
     Davidson diagonalization with overlap
     ethr =  8.89E-10,  avg # of iterations =  5.0

     total cpu time spent up to now is        7.0 secs

     End of self-consistent calculation

          k = 0.0000 0.0000 0.0000 ( 12488 PWs)   bands (ev):

    -6.2917  -5.5234  -5.4266  -5.3136  -5.1411  -4.9975  -4.8417  -4.7179
    -4.6206  -4.4848  -4.4106  -4.2770  -4.2479  -4.1814  -4.1219  -4.1160
    -4.0550  -3.9813  -3.8892  -3.8505  -3.5722  -3.5236  -3.0478  -2.6661
    -2.6321  -2.5409  -2.3177  -2.2775  -2.2374  -2.1273  -1.9918  -1.9465
    -1.8293  -1.7007  -1.6915  -1.6653  -1.5292  -1.4772  -1.4241  -1.3461
    -1.2905  -1.2297  -1.0344  -0.8802  -0.7184  -0.0667  -0.0270   0.0117
     0.0815   0.1801   0.2664   0.3659   0.4407   0.5161   0.6341   0.7928
     0.8998   1.4817   1.5499   1.5601   1.6149   1.6596   1.6992   1.7615
     1.7758   1.8227   1.8595   1.8987   1.9381   1.9796   2.0224   2.0387
     2.0667   2.0706   2.1917   2.2169   2.2679   2.3259   2.3503   2.4204
     2.5089   2.5390   2.5792   2.6735   2.6954   2.7811   2.8893   2.9438
     2.9958   3.0906   3.1245   3.3651   3.4307   3.4907   3.5699   3.6577
     3.6781   3.7578   3.8249   3.8771   3.9007   3.9478   3.9930   4.0852
     4.1135   4.1947   4.2655   4.2799   4.3426   4.4129   4.4673   4.5351
     4.6045   4.6635   4.7834   4.8313   4.8761   4.8825   5.0228   5.0321
     5.2047   5.2640   5.3328   5.4846   5.5979   5.7493   5.8281   6.0586
     6.1076   6.2220   6.2445   6.4398   6.4892   6.5742   6.6413   6.6647
     6.7093   6.7144   6.7719   6.8197   6.8795   6.9348   7.0166   7.2167
     7.2890   7.3219   7.5266   7.5815   7.6799   7.7746   7.8608   7.8879
     7.9095   7.9997

     the Fermi energy is     6.0355 ev

!    total energy              =    -501.99747856 Ry
     estimated scf accuracy    <       0.00000032 Ry
     smearing contrib. (-TS)   =      -0.08392713 Ry
     internal energy E=F+TS    =    -501.91355142 Ry

     The total energy is F=E-TS. E is the sum of the following terms:
     one-electron contribution =     122.32325831 Ry
     hartree contribution      =      46.03906376 Ry
     xc contribution           =    -152.95374062 Ry
     ewald contribution        =    -517.32213287 Ry

     convergence has been achieved in  14 iterations

     Forces acting on atoms (cartesian axes, Ry/au):

     atom    1 type  1   force =    -0.04449647   -0.04020331   -0.02827298
     atom    2 type  1   force =    -0.13494627    0.02138427   -0.02455983
     atom    3 type  1   force =     0.08036630   -0.12437511    0.05564268
     atom    4 type  1   force =     0.00312309   -0.01566242   -0.02024933
     atom    5 type  1   force =    -0.04161818    0.06310760   -0.16951622
     atom    6 type  1   force =     0.07093995    0.08268851   -0.08537813
     atom    7 type  1   force =    -0.12680458   -0.00348893   -0.02274236
     atom    8 type  1   force =    -0.03365850   -0.12561745   -0.01096367
     atom    9 type  1   force =     0.00413676    0.02813009    0.02529676
     atom   10 type  1   force =     0.00058114   -0.01306555   -0.16914755
     atom   11 type  1   force =    -0.10739508   -0.10483329   -0.10132166
     atom   12 type  1   force =    -0.08776450   -0.00912312    0.07382781
     atom   13 type  1   force =     0.06975734    0.08929207    0.01019772
     atom   14 type  1   force =     0.02738319   -0.14484097   -0.03100521
     atom   15 type  1   force =     0.04466788    0.04064087   -0.13220800
     atom   16 type  1   force =    -0.05748604   -0.01739126    0.05312864
     atom   17 type  1   force =     0.11847985    0.07211651    0.04616696
     atom   18 type  1   force =     0.01209936   -0.03158483   -0.02598471
     atom   19 type  1   force =    -0.16153842   -0.05660076   -0.05946751
     atom   20 type  1   force =    -0.02028757   -0.07290436   -0.04972893
     atom   21 type  1   force =    -0.04491222    0.04030476    0.04856869
     atom   22 type  1   force =     0.07456239   -0.01711208   -0.01799241
     atom   23 type  1   force =    -0.05877253   -0.06787459   -0.20800527
     atom   24 type  1   force =     0.17763843    0.09631602    0.07688957
     atom   25 type  1   force =    -0.02547190   -0.00610297   -0.07171772
     atom   26 type  1   force =    -0.15276490    0.18346642    0.19064456
     atom   27 type  1   force =     0.05867018   -0.00990400   -0.03246727
     atom   28 type  1   force =     0.16271472   -0.16776469   -0.16070432
     atom   29 type  1   force =    -0.11975871    0.18245780    0.18321425
     atom   30 type  1   force =    -0.03739034   -0.01563434   -0.11656206
     atom   31 type  1   force =     0.08388375   -0.10245358   -0.03513509
     atom   32 type  1   force =     0.00154780    0.03296276    0.11765084
     atom   33 type  1   force =     0.08771079    0.07418306    0.01815750
     atom   34 type  1   force =    -0.07787166    0.01131107   -0.02029246
     atom   35 type  1   force =     0.10832714   -0.08769286   -0.10360022
     atom   36 type  1   force =     0.02005232    0.08194217   -0.02678658
     atom   37 type  1   force =    -0.03760954    0.02405825    0.04881752
     atom   38 type  1   force =    -0.08869646   -0.09380545    0.07169109
     atom   39 type  1   force =    -0.06333201   -0.03884859   -0.12132964
     atom   40 type  1   force =     0.09616625    0.07979948    0.13312227
     atom   41 type  1   force =     0.07341190    0.05215749    0.04166289
     atom   42 type  1   force =     0.07040168   -0.03648219    0.02759370
     atom   43 type  1   force =    -0.09347087    0.24825694   -0.06035762
     atom   44 type  1   force =     0.15116016   -0.19860802    0.15667173
     atom   45 type  1   force =     0.14140057   -0.13451709   -0.15959310
     atom   46 type  1   force =     0.03146799    0.01610076    0.03029914
     atom   47 type  1   force =     0.05976133    0.02741863   -0.05334672
     atom   48 type  1   force =     0.02186312   -0.05119760    0.02725078
     atom   49 type  1   force =    -0.17224789   -0.07382648   -0.07442194
     atom   50 type  1   force =     0.00754031    0.05832883   -0.00479359
     atom   51 type  1   force =    -0.06051191   -0.07978971    0.09145542
     atom   52 type  1   force =     0.02897955    0.12760822   -0.01576201
     atom   53 type  1   force =     0.01187587   -0.10468547   -0.00948444
     atom   54 type  1   force =     0.11778138    0.10619185    0.13158722
     atom   55 type  1   force =     0.08261900    0.09542460    0.15214751
     atom   56 type  1   force =    -0.04670929   -0.07673052   -0.07671293
     atom   57 type  1   force =    -0.11630325   -0.13423793    0.16089861
     atom   58 type  1   force =     0.02335717    0.02647437    0.17245345
     atom   59 type  1   force =     0.07961884    0.11950620   -0.10050673
     atom   60 type  1   force =     0.05059639    0.02072910    0.04384387
     atom   61 type  1   force =    -0.15499232    0.13994379    0.13691611
     atom   62 type  1   force =    -0.05725724   -0.01685153    0.03535457
     atom   63 type  1   force =    -0.03090596    0.02114628   -0.07868204
     atom   64 type  1   force =     0.00033076    0.01036232    0.11764835

     Total force =     1.247633     Total SCF correction =     0.000896


     Computing stress (Cartesian axis) and pressure

          total   stress  (Ry/bohr**3)                   (kbar)     P=       41.73
   0.00035346   0.00013569   0.00002406           52.00       19.96        3.54
   0.00013569   0.00021981   0.00023167           19.96       32.33       34.08
   0.00002406   0.00023167   0.00027782            3.54       34.08       40.87

 
     init_run     :      1.10s CPU      5.00s WALL (       1 calls)
     electrons    :      1.84s CPU      1.97s WALL (       1 calls)
     forces       :      0.04s CPU      0.05s WALL (       1 calls)
     stress       :      0.17s CPU      0.17s WALL (       1 calls)

     Called by init_run:
     wfcinit      :      0.55s CPU      4.26s WALL (       1 calls)
                                        4.26s GPU  (       1 calls)
     potinit      :      0.21s CPU      0.31s WALL (       1 calls)
     hinit0       :      0.32s CPU      0.35s WALL (       1 calls)

     Called by electrons:
     c_bands      :      1.17s CPU      1.22s WALL (      15 calls)
     sum_band     :      0.35s CPU      0.39s WALL (      15 calls)
     v_of_rho     :      0.16s CPU      0.27s WALL (      15 calls)
     mix_rho      :      0.15s CPU      0.16s WALL (      15 calls)

     Called by c_bands:
     init_us_2    :      0.06s CPU      0.06s WALL (      31 calls)
     init_us_2:gp :      0.05s CPU      0.06s WALL (      31 calls)
     regterg      :      1.04s CPU      1.08s WALL (      15 calls)

     Called by *egterg:
     rdiaghg      :      0.42s CPU      1.18s WALL (      86 calls)
                                        1.16s GPU  (      86 calls)
     h_psi        :      0.99s CPU      3.98s WALL (      88 calls)
                                        3.97s GPU  (      88 calls)
     g_psi        :      0.00s CPU      0.00s WALL (      72 calls)
                                        0.00s GPU  (      72 calls)

     Called by h_psi:
     h_psi:calbec :      0.49s CPU      3.40s WALL (      88 calls)
                                        3.40s GPU  (      88 calls)
     vloc_psi     :      0.44s CPU      0.51s WALL (      88 calls)
                                        0.51s GPU  (      88 calls)
     add_vuspsi   :      0.04s CPU      0.05s WALL (      88 calls)
                                        0.05s GPU  (      88 calls)

     General routines
     calbec       :      0.50s CPU      3.41s WALL (      93 calls)
     fft          :      0.43s CPU      0.57s WALL (     127 calls)
                                        0.14s GPU  (      81 calls)
     ffts         :      0.05s CPU      0.05s WALL (      15 calls)
     fftw         :      0.50s CPU      0.65s WALL (    1621 calls)
                                        0.59s GPU  (    1621 calls)
 
     Parallel routines
 
     PWSCF        :      3.19s CPU      7.28s WALL

 
   This run was terminated on:  11:46: 5  10May2023            

=------------------------------------------------------------------------------=
   JOB DONE.
=------------------------------------------------------------------------------=
