An instance of this daemon is already running

     Program PWSCF v.7.1 starts on 10May2023 at 11:44:30 

     This program is part of the open-source Quantum ESPRESSO suite
     for quantum simulation of materials; please cite
         "P. Giannozzi et al., J. Phys.:Condens. Matter 21 395502 (2009);
         "P. Giannozzi et al., J. Phys.:Condens. Matter 29 465901 (2017);
         "P. Giannozzi et al., J. Chem. Phys. 152 154105 (2020);
          URL http://www.quantum-espresso.org", 
     in publications or presentations arising from this work. More details at
     http://www.quantum-espresso.org/quote

     Parallel version (MPI & OpenMP), running on       4 processor cores
     Number of MPI processes:                 4
     Threads/MPI process:                     1

     MPI processes distributed on     1 nodes
     707045 MiB available memory on the printing compute node when the environment starts
 
     Reading input from pw-si-88.in
Warning: card &CELL ignored
Warning: card / ignored

     Current dimensions of program PWSCF are:
     Max number of different atomic species (ntypx) = 10
     Max number of k-points (npk) =  40000
     Max angular momentum in pseudopotentials (lmaxx) =  4

     IMPORTANT: XC functional enforced from input :
     Exchange-correlation= PBE
                           (   1   4   3   4   0   0   0)
     Any further DFT definition will be discarded
     Please, verify this is what you really want


     gamma-point specific algorithms are used
 
     K-points division:     npool     =       2
     R & G space division:  proc/nbgrp/npool/nimage =       2
     Subspace diagonalization in iterative solution of the eigenvalue problem:
     a serial algorithm will be used

     Message from routine divide_et_impera:
     suboptimal parallelization: some nodes have no k-points
 
     Parallelization info
     --------------------
     sticks:   dense  smooth     PW     G-vecs:    dense   smooth      PW
     Min        2091    2091    550                99529    99529   13527
     Max        2094    2094    551                99534    99534   13530
     Sum        4185    4185   1101               199063   199063   27057
 
     Using Slab Decomposition
 


     bravais-lattice index     =            0
     lattice parameter (alat)  =      20.8614  a.u.
     unit-cell volume          =    8963.9362 (a.u.)^3
     number of atoms/cell      =           64
     number of atomic types    =            1
     number of electrons       =       256.00
     number of Kohn-Sham states=          154
     kinetic-energy cutoff     =      30.0000  Ry
     charge density cutoff     =     120.0000  Ry
     scf convergence threshold =      1.0E-06
     mixing beta               =       0.5000
     number of iterations used =            8  plain     mixing
     Exchange-correlation= PBE
                           (   1   4   3   4   0   0   0)

     GPU acceleration is ACTIVE.
     GPU-aware MPI enabled

     Message from routine print_cuda_info:
     High GPU oversubscription detected. Are you sure this is what you want?

     celldm(1)=  20.861360  celldm(2)=   0.000000  celldm(3)=   0.000000
     celldm(4)=   0.000000  celldm(5)=   0.000000  celldm(6)=   0.000000

     crystal axes: (cart. coord. in units of alat)
               a(1) = (   1.000000   0.000000   0.000000 )  
               a(2) = (   0.000000   1.005102   0.000000 )  
               a(3) = (   0.000000   0.000000   0.982338 )  

     reciprocal axes: (cart. coord. in units 2 pi/alat)
               b(1) = (  1.000000  0.000000  0.000000 )  
               b(2) = (  0.000000  0.994924  0.000000 )  
               b(3) = (  0.000000  0.000000  1.017980 )  


     PseudoPot. # 1 for Si read from file:
     /home/ppiaggi/pseudos/Si_ONCV_PBE_sr.upf
     MD5 check sum: 8553c464762ac42b85b1eed164b4d029
     Pseudo is Norm-conserving, Zval =  4.0
     Generated using ONCVPSP code by D. R. Hamann
     Using radial grid of 1510 points,  4 beta functions with: 
                l(1) =   0
                l(2) =   0
                l(3) =   1
                l(4) =   1

     atomic species   valence    mass     pseudopotential
        Si             4.00    28.08500     Si( 1.00)

     No symmetry found



   Cartesian axes

     site n.     atom                  positions (alat units)
         1           Si  tau(   1) = (   0.0083340  -0.0094633   0.0054510  )
         2           Si  tau(   2) = (  -0.0088813   0.2614327   0.2546699  )
         3           Si  tau(   3) = (   0.2762946   0.0126527   0.2287647  )
         4           Si  tau(   4) = (   0.2680729   0.2572435  -0.0034630  )
         5           Si  tau(   5) = (   0.1158890   0.1347674   0.1244918  )
         6           Si  tau(   6) = (   0.5230595  -0.0048574   0.0070981  )
         7           Si  tau(   7) = (   0.5118398   0.2535266   0.2375950  )
         8           Si  tau(   8) = (   0.6606053   0.1235214   0.1032625  )
         9           Si  tau(   9) = (   0.7720059   0.0047673   0.2388253  )
        10           Si  tau(  10) = (   0.7777413   0.2335776   0.0012641  )
        11           Si  tau(  11) = (  -0.0019540   0.5104951   0.0137068  )
        12           Si  tau(  12) = (   0.2751448   0.4916127   0.2358191  )
        13           Si  tau(  13) = (   0.1272388   0.6120971   0.1287986  )
        14           Si  tau(  14) = (   0.3825840   0.3816423   0.1343775  )
        15           Si  tau(  15) = (   0.5300751   0.4925827  -0.0075027  )
        16           Si  tau(  16) = (   0.6364001   0.6315018   0.1116430  )
        17           Si  tau(  17) = (   0.9101976   0.3613048   0.1303252  )
        18           Si  tau(  18) = (   0.7723023   0.4920951   0.2377229  )
        19           Si  tau(  19) = (  -0.0133762   0.7389931   0.2333780  )
        20           Si  tau(  20) = (   0.2572458   0.7447549   0.0154951  )
        21           Si  tau(  21) = (   0.3889105   0.8763403   0.1265799  )
        22           Si  tau(  22) = (   0.5244001   0.7370330   0.2543111  )
        23           Si  tau(  23) = (   0.7820690   0.7508783  -0.0038933  )
        24           Si  tau(  24) = (   0.8932410   0.8701123   0.1267337  )
        25           Si  tau(  25) = (  -0.0037601   0.0077126   0.4594710  )
        26           Si  tau(  26) = (   0.2706193   0.2481800   0.4839489  )
        27           Si  tau(  27) = (   0.1123626   0.1380171   0.5831957  )
        28           Si  tau(  28) = (   0.3995554   0.1380741   0.3429191  )
        29           Si  tau(  29) = (   0.5013890  -0.0075709   0.4712197  )
        30           Si  tau(  30) = (   0.6588608   0.1339649   0.6045067  )
        31           Si  tau(  31) = (   0.9167551   0.1170514   0.3466503  )
        32           Si  tau(  32) = (   0.7616453   0.2462234   0.4799286  )
        33           Si  tau(  33) = (   0.1402708   0.3891741   0.3722372  )
        34           Si  tau(  34) = (  -0.0055950   0.5076062   0.4737057  )
        35           Si  tau(  35) = (   0.1381690   0.6445057   0.5923275  )
        36           Si  tau(  36) = (   0.6381248   0.3699241   0.3519232  )
        37           Si  tau(  37) = (   0.3873994   0.6303699   0.3451719  )
        38           Si  tau(  38) = (   0.3908039   0.3711252   0.6114460  )
        39           Si  tau(  39) = (   0.5203028   0.4861172   0.4768936  )
        40           Si  tau(  40) = (   0.6657340   0.6096489   0.5843787  )
        41           Si  tau(  41) = (   0.8964313   0.6267576   0.3477327  )
        42           Si  tau(  42) = (   0.9037390   0.3945731   0.5869894  )
        43           Si  tau(  43) = (   0.1472569   0.8830517   0.3703519  )
        44           Si  tau(  44) = (   0.2602749   0.7485229   0.4703498  )
        45           Si  tau(  45) = (   0.6410251   0.8827549   0.3591312  )
        46           Si  tau(  46) = (   0.3861727   0.8942077   0.6035094  )
        47           Si  tau(  47) = (   0.7803823   0.7410722   0.4648062  )
        48           Si  tau(  48) = (   0.9020133   0.8886837   0.5792272  )
        49           Si  tau(  49) = (  -0.0101539   0.2370427   0.7286669  )
        50           Si  tau(  50) = (   0.2740837   0.0003570   0.6986992  )
        51           Si  tau(  51) = (   0.3905081   0.1244675   0.8191414  )
        52           Si  tau(  52) = (   0.5256130   0.2339267   0.7179487  )
        53           Si  tau(  53) = (   0.7875330  -0.0122246   0.7033939  )
        54           Si  tau(  54) = (   0.9242455   0.1167358   0.8489136  )
        55           Si  tau(  55) = (   0.1342068   0.3897427   0.8306120  )
        56           Si  tau(  56) = (   0.2414536   0.4879593   0.7072162  )
        57           Si  tau(  57) = (   0.6523771   0.3716635   0.8443272  )
        58           Si  tau(  58) = (   0.3769053   0.6343097   0.8316771  )
        59           Si  tau(  59) = (   0.7770309   0.4949596   0.7050756  )
        60           Si  tau(  60) = (   0.9088527   0.6329231   0.8492603  )
        61           Si  tau(  61) = (   0.0161904   0.7442584   0.7181528  )
        62           Si  tau(  62) = (   0.1344571   0.8673880   0.8317092  )
        63           Si  tau(  63) = (   0.5188358   0.7475928   0.7187498  )
        64           Si  tau(  64) = (   0.6472032   0.8683979   0.8350801  )

     number of k points=     1  Fermi-Dirac smearing, width (Ry)=  0.0100
                       cart. coord. in units 2pi/alat
        k(    1) = (   0.0000000   0.0000000   0.0000000), wk =   2.0000000

     Dense  grid:    99532 G-vectors     FFT dimensions: (  75,  75,  72)

     Estimated max dynamical RAM per process >     159.26 MB

     Estimated total dynamical RAM >     612.73 MB

     Initial potential from superposition of free atoms

     starting charge     255.9608, renormalised to     256.0000
     Starting wfcs are  256 randomized atomic wfcs

     total cpu time spent up to now is        5.0 secs

     Self-consistent Calculation

     iteration #  1     ecut=    30.00 Ry     beta= 0.50
     Davidson diagonalization with overlap
     ethr =  1.00E-02,  avg # of iterations =  3.0

     Threshold (ethr) on eigenvalues was too large:
     Diagonalizing with lowered threshold

     Davidson diagonalization with overlap
     ethr =  6.89E-04,  avg # of iterations =  4.0

     total cpu time spent up to now is        5.3 secs

     total energy              =    -502.32543565 Ry
     estimated scf accuracy    <       2.00708823 Ry

     iteration #  2     ecut=    30.00 Ry     beta= 0.50
     Davidson diagonalization with overlap
     ethr =  7.84E-04,  avg # of iterations =  4.0

     total cpu time spent up to now is        5.4 secs

     total energy              =    -502.14056174 Ry
     estimated scf accuracy    <       1.18802642 Ry

     iteration #  3     ecut=    30.00 Ry     beta= 0.50
     Davidson diagonalization with overlap
     ethr =  4.64E-04,  avg # of iterations =  9.0

     total cpu time spent up to now is        5.6 secs

     total energy              =    -502.11744484 Ry
     estimated scf accuracy    <       2.74326590 Ry

     iteration #  4     ecut=    30.00 Ry     beta= 0.50
     Davidson diagonalization with overlap
     ethr =  4.64E-04,  avg # of iterations =  4.0

     total cpu time spent up to now is        5.7 secs

     total energy              =    -502.45227511 Ry
     estimated scf accuracy    <       0.09072348 Ry

     iteration #  5     ecut=    30.00 Ry     beta= 0.50
     Davidson diagonalization with overlap
     ethr =  3.54E-05,  avg # of iterations =  9.0

     total cpu time spent up to now is        5.9 secs

     total energy              =    -502.46380770 Ry
     estimated scf accuracy    <       0.04774582 Ry

     iteration #  6     ecut=    30.00 Ry     beta= 0.50
     Davidson diagonalization with overlap
     ethr =  1.87E-05,  avg # of iterations =  3.0

     total cpu time spent up to now is        6.0 secs

     total energy              =    -502.46632821 Ry
     estimated scf accuracy    <       0.01801957 Ry

     iteration #  7     ecut=    30.00 Ry     beta= 0.50
     Davidson diagonalization with overlap
     ethr =  7.04E-06,  avg # of iterations =  9.0

     total cpu time spent up to now is        6.2 secs

     total energy              =    -502.46828474 Ry
     estimated scf accuracy    <       0.00211363 Ry

     iteration #  8     ecut=    30.00 Ry     beta= 0.50
     Davidson diagonalization with overlap
     ethr =  8.26E-07,  avg # of iterations =  5.0

     total cpu time spent up to now is        6.3 secs

     total energy              =    -502.46873341 Ry
     estimated scf accuracy    <       0.00082558 Ry

     iteration #  9     ecut=    30.00 Ry     beta= 0.50
     Davidson diagonalization with overlap
     ethr =  3.22E-07,  avg # of iterations =  3.0

     total cpu time spent up to now is        6.4 secs

     total energy              =    -502.46874919 Ry
     estimated scf accuracy    <       0.00053562 Ry

     iteration # 10     ecut=    30.00 Ry     beta= 0.50
     Davidson diagonalization with overlap
     ethr =  2.09E-07,  avg # of iterations =  2.0

     total cpu time spent up to now is        6.5 secs

     total energy              =    -502.46878795 Ry
     estimated scf accuracy    <       0.00008561 Ry

     iteration # 11     ecut=    30.00 Ry     beta= 0.50
     Davidson diagonalization with overlap
     ethr =  3.34E-08,  avg # of iterations =  4.0

     total cpu time spent up to now is        6.7 secs

     total energy              =    -502.46879761 Ry
     estimated scf accuracy    <       0.00001288 Ry

     iteration # 12     ecut=    30.00 Ry     beta= 0.50
     Davidson diagonalization with overlap
     ethr =  5.03E-09,  avg # of iterations =  4.0

     total cpu time spent up to now is        6.8 secs

     total energy              =    -502.46880049 Ry
     estimated scf accuracy    <       0.00001259 Ry

     iteration # 13     ecut=    30.00 Ry     beta= 0.50
     Davidson diagonalization with overlap
     ethr =  4.92E-09,  avg # of iterations =  2.0

     total cpu time spent up to now is        6.9 secs

     total energy              =    -502.46880145 Ry
     estimated scf accuracy    <       0.00000349 Ry

     iteration # 14     ecut=    30.00 Ry     beta= 0.50
     Davidson diagonalization with overlap
     ethr =  1.36E-09,  avg # of iterations =  2.0

     total cpu time spent up to now is        7.0 secs

     End of self-consistent calculation

          k = 0.0000 0.0000 0.0000 ( 12458 PWs)   bands (ev):

    -6.2446  -5.4473  -5.3266  -5.2432  -5.0837  -4.9185  -4.8896  -4.5779
    -4.4917  -4.3823  -4.3373  -4.2172  -4.0778  -4.0271  -3.9404  -3.9092
    -3.8111  -3.7669  -3.7392  -3.6023  -3.5278  -3.4918  -3.1088  -2.6686
    -2.4465  -2.3709  -2.3051  -2.1368  -2.0462  -1.9677  -1.8620  -1.8355
    -1.8021  -1.7000  -1.6814  -1.5279  -1.4701  -1.4316  -1.3988  -1.3528
    -1.2306  -1.1607  -0.9926  -0.8594  -0.6914  -0.2021   0.0824   0.1914
     0.2132   0.2503   0.4065   0.4376   0.4586   0.5410   0.6057   0.6507
     0.7237   1.5153   1.5896   1.6574   1.6695   1.7358   1.8118   1.8590
     1.8868   1.9725   2.0045   2.0190   2.0823   2.1054   2.1434   2.1678
     2.2250   2.2376   2.2561   2.3216   2.3872   2.4232   2.4304   2.4682
     2.5044   2.5593   2.6093   2.6143   2.6930   2.7195   2.7463   2.8843
     2.9170   2.9726   3.1087   3.2160   3.2965   3.3867   3.7011   3.7474
     3.8182   3.9001   3.9349   3.9631   4.0246   4.0773   4.1574   4.2403
     4.2668   4.2933   4.3608   4.3788   4.4224   4.4642   4.5139   4.5544
     4.6328   4.6647   4.7112   4.7594   4.8637   4.9323   4.9912   5.0555
     5.0833   5.1477   5.2492   5.3204   5.5450   5.6878   5.9705   6.1024
     6.1769   6.2144   6.3349   6.3877   6.5435   6.7164   6.7446   6.8075
     6.8580   6.8875   6.9426   6.9734   7.0319   7.0533   7.1606   7.2090
     7.4787   7.5371   7.7609   7.8217   7.8420   7.9409   7.9694   8.0553
     8.1148   8.1606

     the Fermi energy is     6.0843 ev

!    total energy              =    -502.46880156 Ry
     estimated scf accuracy    <       0.00000038 Ry
     smearing contrib. (-TS)   =      -0.07946419 Ry
     internal energy E=F+TS    =    -502.38933737 Ry

     The total energy is F=E-TS. E is the sum of the following terms:
     one-electron contribution =     130.00076926 Ry
     hartree contribution      =      42.79971208 Ry
     xc contribution           =    -153.06576158 Ry
     ewald contribution        =    -522.12405712 Ry

     convergence has been achieved in  14 iterations

     Forces acting on atoms (cartesian axes, Ry/au):

     atom    1 type  1   force =     0.06186345   -0.01994603   -0.02546895
     atom    2 type  1   force =     0.24068775   -0.02188353    0.08757762
     atom    3 type  1   force =    -0.07440927   -0.01154756    0.02858042
     atom    4 type  1   force =    -0.04021072   -0.01533161   -0.04311423
     atom    5 type  1   force =     0.06613998   -0.00008148   -0.02030265
     atom    6 type  1   force =    -0.01985798   -0.01822429   -0.08502368
     atom    7 type  1   force =     0.08400232    0.01864265   -0.08572492
     atom    8 type  1   force =    -0.11073398   -0.04963373    0.09598242
     atom    9 type  1   force =    -0.01046153   -0.02151170   -0.00463291
     atom   10 type  1   force =     0.09550288    0.09694393   -0.10766953
     atom   11 type  1   force =     0.03219471   -0.04970399   -0.08031034
     atom   12 type  1   force =    -0.14550503    0.11858044    0.10457564
     atom   13 type  1   force =     0.05504194    0.04771948    0.01110540
     atom   14 type  1   force =     0.13337654   -0.09688241   -0.17285028
     atom   15 type  1   force =    -0.06821018    0.01585526   -0.01708217
     atom   16 type  1   force =     0.05730551   -0.02716298   -0.00058877
     atom   17 type  1   force =    -0.17687085    0.12678099   -0.18303289
     atom   18 type  1   force =    -0.03118963    0.01557663   -0.02722281
     atom   19 type  1   force =     0.20819747    0.06625397   -0.02960249
     atom   20 type  1   force =     0.00043136    0.00107667   -0.07440818
     atom   21 type  1   force =     0.03774591   -0.01898291   -0.01401760
     atom   22 type  1   force =     0.02178744    0.08522359   -0.07091223
     atom   23 type  1   force =    -0.06122774   -0.00450395   -0.03978741
     atom   24 type  1   force =    -0.05996982    0.07769268   -0.05185703
     atom   25 type  1   force =     0.20632792   -0.14080520    0.15056442
     atom   26 type  1   force =    -0.02292957    0.01185298   -0.01384104
     atom   27 type  1   force =     0.05623863   -0.02973641    0.02979209
     atom   28 type  1   force =    -0.06311322   -0.07547008    0.09603967
     atom   29 type  1   force =     0.05486839    0.06060227   -0.00397462
     atom   30 type  1   force =    -0.03296770   -0.10592383   -0.00490965
     atom   31 type  1   force =    -0.25502979    0.08325372   -0.08114959
     atom   32 type  1   force =     0.08181911    0.05192136   -0.05660270
     atom   33 type  1   force =     0.00715332   -0.03725331   -0.02028188
     atom   34 type  1   force =     0.17491859    0.09473596   -0.05278264
     atom   35 type  1   force =    -0.01444968   -0.10279142   -0.00501480
     atom   36 type  1   force =     0.03439518    0.00010155    0.01115519
     atom   37 type  1   force =    -0.01530498   -0.07138345    0.08195651
     atom   38 type  1   force =     0.02729910   -0.00903297   -0.02649124
     atom   39 type  1   force =    -0.03789397    0.04602568    0.01236286
     atom   40 type  1   force =    -0.08762210    0.05467927   -0.00390199
     atom   41 type  1   force =    -0.10980335   -0.10290207    0.04304497
     atom   42 type  1   force =    -0.09936818   -0.19081636    0.09623428
     atom   43 type  1   force =    -0.03625779    0.03719167   -0.08944152
     atom   44 type  1   force =     0.06799685    0.03041093    0.02562127
     atom   45 type  1   force =     0.01932443   -0.02004394    0.00649210
     atom   46 type  1   force =     0.09930647   -0.17419519   -0.09365761
     atom   47 type  1   force =    -0.04465619    0.07200716    0.04435920
     atom   48 type  1   force =    -0.01650312   -0.12531445    0.02360606
     atom   49 type  1   force =     0.12747913    0.18197699   -0.14020181
     atom   50 type  1   force =    -0.18588125    0.09227125    0.10907156
     atom   51 type  1   force =    -0.01276416   -0.02176038    0.12130828
     atom   52 type  1   force =     0.00092073    0.08626835    0.02778723
     atom   53 type  1   force =    -0.06352290    0.05134223    0.09139498
     atom   54 type  1   force =    -0.16534138   -0.11966997    0.10853298
     atom   55 type  1   force =    -0.08685005   -0.10297205    0.13212746
     atom   56 type  1   force =     0.09118314    0.11715719   -0.04697569
     atom   57 type  1   force =     0.01277085   -0.02684169    0.00420676
     atom   58 type  1   force =     0.00441211   -0.04171010    0.05375437
     atom   59 type  1   force =     0.00333045    0.01460087    0.12027709
     atom   60 type  1   force =    -0.07512904   -0.04653864    0.00536719
     atom   61 type  1   force =    -0.02056850    0.06110005   -0.02706995
     atom   62 type  1   force =     0.05686528    0.05407687    0.07052362
     atom   63 type  1   force =    -0.00563574   -0.00460759   -0.03633459
     atom   64 type  1   force =     0.02935246    0.03324264    0.04283874

     Total force =     1.123516     Total SCF correction =     0.001142


     Computing stress (Cartesian axis) and pressure

          total   stress  (Ry/bohr**3)                   (kbar)     P=       31.73
   0.00010958   0.00005354  -0.00019467           16.12        7.88      -28.64
   0.00005354   0.00024442  -0.00025760            7.88       35.96      -37.89
  -0.00019467  -0.00025760   0.00029302          -28.64      -37.89       43.11

 
     init_run     :      1.06s CPU      4.95s WALL (       1 calls)
     electrons    :      1.85s CPU      1.99s WALL (       1 calls)
     forces       :      0.04s CPU      0.05s WALL (       1 calls)
     stress       :      0.17s CPU      0.17s WALL (       1 calls)

     Called by init_run:
     wfcinit      :      0.56s CPU      4.27s WALL (       1 calls)
                                        4.27s GPU  (       1 calls)
     potinit      :      0.20s CPU      0.31s WALL (       1 calls)
     hinit0       :      0.27s CPU      0.30s WALL (       1 calls)

     Called by electrons:
     c_bands      :      1.16s CPU      1.22s WALL (      15 calls)
     sum_band     :      0.35s CPU      0.39s WALL (      15 calls)
     v_of_rho     :      0.17s CPU      0.28s WALL (      15 calls)
     mix_rho      :      0.14s CPU      0.16s WALL (      15 calls)

     Called by c_bands:
     init_us_2    :      0.06s CPU      0.06s WALL (      31 calls)
     init_us_2:gp :      0.06s CPU      0.06s WALL (      31 calls)
     regterg      :      1.03s CPU      1.09s WALL (      15 calls)

     Called by *egterg:
     rdiaghg      :      0.38s CPU      1.15s WALL (      81 calls)
                                        1.14s GPU  (      81 calls)
     h_psi        :      1.04s CPU      4.02s WALL (      83 calls)
                                        4.01s GPU  (      83 calls)
     g_psi        :      0.00s CPU      0.00s WALL (      67 calls)
                                        0.00s GPU  (      67 calls)

     Called by h_psi:
     h_psi:calbec :      0.50s CPU      3.40s WALL (      83 calls)
                                        3.40s GPU  (      83 calls)
     vloc_psi     :      0.48s CPU      0.56s WALL (      83 calls)
                                        0.56s GPU  (      83 calls)
     add_vuspsi   :      0.03s CPU      0.05s WALL (      83 calls)
                                        0.05s GPU  (      83 calls)

     General routines
     calbec       :      0.51s CPU      3.41s WALL (      88 calls)
     fft          :      0.39s CPU      0.53s WALL (     127 calls)
                                        0.14s GPU  (      81 calls)
     ffts         :      0.05s CPU      0.06s WALL (      15 calls)
     fftw         :      0.53s CPU      0.70s WALL (    1611 calls)
                                        0.64s GPU  (    1611 calls)
 
     Parallel routines
 
     PWSCF        :      3.15s CPU      7.25s WALL

 
   This run was terminated on:  11:44:38  10May2023            

=------------------------------------------------------------------------------=
   JOB DONE.
=------------------------------------------------------------------------------=
