An instance of this daemon is already running

     Program PWSCF v.7.1 starts on 10May2023 at 11:36:56 

     This program is part of the open-source Quantum ESPRESSO suite
     for quantum simulation of materials; please cite
         "P. Giannozzi et al., J. Phys.:Condens. Matter 21 395502 (2009);
         "P. Giannozzi et al., J. Phys.:Condens. Matter 29 465901 (2017);
         "P. Giannozzi et al., J. Chem. Phys. 152 154105 (2020);
          URL http://www.quantum-espresso.org", 
     in publications or presentations arising from this work. More details at
     http://www.quantum-espresso.org/quote

     Parallel version (MPI & OpenMP), running on       4 processor cores
     Number of MPI processes:                 4
     Threads/MPI process:                     1

     MPI processes distributed on     1 nodes
     706977 MiB available memory on the printing compute node when the environment starts
 
     Reading input from pw-si-41.in
Warning: card &CELL ignored
Warning: card / ignored

     Current dimensions of program PWSCF are:
     Max number of different atomic species (ntypx) = 10
     Max number of k-points (npk) =  40000
     Max angular momentum in pseudopotentials (lmaxx) =  4

     IMPORTANT: XC functional enforced from input :
     Exchange-correlation= PBE
                           (   1   4   3   4   0   0   0)
     Any further DFT definition will be discarded
     Please, verify this is what you really want


     gamma-point specific algorithms are used
 
     K-points division:     npool     =       2
     R & G space division:  proc/nbgrp/npool/nimage =       2
     Subspace diagonalization in iterative solution of the eigenvalue problem:
     a serial algorithm will be used

     Message from routine divide_et_impera:
     suboptimal parallelization: some nodes have no k-points
 
     Parallelization info
     --------------------
     sticks:   dense  smooth     PW     G-vecs:    dense   smooth      PW
     Min        2142    2142    567               101289   101289   13783
     Max        2143    2143    568               101290   101290   13784
     Sum        4285    4285   1135               202579   202579   27567
 
     Using Slab Decomposition
 


     bravais-lattice index     =            0
     lattice parameter (alat)  =      21.7800  a.u.
     unit-cell volume          =    9127.9443 (a.u.)^3
     number of atoms/cell      =           64
     number of atomic types    =            1
     number of electrons       =       256.00
     number of Kohn-Sham states=          154
     kinetic-energy cutoff     =      30.0000  Ry
     charge density cutoff     =     120.0000  Ry
     scf convergence threshold =      1.0E-06
     mixing beta               =       0.5000
     number of iterations used =            8  plain     mixing
     Exchange-correlation= PBE
                           (   1   4   3   4   0   0   0)

     GPU acceleration is ACTIVE.
     GPU-aware MPI enabled

     Message from routine print_cuda_info:
     High GPU oversubscription detected. Are you sure this is what you want?

     celldm(1)=  21.780046  celldm(2)=   0.000000  celldm(3)=   0.000000
     celldm(4)=   0.000000  celldm(5)=   0.000000  celldm(6)=   0.000000

     crystal axes: (cart. coord. in units of alat)
               a(1) = (   1.000000   0.000000   0.000000 )  
               a(2) = (   0.000000   0.947511   0.000000 )  
               a(3) = (   0.000000   0.000000   0.932422 )  

     reciprocal axes: (cart. coord. in units 2 pi/alat)
               b(1) = (  1.000000  0.000000  0.000000 )  
               b(2) = (  0.000000  1.055397  0.000000 )  
               b(3) = (  0.000000  0.000000  1.072476 )  


     PseudoPot. # 1 for Si read from file:
     /home/ppiaggi/pseudos/Si_ONCV_PBE_sr.upf
     MD5 check sum: 8553c464762ac42b85b1eed164b4d029
     Pseudo is Norm-conserving, Zval =  4.0
     Generated using ONCVPSP code by D. R. Hamann
     Using radial grid of 1510 points,  4 beta functions with: 
                l(1) =   0
                l(2) =   0
                l(3) =   1
                l(4) =   1

     atomic species   valence    mass     pseudopotential
        Si             4.00    28.08500     Si( 1.00)

     No symmetry found



   Cartesian axes

     site n.     atom                  positions (alat units)
         1           Si  tau(   1) = (  -0.0067943   0.0055769   0.0066386  )
         2           Si  tau(   2) = (  -0.0150042   0.2374827   0.2476846  )
         3           Si  tau(   3) = (   0.2599791   0.0126198   0.2293457  )
         4           Si  tau(   4) = (   0.2622892   0.2240209  -0.0007230  )
         5           Si  tau(   5) = (   0.1297731   0.0999446   0.1087758  )
         6           Si  tau(   6) = (   0.5254957  -0.0061918  -0.0082579  )
         7           Si  tau(   7) = (   0.5329275   0.2201905   0.2286724  )
         8           Si  tau(   8) = (   0.6455135   0.1285770   0.1170532  )
         9           Si  tau(   9) = (   0.7836987  -0.0033886   0.2491873  )
        10           Si  tau(  10) = (   0.7884377   0.2479944   0.0107887  )
        11           Si  tau(  11) = (  -0.0183880   0.4769506   0.0142673  )
        12           Si  tau(  12) = (   0.2621846   0.4560082   0.2362089  )
        13           Si  tau(  13) = (   0.1384481   0.5744228   0.1295565  )
        14           Si  tau(  14) = (   0.3935143   0.3487299   0.1279139  )
        15           Si  tau(  15) = (   0.5115668   0.4582564   0.0130947  )
        16           Si  tau(  16) = (   0.6600615   0.5708416   0.1094117  )
        17           Si  tau(  17) = (   0.8856934   0.3358423   0.1321559  )
        18           Si  tau(  18) = (   0.7850345   0.4631920   0.2532275  )
        19           Si  tau(  19) = (  -0.0106986   0.6942203   0.2521103  )
        20           Si  tau(  20) = (   0.2616663   0.7150176   0.0100902  )
        21           Si  tau(  21) = (   0.3893011   0.8147225   0.1349204  )
        22           Si  tau(  22) = (   0.5114110   0.6985231   0.2444530  )
        23           Si  tau(  23) = (   0.7787920   0.6875134   0.0006522  )
        24           Si  tau(  24) = (   0.8950967   0.8069924   0.1278136  )
        25           Si  tau(  25) = (  -0.0178961  -0.0057180   0.4830723  )
        26           Si  tau(  26) = (   0.2397717   0.2301086   0.5004484  )
        27           Si  tau(  27) = (   0.1107638   0.1124058   0.6198779  )
        28           Si  tau(  28) = (   0.4003595   0.1103941   0.3805669  )
        29           Si  tau(  29) = (   0.5349381  -0.0104481   0.4986042  )
        30           Si  tau(  30) = (   0.6396574   0.1102652   0.6005116  )
        31           Si  tau(  31) = (   0.9191141   0.1339309   0.3524129  )
        32           Si  tau(  32) = (   0.7875123   0.2265646   0.4950165  )
        33           Si  tau(  33) = (   0.1129512   0.3671169   0.3529570  )
        34           Si  tau(  34) = (   0.0027901   0.4840980   0.4982235  )
        35           Si  tau(  35) = (   0.1385980   0.5737079   0.6116791  )
        36           Si  tau(  36) = (   0.6444106   0.3538704   0.3746500  )
        37           Si  tau(  37) = (   0.4005871   0.5954950   0.3614662  )
        38           Si  tau(  38) = (   0.3698248   0.3378073   0.5904822  )
        39           Si  tau(  39) = (   0.5025067   0.4558250   0.4820113  )
        40           Si  tau(  40) = (   0.6499849   0.5985907   0.6113385  )
        41           Si  tau(  41) = (   0.8994470   0.5884713   0.3517222  )
        42           Si  tau(  42) = (   0.8885415   0.3369895   0.6132297  )
        43           Si  tau(  43) = (   0.1458900   0.8037102   0.3692795  )
        44           Si  tau(  44) = (   0.2488325   0.7000117   0.4933583  )
        45           Si  tau(  45) = (   0.6622559   0.8309119   0.3567888  )
        46           Si  tau(  46) = (   0.3689352   0.8046619   0.6026533  )
        47           Si  tau(  47) = (   0.7792967   0.7185811   0.4939936  )
        48           Si  tau(  48) = (   0.9043747   0.8101391   0.6136052  )
        49           Si  tau(  49) = (   0.0040325   0.2445982   0.7247489  )
        50           Si  tau(  50) = (   0.2645100   0.0102302   0.7192600  )
        51           Si  tau(  51) = (   0.3726604   0.1157378   0.8474876  )
        52           Si  tau(  52) = (   0.5280738   0.2491025   0.7401575  )
        53           Si  tau(  53) = (   0.7762205  -0.0047357   0.7158674  )
        54           Si  tau(  54) = (   0.9082986   0.1091770   0.8462155  )
        55           Si  tau(  55) = (   0.1203570   0.3594735   0.8585647  )
        56           Si  tau(  56) = (   0.2423016   0.4637051   0.7418685  )
        57           Si  tau(  57) = (   0.6346055   0.3596289   0.8375885  )
        58           Si  tau(  58) = (   0.4048292   0.5708116   0.8557022  )
        59           Si  tau(  59) = (   0.7731360   0.4660852   0.7411415  )
        60           Si  tau(  60) = (   0.8849735   0.5746047   0.8423425  )
        61           Si  tau(  61) = (  -0.0064280   0.6924634   0.7388388  )
        62           Si  tau(  62) = (   0.1306499   0.8084130   0.8366073  )
        63           Si  tau(  63) = (   0.5324337   0.6855094   0.7138496  )
        64           Si  tau(  64) = (   0.6469504   0.8309944   0.8600166  )

     number of k points=     1  Fermi-Dirac smearing, width (Ry)=  0.0100
                       cart. coord. in units 2pi/alat
        k(    1) = (   0.0000000   0.0000000   0.0000000), wk =   2.0000000

     Dense  grid:   101290 G-vectors     FFT dimensions: (  75,  72,  72)

     Estimated max dynamical RAM per process >     161.30 MB

     Estimated total dynamical RAM >     620.46 MB

     Initial potential from superposition of free atoms

     starting charge     255.9608, renormalised to     256.0000
     Starting wfcs are  256 randomized atomic wfcs

     total cpu time spent up to now is        5.3 secs

     Self-consistent Calculation

     iteration #  1     ecut=    30.00 Ry     beta= 0.50
     Davidson diagonalization with overlap
     ethr =  1.00E-02,  avg # of iterations =  3.0

     Threshold (ethr) on eigenvalues was too large:
     Diagonalizing with lowered threshold

     Davidson diagonalization with overlap
     ethr =  7.19E-04,  avg # of iterations =  4.0

     total cpu time spent up to now is        5.5 secs

     total energy              =    -501.68603691 Ry
     estimated scf accuracy    <       2.14586535 Ry

     iteration #  2     ecut=    30.00 Ry     beta= 0.50
     Davidson diagonalization with overlap
     ethr =  8.38E-04,  avg # of iterations =  4.0

     total cpu time spent up to now is        5.7 secs

     total energy              =    -501.29311721 Ry
     estimated scf accuracy    <       3.23479887 Ry

     iteration #  3     ecut=    30.00 Ry     beta= 0.50
     Davidson diagonalization with overlap
     ethr =  8.38E-04,  avg # of iterations =  4.0

     total cpu time spent up to now is        5.8 secs

     total energy              =    -501.73138993 Ry
     estimated scf accuracy    <       1.89964212 Ry

     iteration #  4     ecut=    30.00 Ry     beta= 0.50
     Davidson diagonalization with overlap
     ethr =  7.42E-04,  avg # of iterations =  2.0

     total cpu time spent up to now is        5.9 secs

     total energy              =    -501.86433903 Ry
     estimated scf accuracy    <       0.46383458 Ry

     iteration #  5     ecut=    30.00 Ry     beta= 0.50
     Davidson diagonalization with overlap
     ethr =  1.81E-04,  avg # of iterations =  3.0

     total cpu time spent up to now is        6.0 secs

     total energy              =    -501.93023416 Ry
     estimated scf accuracy    <       0.13149698 Ry

     iteration #  6     ecut=    30.00 Ry     beta= 0.50
     Davidson diagonalization with overlap
     ethr =  5.14E-05,  avg # of iterations =  2.0

     total cpu time spent up to now is        6.1 secs

     total energy              =    -501.94742872 Ry
     estimated scf accuracy    <       0.01372164 Ry

     iteration #  7     ecut=    30.00 Ry     beta= 0.50
     Davidson diagonalization with overlap
     c_bands:  2 eigenvalues not converged
     ethr =  5.36E-06,  avg # of iterations = 20.0

     total cpu time spent up to now is        6.3 secs

     total energy              =    -501.94890433 Ry
     estimated scf accuracy    <       0.00937452 Ry

     iteration #  8     ecut=    30.00 Ry     beta= 0.50
     Davidson diagonalization with overlap
     ethr =  3.66E-06,  avg # of iterations =  3.0

     total cpu time spent up to now is        6.4 secs

     total energy              =    -501.95016271 Ry
     estimated scf accuracy    <       0.00253795 Ry

     iteration #  9     ecut=    30.00 Ry     beta= 0.50
     Davidson diagonalization with overlap
     ethr =  9.91E-07,  avg # of iterations =  3.0

     total cpu time spent up to now is        6.5 secs

     total energy              =    -501.95044641 Ry
     estimated scf accuracy    <       0.00041355 Ry

     iteration # 10     ecut=    30.00 Ry     beta= 0.50
     Davidson diagonalization with overlap
     ethr =  1.62E-07,  avg # of iterations =  4.0

     total cpu time spent up to now is        6.7 secs

     total energy              =    -501.95049512 Ry
     estimated scf accuracy    <       0.00039898 Ry

     iteration # 11     ecut=    30.00 Ry     beta= 0.50
     Davidson diagonalization with overlap
     ethr =  1.56E-07,  avg # of iterations =  3.0

     total cpu time spent up to now is        6.8 secs

     total energy              =    -501.95054472 Ry
     estimated scf accuracy    <       0.00002640 Ry

     iteration # 12     ecut=    30.00 Ry     beta= 0.50
     Davidson diagonalization with overlap
     ethr =  1.03E-08,  avg # of iterations =  4.0

     total cpu time spent up to now is        6.9 secs

     total energy              =    -501.95054997 Ry
     estimated scf accuracy    <       0.00000712 Ry

     iteration # 13     ecut=    30.00 Ry     beta= 0.50
     Davidson diagonalization with overlap
     ethr =  2.78E-09,  avg # of iterations =  3.0

     total cpu time spent up to now is        7.0 secs

     total energy              =    -501.95055094 Ry
     estimated scf accuracy    <       0.00000289 Ry

     iteration # 14     ecut=    30.00 Ry     beta= 0.50
     Davidson diagonalization with overlap
     ethr =  1.13E-09,  avg # of iterations =  4.0

     total cpu time spent up to now is        7.1 secs

     total energy              =    -501.95055138 Ry
     estimated scf accuracy    <       0.00000181 Ry

     iteration # 15     ecut=    30.00 Ry     beta= 0.50
     Davidson diagonalization with overlap
     ethr =  7.05E-10,  avg # of iterations =  3.0

     total cpu time spent up to now is        7.2 secs

     End of self-consistent calculation

          k = 0.0000 0.0000 0.0000 ( 12645 PWs)   bands (ev):

    -6.5163  -5.7561  -5.4867  -5.3626  -5.2954  -5.0697  -5.0115  -4.8281
    -4.5950  -4.5047  -4.4015  -4.2330  -4.1580  -4.1195  -4.0299  -3.9978
    -3.9420  -3.9155  -3.8057  -3.7520  -3.6681  -3.5221  -3.4165  -2.8581
    -2.6478  -2.6169  -2.5173  -2.3049  -2.1918  -2.0644  -2.0370  -1.9890
    -1.9310  -1.8906  -1.8512  -1.8067  -1.7186  -1.6690  -1.4728  -1.4126
    -1.2795  -1.2571  -1.0020  -0.9515  -0.6940  -0.2264  -0.1326   0.0303
     0.0449   0.0863   0.1126   0.1677   0.2745   0.3349   0.4513   0.5564
     0.6664   1.2800   1.3558   1.4382   1.4541   1.5692   1.6456   1.7498
     1.7696   1.7915   1.8338   1.8668   1.8909   1.9551   1.9708   2.0817
     2.1040   2.1253   2.2093   2.2393   2.2438   2.2874   2.3556   2.3758
     2.3928   2.4602   2.5126   2.5504   2.6172   2.6600   2.7060   2.7481
     2.8076   2.9178   2.9436   3.0080   3.1265   3.3073   3.5018   3.5258
     3.6124   3.6693   3.7298   3.8112   3.8579   3.9142   3.9729   4.0045
     4.0951   4.1505   4.1609   4.1941   4.2867   4.3622   4.3916   4.4543
     4.5074   4.5380   4.5450   4.5579   4.7166   4.7721   4.9408   5.0028
     5.1213   5.1719   5.2131   5.3061   5.3512   5.6280   5.6614   5.8973
     5.9839   6.0662   6.1035   6.1866   6.3528   6.4020   6.4048   6.5148
     6.5353   6.6025   6.6329   6.7449   6.7855   6.8630   7.0098   7.1619
     7.2393   7.2466   7.3119   7.3910   7.5343   7.6038   7.6656   7.8014
     7.8124   7.8825

     the Fermi energy is     5.8810 ev

!    total energy              =    -501.95055157 Ry
     estimated scf accuracy    <       0.00000014 Ry
     smearing contrib. (-TS)   =      -0.08523310 Ry
     internal energy E=F+TS    =    -501.86531847 Ry

     The total energy is F=E-TS. E is the sum of the following terms:
     one-electron contribution =     120.41034231 Ry
     hartree contribution      =      45.81711386 Ry
     xc contribution           =    -152.38465971 Ry
     ewald contribution        =    -515.70811493 Ry

     convergence has been achieved in  15 iterations

     Forces acting on atoms (cartesian axes, Ry/au):

     atom    1 type  1   force =     0.21293450   -0.31255290    0.21056375
     atom    2 type  1   force =     0.30676735    0.18313308   -0.19952408
     atom    3 type  1   force =     0.04349598   -0.07136431    0.07961402
     atom    4 type  1   force =    -0.11175972    0.13028391    0.13614512
     atom    5 type  1   force =     0.01490067    0.06584031    0.03696507
     atom    6 type  1   force =    -0.14545289    0.11205106    0.13239616
     atom    7 type  1   force =    -0.10516536    0.08707609    0.13284400
     atom    8 type  1   force =     0.09626325   -0.10011917   -0.06772886
     atom    9 type  1   force =     0.00163394    0.03914065   -0.05227107
     atom   10 type  1   force =    -0.14146648   -0.10468371   -0.09631101
     atom   11 type  1   force =     0.17377795   -0.13299520    0.18372042
     atom   12 type  1   force =     0.01638054    0.03632684    0.04628154
     atom   13 type  1   force =    -0.03367694    0.04852111   -0.02313468
     atom   14 type  1   force =    -0.01711089   -0.07653666    0.00451226
     atom   15 type  1   force =     0.07322463   -0.03133098    0.11219125
     atom   16 type  1   force =    -0.03659066   -0.00761832    0.07942615
     atom   17 type  1   force =     0.01201276    0.16178616    0.02206061
     atom   18 type  1   force =    -0.08973611   -0.00885796   -0.02244523
     atom   19 type  1   force =     0.24738315    0.12803300   -0.11515429
     atom   20 type  1   force =     0.03826285   -0.08081716    0.05118838
     atom   21 type  1   force =    -0.00332724    0.05824141   -0.03190933
     atom   22 type  1   force =     0.10062536    0.03512355   -0.03493328
     atom   23 type  1   force =    -0.09437015    0.13478055    0.10181394
     atom   24 type  1   force =    -0.04843207    0.06221561   -0.03231830
     atom   25 type  1   force =     0.11103371   -0.01380327    0.00839407
     atom   26 type  1   force =    -0.02612533   -0.03435415   -0.08030829
     atom   27 type  1   force =     0.03386973   -0.01717259   -0.04861906
     atom   28 type  1   force =    -0.02108787    0.01123529   -0.03309257
     atom   29 type  1   force =    -0.08887287   -0.06062510   -0.07314082
     atom   30 type  1   force =     0.06679019    0.06133989    0.07137165
     atom   31 type  1   force =    -0.24048947   -0.28939840    0.27635503
     atom   32 type  1   force =    -0.09052419   -0.02619504   -0.07464277
     atom   33 type  1   force =     0.03150207   -0.03301431    0.04840987
     atom   34 type  1   force =    -0.00650066   -0.05576382   -0.03789503
     atom   35 type  1   force =    -0.01982281    0.04396864    0.02056092
     atom   36 type  1   force =     0.03229197   -0.04217682   -0.02181654
     atom   37 type  1   force =    -0.08136166   -0.06767460    0.04926364
     atom   38 type  1   force =     0.05554660    0.05060453    0.09301497
     atom   39 type  1   force =     0.01429106    0.04330558    0.00813411
     atom   40 type  1   force =     0.10368179   -0.11728677   -0.10474742
     atom   41 type  1   force =    -0.14049151   -0.11479168    0.21530510
     atom   42 type  1   force =    -0.02803570    0.13066593   -0.01973722
     atom   43 type  1   force =    -0.08316646    0.09180524   -0.06402108
     atom   44 type  1   force =     0.03898348   -0.06952017   -0.02318151
     atom   45 type  1   force =    -0.05406738   -0.03148402    0.04807971
     atom   46 type  1   force =     0.09334550    0.07020567    0.05874945
     atom   47 type  1   force =    -0.04232400   -0.05039212   -0.05996853
     atom   48 type  1   force =    -0.05044070    0.05782118   -0.00927211
     atom   49 type  1   force =     0.07928569   -0.04927854    0.08020184
     atom   50 type  1   force =    -0.03756634   -0.07556570   -0.02586117
     atom   51 type  1   force =     0.16623450   -0.08491719   -0.10804620
     atom   52 type  1   force =    -0.12535041   -0.12012416   -0.12578842
     atom   53 type  1   force =    -0.01915647   -0.00549372    0.03923293
     atom   54 type  1   force =    -0.24452609    0.24295953   -0.25061805
     atom   55 type  1   force =     0.00186725   -0.03293545   -0.03015060
     atom   56 type  1   force =     0.08712509   -0.00175218   -0.02535664
     atom   57 type  1   force =     0.12077423    0.01471422    0.04449532
     atom   58 type  1   force =    -0.12610582    0.12437308   -0.13700938
     atom   59 type  1   force =    -0.07277511   -0.03766706   -0.12598931
     atom   60 type  1   force =    -0.02075147    0.05962637   -0.13221895
     atom   61 type  1   force =     0.11700551    0.00343534   -0.04712737
     atom   62 type  1   force =    -0.02054685    0.08594489   -0.03302819
     atom   63 type  1   force =    -0.15465971    0.11378053    0.12766442
     atom   64 type  1   force =     0.13054610   -0.13007599   -0.15158833

     Total force =     1.408772     Total SCF correction =     0.000593


     Computing stress (Cartesian axis) and pressure

          total   stress  (Ry/bohr**3)                   (kbar)     P=       26.22
  -0.00001279  -0.00009969   0.00007519           -1.88      -14.66       11.06
  -0.00009969   0.00029211  -0.00014268          -14.66       42.97      -20.99
   0.00007519  -0.00014268   0.00025540           11.06      -20.99       37.57

 
     init_run     :      1.31s CPU      5.19s WALL (       1 calls)
     electrons    :      1.83s CPU      1.97s WALL (       1 calls)
     forces       :      0.04s CPU      0.05s WALL (       1 calls)
     stress       :      0.17s CPU      0.17s WALL (       1 calls)

     Called by init_run:
     wfcinit      :      0.56s CPU      4.25s WALL (       1 calls)
                                        4.25s GPU  (       1 calls)
     potinit      :      0.21s CPU      0.31s WALL (       1 calls)
     hinit0       :      0.51s CPU      0.54s WALL (       1 calls)

     Called by electrons:
     c_bands      :      1.12s CPU      1.18s WALL (      16 calls)
     sum_band     :      0.36s CPU      0.40s WALL (      16 calls)
     v_of_rho     :      0.17s CPU      0.28s WALL (      16 calls)
     mix_rho      :      0.16s CPU      0.17s WALL (      16 calls)

     Called by c_bands:
     init_us_2    :      0.06s CPU      0.06s WALL (      33 calls)
     init_us_2:gp :      0.06s CPU      0.06s WALL (      33 calls)
     regterg      :      0.98s CPU      1.04s WALL (      16 calls)

     Called by *egterg:
     rdiaghg      :      0.38s CPU      1.14s WALL (      84 calls)
                                        1.12s GPU  (      84 calls)
     h_psi        :      0.98s CPU      3.95s WALL (      86 calls)
                                        3.95s GPU  (      86 calls)
     g_psi        :      0.00s CPU      0.00s WALL (      69 calls)
                                        0.00s GPU  (      69 calls)

     Called by h_psi:
     h_psi:calbec :      0.51s CPU      3.41s WALL (      86 calls)
                                        3.41s GPU  (      86 calls)
     vloc_psi     :      0.42s CPU      0.49s WALL (      86 calls)
                                        0.49s GPU  (      86 calls)
     add_vuspsi   :      0.03s CPU      0.05s WALL (      86 calls)
                                        0.05s GPU  (      86 calls)

     General routines
     calbec       :      0.52s CPU      3.41s WALL (      91 calls)
     fft          :      0.62s CPU      0.75s WALL (     135 calls)
                                        0.14s GPU  (      86 calls)
     ffts         :      0.05s CPU      0.05s WALL (      16 calls)
     fftw         :      0.48s CPU      0.64s WALL (    1714 calls)
                                        0.57s GPU  (    1714 calls)
 
     Parallel routines
 
     PWSCF        :      3.40s CPU      7.46s WALL

 
   This run was terminated on:  11:37: 3  10May2023            

=------------------------------------------------------------------------------=
   JOB DONE.
=------------------------------------------------------------------------------=
