An instance of this daemon is already running

     Program PWSCF v.7.1 starts on 10May2023 at 11:32: 5 

     This program is part of the open-source Quantum ESPRESSO suite
     for quantum simulation of materials; please cite
         "P. Giannozzi et al., J. Phys.:Condens. Matter 21 395502 (2009);
         "P. Giannozzi et al., J. Phys.:Condens. Matter 29 465901 (2017);
         "P. Giannozzi et al., J. Chem. Phys. 152 154105 (2020);
          URL http://www.quantum-espresso.org", 
     in publications or presentations arising from this work. More details at
     http://www.quantum-espresso.org/quote

     Parallel version (MPI & OpenMP), running on       4 processor cores
     Number of MPI processes:                 4
     Threads/MPI process:                     1

     MPI processes distributed on     1 nodes
     706990 MiB available memory on the printing compute node when the environment starts
 
     Reading input from pw-si-11.in
Warning: card &CELL ignored
Warning: card / ignored

     Current dimensions of program PWSCF are:
     Max number of different atomic species (ntypx) = 10
     Max number of k-points (npk) =  40000
     Max angular momentum in pseudopotentials (lmaxx) =  4

     IMPORTANT: XC functional enforced from input :
     Exchange-correlation= PBE
                           (   1   4   3   4   0   0   0)
     Any further DFT definition will be discarded
     Please, verify this is what you really want


     gamma-point specific algorithms are used
 
     K-points division:     npool     =       2
     R & G space division:  proc/nbgrp/npool/nimage =       2
     Subspace diagonalization in iterative solution of the eigenvalue problem:
     a serial algorithm will be used

     Message from routine divide_et_impera:
     suboptimal parallelization: some nodes have no k-points
 
     Parallelization info
     --------------------
     sticks:   dense  smooth     PW     G-vecs:    dense   smooth      PW
     Min        2161    2161    573               107799   107799   14599
     Max        2162    2162    574               107802   107802   14602
     Sum        4323    4323   1147               215601   215601   29201
 
     Using Slab Decomposition
 


     bravais-lattice index     =            0
     lattice parameter (alat)  =      21.7184  a.u.
     unit-cell volume          =    9710.9859 (a.u.)^3
     number of atoms/cell      =           64
     number of atomic types    =            1
     number of electrons       =       256.00
     number of Kohn-Sham states=          154
     kinetic-energy cutoff     =      30.0000  Ry
     charge density cutoff     =     120.0000  Ry
     scf convergence threshold =      1.0E-06
     mixing beta               =       0.5000
     number of iterations used =            8  plain     mixing
     Exchange-correlation= PBE
                           (   1   4   3   4   0   0   0)

     GPU acceleration is ACTIVE.
     GPU-aware MPI enabled

     Message from routine print_cuda_info:
     High GPU oversubscription detected. Are you sure this is what you want?

     celldm(1)=  21.718390  celldm(2)=   0.000000  celldm(3)=   0.000000
     celldm(4)=   0.000000  celldm(5)=   0.000000  celldm(6)=   0.000000

     crystal axes: (cart. coord. in units of alat)
               a(1) = (   1.000000   0.000000   0.000000 )  
               a(2) = (   0.000000   0.960282   0.000000 )  
               a(3) = (   0.000000   0.000000   0.987147 )  

     reciprocal axes: (cart. coord. in units 2 pi/alat)
               b(1) = (  1.000000  0.000000  0.000000 )  
               b(2) = (  0.000000  1.041361  0.000000 )  
               b(3) = (  0.000000  0.000000  1.013021 )  


     PseudoPot. # 1 for Si read from file:
     /home/ppiaggi/pseudos/Si_ONCV_PBE_sr.upf
     MD5 check sum: 8553c464762ac42b85b1eed164b4d029
     Pseudo is Norm-conserving, Zval =  4.0
     Generated using ONCVPSP code by D. R. Hamann
     Using radial grid of 1510 points,  4 beta functions with: 
                l(1) =   0
                l(2) =   0
                l(3) =   1
                l(4) =   1

     atomic species   valence    mass     pseudopotential
        Si             4.00    28.08500     Si( 1.00)

     No symmetry found



   Cartesian axes

     site n.     atom                  positions (alat units)
         1           Si  tau(   1) = (  -0.0073957  -0.0140600   0.0022779  )
         2           Si  tau(   2) = (   0.0079412   0.2205904   0.2609798  )
         3           Si  tau(   3) = (   0.2541253   0.0016123   0.2524344  )
         4           Si  tau(   4) = (   0.2286711   0.2180953  -0.0125299  )
         5           Si  tau(   5) = (   0.1139933   0.1144335   0.1077494  )
         6           Si  tau(   6) = (   0.4894342  -0.0003323  -0.0063444  )
         7           Si  tau(   7) = (   0.4744121   0.2180034   0.2436496  )
         8           Si  tau(   8) = (   0.6113833   0.1021441   0.1130576  )
         9           Si  tau(   9) = (   0.7264834   0.0111848   0.2374873  )
        10           Si  tau(  10) = (   0.7077519   0.2178920  -0.0095080  )
        11           Si  tau(  11) = (   0.0033039   0.4826220   0.0076126  )
        12           Si  tau(  12) = (   0.2367863   0.4748765   0.2509835  )
        13           Si  tau(  13) = (   0.1236991   0.5665507   0.1153146  )
        14           Si  tau(  14) = (   0.3745659   0.3500983   0.1194537  )
        15           Si  tau(  15) = (   0.4872417   0.4567772   0.0019852  )
        16           Si  tau(  16) = (   0.6099159   0.5697934   0.1367840  )
        17           Si  tau(  17) = (   0.8315493   0.3483095   0.1066239  )
        18           Si  tau(  18) = (   0.7374798   0.4702653   0.2490640  )
        19           Si  tau(  19) = (   0.0067397   0.7013084   0.2523933  )
        20           Si  tau(  20) = (   0.2577572   0.7115791  -0.0095215  )
        21           Si  tau(  21) = (   0.3632452   0.8164326   0.1122130  )
        22           Si  tau(  22) = (   0.4944012   0.6972104   0.2587299  )
        23           Si  tau(  23) = (   0.7370839   0.6996773  -0.0042928  )
        24           Si  tau(  24) = (   0.8386446   0.8146074   0.1082423  )
        25           Si  tau(  25) = (   0.0066464   0.0149223   0.4813640  )
        26           Si  tau(  26) = (   0.2410881   0.2235750   0.5017217  )
        27           Si  tau(  27) = (   0.1201946   0.1194828   0.6146159  )
        28           Si  tau(  28) = (   0.3577167   0.1154099   0.3840905  )
        29           Si  tau(  29) = (   0.4694658   0.0155962   0.5118912  )
        30           Si  tau(  30) = (   0.5938888   0.1103341   0.6282502  )
        31           Si  tau(  31) = (   0.8340522   0.1192991   0.3862425  )
        32           Si  tau(  32) = (   0.7072570   0.2283020   0.4925341  )
        33           Si  tau(  33) = (   0.1188962   0.3385191   0.3754910  )
        34           Si  tau(  34) = (   0.0060193   0.4621558   0.4803794  )
        35           Si  tau(  35) = (   0.1169336   0.5812685   0.6215578  )
        36           Si  tau(  36) = (   0.6003362   0.3428358   0.3664155  )
        37           Si  tau(  37) = (   0.3534650   0.5795446   0.3664328  )
        38           Si  tau(  38) = (   0.3648525   0.3330968   0.6115654  )
        39           Si  tau(  39) = (   0.4721264   0.4613688   0.5064738  )
        40           Si  tau(  40) = (   0.6003504   0.5714013   0.6201924  )
        41           Si  tau(  41) = (   0.8360626   0.5694557   0.3772588  )
        42           Si  tau(  42) = (   0.8359774   0.3515796   0.6260276  )
        43           Si  tau(  43) = (   0.1201253   0.8019048   0.3711775  )
        44           Si  tau(  44) = (   0.2529223   0.7033988   0.4878048  )
        45           Si  tau(  45) = (   0.5990524   0.8213875   0.3698718  )
        46           Si  tau(  46) = (   0.3725033   0.8108807   0.6346626  )
        47           Si  tau(  47) = (   0.7307657   0.6906892   0.4907723  )
        48           Si  tau(  48) = (   0.8405386   0.8022208   0.6256511  )
        49           Si  tau(  49) = (  -0.0039775   0.2457151   0.7359224  )
        50           Si  tau(  50) = (   0.2561689  -0.0157672   0.7497856  )
        51           Si  tau(  51) = (   0.3502961   0.1300018   0.8818338  )
        52           Si  tau(  52) = (   0.4709943   0.2220421   0.7358994  )
        53           Si  tau(  53) = (   0.7222913  -0.0129584   0.7268126  )
        54           Si  tau(  54) = (   0.8322150   0.1331594   0.8769572  )
        55           Si  tau(  55) = (   0.1260815   0.3603828   0.8638058  )
        56           Si  tau(  56) = (   0.2561681   0.4719824   0.7451839  )
        57           Si  tau(  57) = (   0.6072294   0.3538919   0.8491700  )
        58           Si  tau(  58) = (   0.3717683   0.5961431   0.8535055  )
        59           Si  tau(  59) = (   0.7046261   0.4674207   0.7601683  )
        60           Si  tau(  60) = (   0.8377668   0.5823674   0.8662168  )
        61           Si  tau(  61) = (  -0.0068117   0.6852443   0.7420026  )
        62           Si  tau(  62) = (   0.1239262   0.8168650   0.8619854  )
        63           Si  tau(  63) = (   0.4859872   0.7120531   0.7566272  )
        64           Si  tau(  64) = (   0.6041846   0.8205567   0.8640103  )

     number of k points=     1  Fermi-Dirac smearing, width (Ry)=  0.0100
                       cart. coord. in units 2pi/alat
        k(    1) = (   0.0000000   0.0000000   0.0000000), wk =   2.0000000

     Dense  grid:   107801 G-vectors     FFT dimensions: (  75,  75,  75)

     Estimated max dynamical RAM per process >     171.88 MB

     Estimated total dynamical RAM >     661.21 MB

     Initial potential from superposition of free atoms

     starting charge     255.9608, renormalised to     256.0000
     Starting wfcs are  256 randomized atomic wfcs

     total cpu time spent up to now is        4.9 secs

     Self-consistent Calculation

     iteration #  1     ecut=    30.00 Ry     beta= 0.50
     Davidson diagonalization with overlap
     ethr =  1.00E-02,  avg # of iterations =  3.0

     Threshold (ethr) on eigenvalues was too large:
     Diagonalizing with lowered threshold

     Davidson diagonalization with overlap
     ethr =  6.38E-04,  avg # of iterations =  4.0

     total cpu time spent up to now is        5.2 secs

     total energy              =    -502.27993670 Ry
     estimated scf accuracy    <       1.88287249 Ry

     iteration #  2     ecut=    30.00 Ry     beta= 0.50
     Davidson diagonalization with overlap
     ethr =  7.35E-04,  avg # of iterations =  5.0

     total cpu time spent up to now is        5.4 secs

     total energy              =    -501.94365519 Ry
     estimated scf accuracy    <       2.63849332 Ry

     iteration #  3     ecut=    30.00 Ry     beta= 0.50
     Davidson diagonalization with overlap
     ethr =  7.35E-04,  avg # of iterations =  5.0

     total cpu time spent up to now is        5.5 secs

     total energy              =    -502.31165622 Ry
     estimated scf accuracy    <       1.57170806 Ry

     iteration #  4     ecut=    30.00 Ry     beta= 0.50
     Davidson diagonalization with overlap
     ethr =  6.14E-04,  avg # of iterations =  3.0

     total cpu time spent up to now is        5.7 secs

     total energy              =    -502.43352407 Ry
     estimated scf accuracy    <       0.17982403 Ry

     iteration #  5     ecut=    30.00 Ry     beta= 0.50
     Davidson diagonalization with overlap
     ethr =  7.02E-05,  avg # of iterations =  7.0

     total cpu time spent up to now is        5.8 secs

     total energy              =    -502.46433847 Ry
     estimated scf accuracy    <       0.08138179 Ry

     iteration #  6     ecut=    30.00 Ry     beta= 0.50
     Davidson diagonalization with overlap
     ethr =  3.18E-05,  avg # of iterations = 11.0

     total cpu time spent up to now is        6.0 secs

     total energy              =    -502.47510454 Ry
     estimated scf accuracy    <       0.01728428 Ry

     iteration #  7     ecut=    30.00 Ry     beta= 0.50
     Davidson diagonalization with overlap
     ethr =  6.75E-06,  avg # of iterations = 17.0

     total cpu time spent up to now is        6.2 secs

     total energy              =    -502.47682405 Ry
     estimated scf accuracy    <       0.00418385 Ry

     iteration #  8     ecut=    30.00 Ry     beta= 0.50
     Davidson diagonalization with overlap
     ethr =  1.63E-06,  avg # of iterations = 10.0

     total cpu time spent up to now is        6.4 secs

     total energy              =    -502.47734609 Ry
     estimated scf accuracy    <       0.00224827 Ry

     iteration #  9     ecut=    30.00 Ry     beta= 0.50
     Davidson diagonalization with overlap
     ethr =  8.78E-07,  avg # of iterations =  3.0

     total cpu time spent up to now is        6.5 secs

     total energy              =    -502.47764311 Ry
     estimated scf accuracy    <       0.00025929 Ry

     iteration # 10     ecut=    30.00 Ry     beta= 0.50
     Davidson diagonalization with overlap
     ethr =  1.01E-07,  avg # of iterations =  4.0

     total cpu time spent up to now is        6.7 secs

     total energy              =    -502.47767388 Ry
     estimated scf accuracy    <       0.00009028 Ry

     iteration # 11     ecut=    30.00 Ry     beta= 0.50
     Davidson diagonalization with overlap
     ethr =  3.53E-08,  avg # of iterations =  3.0

     total cpu time spent up to now is        6.8 secs

     total energy              =    -502.47768445 Ry
     estimated scf accuracy    <       0.00003029 Ry

     iteration # 12     ecut=    30.00 Ry     beta= 0.50
     Davidson diagonalization with overlap
     ethr =  1.18E-08,  avg # of iterations =  4.0

     total cpu time spent up to now is        6.9 secs

     total energy              =    -502.47768895 Ry
     estimated scf accuracy    <       0.00001455 Ry

     iteration # 13     ecut=    30.00 Ry     beta= 0.50
     Davidson diagonalization with overlap
     ethr =  5.68E-09,  avg # of iterations =  2.0

     total cpu time spent up to now is        7.0 secs

     total energy              =    -502.47769054 Ry
     estimated scf accuracy    <       0.00000141 Ry

     iteration # 14     ecut=    30.00 Ry     beta= 0.50
     Davidson diagonalization with overlap
     ethr =  5.52E-10,  avg # of iterations =  5.0

     total cpu time spent up to now is        7.2 secs

     End of self-consistent calculation

          k = 0.0000 0.0000 0.0000 ( 13431 PWs)   bands (ev):

    -6.4788  -5.7935  -5.6543  -5.5531  -5.5103  -5.3292  -5.0821  -5.0655
    -4.8951  -4.8355  -4.7736  -4.6618  -4.5603  -4.5164  -4.4103  -4.3897
    -4.2945  -4.2114  -4.1990  -4.0949  -3.9716  -3.8811  -3.5527  -3.1553
    -2.9693  -2.8919  -2.7408  -2.7014  -2.6797  -2.6523  -2.5433  -2.4312
    -2.3695  -2.3271  -2.2448  -2.1562  -2.0961  -1.9816  -1.9662  -1.8591
    -1.8393  -1.7043  -1.4723  -1.3470  -1.1652  -0.7895  -0.5684  -0.5191
    -0.4171  -0.3179  -0.2924  -0.2389  -0.1574  -0.0928  -0.0293   0.0355
     0.1754   0.9698   1.0327   1.0603   1.1709   1.1857   1.2331   1.3264
     1.3513   1.3696   1.4256   1.4351   1.4507   1.4833   1.5239   1.5855
     1.5929   1.6582   1.6726   1.6981   1.7654   1.7863   1.8546   1.9048
     1.9571   2.0237   2.0783   2.1063   2.1805   2.2137   2.2761   2.3045
     2.4318   2.5025   2.5643   2.6906   2.7281   2.9427   3.0279   3.1227
     3.1713   3.2245   3.2561   3.2951   3.3390   3.4148   3.4255   3.4513
     3.5400   3.5736   3.6441   3.6629   3.7152   3.7928   3.8223   3.8746
     3.9747   3.9816   4.0268   4.0589   4.0923   4.1157   4.1333   4.2954
     4.3359   4.4082   4.5312   4.7718   4.8994   5.1760   5.2719   5.3793
     5.4599   5.5834   5.6321   5.6792   5.7810   5.8719   5.9039   5.9104
     5.9709   5.9950   6.0105   6.1066   6.2327   6.3057   6.3488   6.5864
     6.6706   6.7955   6.8705   6.9054   6.9313   6.9545   7.0335   7.1173
     7.1622   7.2000

     the Fermi energy is     5.3898 ev

!    total energy              =    -502.47769073 Ry
     estimated scf accuracy    <       0.00000039 Ry
     smearing contrib. (-TS)   =      -0.09364555 Ry
     internal energy E=F+TS    =    -502.38404519 Ry

     The total energy is F=E-TS. E is the sum of the following terms:
     one-electron contribution =     108.24678673 Ry
     hartree contribution      =      46.60574146 Ry
     xc contribution           =    -150.57121148 Ry
     ewald contribution        =    -506.66536190 Ry

     convergence has been achieved in  14 iterations

     Forces acting on atoms (cartesian axes, Ry/au):

     atom    1 type  1   force =    -0.04200737   -0.02016342   -0.02460198
     atom    2 type  1   force =    -0.06910458   -0.02732380   -0.03393761
     atom    3 type  1   force =    -0.05385356   -0.06871197   -0.05064012
     atom    4 type  1   force =    -0.07941818    0.16628102    0.10612798
     atom    5 type  1   force =    -0.01127376   -0.04189725    0.08896819
     atom    6 type  1   force =    -0.03466777   -0.05429169   -0.00699845
     atom    7 type  1   force =     0.04670794    0.01811377   -0.00185450
     atom    8 type  1   force =    -0.07847447    0.02864887    0.03981817
     atom    9 type  1   force =     0.04135785   -0.10776633    0.05311121
     atom   10 type  1   force =    -0.04391399    0.13736181    0.04636297
     atom   11 type  1   force =    -0.13142316   -0.10431659   -0.11010327
     atom   12 type  1   force =    -0.00039674   -0.08599103   -0.02161328
     atom   13 type  1   force =     0.07050599    0.14112758    0.08075239
     atom   14 type  1   force =    -0.09449460   -0.04316421    0.03375497
     atom   15 type  1   force =     0.03630069    0.06083180   -0.04266368
     atom   16 type  1   force =    -0.01579887    0.05105325   -0.05173024
     atom   17 type  1   force =     0.05783887    0.00697917    0.02101699
     atom   18 type  1   force =    -0.04214296   -0.09213283   -0.02647182
     atom   19 type  1   force =    -0.07878857   -0.05904736   -0.06392519
     atom   20 type  1   force =    -0.07596681   -0.06236387   -0.00888305
     atom   21 type  1   force =     0.06528255    0.07879890    0.08536277
     atom   22 type  1   force =    -0.05232649   -0.02023227   -0.05823743
     atom   23 type  1   force =    -0.10722243   -0.01310426    0.00682497
     atom   24 type  1   force =     0.09995857    0.09921881    0.08962265
     atom   25 type  1   force =    -0.03864565   -0.04726961   -0.02616127
     atom   26 type  1   force =    -0.02175552    0.04271608   -0.03422927
     atom   27 type  1   force =    -0.01572452   -0.04375554    0.06279903
     atom   28 type  1   force =     0.00353008   -0.00109018   -0.04581404
     atom   29 type  1   force =     0.01987968   -0.13041258   -0.01494667
     atom   30 type  1   force =     0.04242079    0.00643458   -0.02443558
     atom   31 type  1   force =     0.07901784   -0.03542467   -0.05089583
     atom   32 type  1   force =     0.01645137    0.02350448    0.06175846
     atom   33 type  1   force =     0.04773370    0.01614095   -0.01898101
     atom   34 type  1   force =    -0.07219968    0.04030835    0.05009460
     atom   35 type  1   force =     0.03542087   -0.02060906   -0.04401292
     atom   36 type  1   force =    -0.02516941    0.02808988   -0.01065807
     atom   37 type  1   force =     0.06262039    0.01802753    0.03443802
     atom   38 type  1   force =    -0.03666944    0.04273495    0.04123347
     atom   39 type  1   force =     0.03279252    0.00421491   -0.07780491
     atom   40 type  1   force =    -0.00525725    0.05853896    0.00985135
     atom   41 type  1   force =     0.13570701    0.02558742    0.02080694
     atom   42 type  1   force =     0.02778767   -0.01066275   -0.01981743
     atom   43 type  1   force =     0.03041241    0.12144529    0.02231168
     atom   44 type  1   force =    -0.03300920   -0.00271043    0.06711253
     atom   45 type  1   force =     0.03945165    0.07258533    0.03738409
     atom   46 type  1   force =    -0.04911957    0.08232020   -0.07233514
     atom   47 type  1   force =    -0.05585497    0.03112346    0.02859853
     atom   48 type  1   force =     0.03893634    0.02455618    0.00056240
     atom   49 type  1   force =    -0.03393572    0.00251681    0.01815826
     atom   50 type  1   force =    -0.04198960    0.01197539   -0.00525075
     atom   51 type  1   force =     0.14610121   -0.15427101   -0.13881495
     atom   52 type  1   force =     0.02765430    0.03362611    0.06707569
     atom   53 type  1   force =     0.02546744   -0.01215470    0.06492307
     atom   54 type  1   force =     0.15375307   -0.13261910   -0.13219846
     atom   55 type  1   force =    -0.03177808   -0.00123430   -0.00217236
     atom   56 type  1   force =    -0.03228323   -0.02319132   -0.04116159
     atom   57 type  1   force =    -0.16172073   -0.17864044    0.13461763
     atom   58 type  1   force =    -0.02459632   -0.07028735    0.08243609
     atom   59 type  1   force =     0.16977110    0.11866833   -0.14066703
     atom   60 type  1   force =     0.09135023   -0.02583812   -0.01919671
     atom   61 type  1   force =    -0.04031346    0.04259748    0.02277461
     atom   62 type  1   force =    -0.03275198    0.03131413   -0.00582614
     atom   63 type  1   force =     0.06839146   -0.04303765   -0.07841910
     atom   64 type  1   force =     0.05144507    0.06627391    0.02680015

     Total force =     0.908795     Total SCF correction =     0.001041


     Computing stress (Cartesian axis) and pressure

          total   stress  (Ry/bohr**3)                   (kbar)     P=      -28.08
  -0.00020005   0.00005050   0.00004646          -29.43        7.43        6.83
   0.00005050  -0.00016549   0.00010494            7.43      -24.34       15.44
   0.00004646   0.00010494  -0.00020718            6.83       15.44      -30.48

 
     init_run     :      1.00s CPU      4.87s WALL (       1 calls)
     electrons    :      2.09s CPU      2.23s WALL (       1 calls)
     forces       :      0.04s CPU      0.05s WALL (       1 calls)
     stress       :      0.18s CPU      0.18s WALL (       1 calls)

     Called by init_run:
     wfcinit      :      0.56s CPU      4.26s WALL (       1 calls)
                                        4.26s GPU  (       1 calls)
     potinit      :      0.22s CPU      0.30s WALL (       1 calls)
     hinit0       :      0.19s CPU      0.22s WALL (       1 calls)

     Called by electrons:
     c_bands      :      1.35s CPU      1.41s WALL (      15 calls)
     sum_band     :      0.37s CPU      0.42s WALL (      15 calls)
     v_of_rho     :      0.18s CPU      0.27s WALL (      15 calls)
     mix_rho      :      0.16s CPU      0.17s WALL (      15 calls)

     Called by c_bands:
     init_us_2    :      0.06s CPU      0.06s WALL (      31 calls)
     init_us_2:gp :      0.05s CPU      0.06s WALL (      31 calls)
     regterg      :      1.22s CPU      1.27s WALL (      15 calls)

     Called by *egterg:
     rdiaghg      :      0.47s CPU      1.22s WALL (     100 calls)
                                        1.20s GPU  (     100 calls)
     h_psi        :      1.11s CPU      4.08s WALL (     102 calls)
                                        4.08s GPU  (     102 calls)
     g_psi        :      0.00s CPU      0.00s WALL (      86 calls)
                                        0.00s GPU  (      86 calls)

     Called by h_psi:
     h_psi:calbec :      0.50s CPU      3.39s WALL (     102 calls)
                                        3.39s GPU  (     102 calls)
     vloc_psi     :      0.54s CPU      0.62s WALL (     102 calls)
                                        0.61s GPU  (     102 calls)
     add_vuspsi   :      0.04s CPU      0.06s WALL (     102 calls)
                                        0.06s GPU  (     102 calls)

     General routines
     calbec       :      0.51s CPU      3.40s WALL (     107 calls)
     fft          :      0.32s CPU      0.45s WALL (     127 calls)
                                        0.12s GPU  (      81 calls)
     ffts         :      0.05s CPU      0.06s WALL (      15 calls)
     fftw         :      0.58s CPU      0.76s WALL (    1655 calls)
                                        0.69s GPU  (    1655 calls)
 
     Parallel routines
 
     PWSCF        :      3.35s CPU      7.43s WALL

 
   This run was terminated on:  11:32:13  10May2023            

=------------------------------------------------------------------------------=
   JOB DONE.
=------------------------------------------------------------------------------=
