An instance of this daemon is already running

     Program PWSCF v.7.1 starts on 10May2023 at 11:33:33 

     This program is part of the open-source Quantum ESPRESSO suite
     for quantum simulation of materials; please cite
         "P. Giannozzi et al., J. Phys.:Condens. Matter 21 395502 (2009);
         "P. Giannozzi et al., J. Phys.:Condens. Matter 29 465901 (2017);
         "P. Giannozzi et al., J. Chem. Phys. 152 154105 (2020);
          URL http://www.quantum-espresso.org", 
     in publications or presentations arising from this work. More details at
     http://www.quantum-espresso.org/quote

     Parallel version (MPI & OpenMP), running on       4 processor cores
     Number of MPI processes:                 4
     Threads/MPI process:                     1

     MPI processes distributed on     1 nodes
     706976 MiB available memory on the printing compute node when the environment starts
 
     Reading input from pw-si-20.in
Warning: card &CELL ignored
Warning: card / ignored

     Current dimensions of program PWSCF are:
     Max number of different atomic species (ntypx) = 10
     Max number of k-points (npk) =  40000
     Max angular momentum in pseudopotentials (lmaxx) =  4

     IMPORTANT: XC functional enforced from input :
     Exchange-correlation= PBE
                           (   1   4   3   4   0   0   0)
     Any further DFT definition will be discarded
     Please, verify this is what you really want


     gamma-point specific algorithms are used
 
     K-points division:     npool     =       2
     R & G space division:  proc/nbgrp/npool/nimage =       2
     Subspace diagonalization in iterative solution of the eigenvalue problem:
     a serial algorithm will be used

     Message from routine divide_et_impera:
     suboptimal parallelization: some nodes have no k-points
 
     Parallelization info
     --------------------
     sticks:   dense  smooth     PW     G-vecs:    dense   smooth      PW
     Min        2062    2062    545                94545    94545   12891
     Max        2065    2065    548                94546    94546   12896
     Sum        4127    4127   1093               189091   189091   25787
 
     Using Slab Decomposition
 


     bravais-lattice index     =            0
     lattice parameter (alat)  =      20.0251  a.u.
     unit-cell volume          =    8520.6741 (a.u.)^3
     number of atoms/cell      =           64
     number of atomic types    =            1
     number of electrons       =       256.00
     number of Kohn-Sham states=          154
     kinetic-energy cutoff     =      30.0000  Ry
     charge density cutoff     =     120.0000  Ry
     scf convergence threshold =      1.0E-06
     mixing beta               =       0.5000
     number of iterations used =            8  plain     mixing
     Exchange-correlation= PBE
                           (   1   4   3   4   0   0   0)

     GPU acceleration is ACTIVE.
     GPU-aware MPI enabled

     Message from routine print_cuda_info:
     High GPU oversubscription detected. Are you sure this is what you want?

     celldm(1)=  20.025122  celldm(2)=   0.000000  celldm(3)=   0.000000
     celldm(4)=   0.000000  celldm(5)=   0.000000  celldm(6)=   0.000000

     crystal axes: (cart. coord. in units of alat)
               a(1) = (   1.000000   0.000000   0.000000 )  
               a(2) = (   0.000000   1.076291   0.000000 )  
               a(3) = (   0.000000   0.000000   0.985867 )  

     reciprocal axes: (cart. coord. in units 2 pi/alat)
               b(1) = (  1.000000  0.000000  0.000000 )  
               b(2) = (  0.000000  0.929116  0.000000 )  
               b(3) = (  0.000000  0.000000  1.014335 )  


     PseudoPot. # 1 for Si read from file:
     /home/ppiaggi/pseudos/Si_ONCV_PBE_sr.upf
     MD5 check sum: 8553c464762ac42b85b1eed164b4d029
     Pseudo is Norm-conserving, Zval =  4.0
     Generated using ONCVPSP code by D. R. Hamann
     Using radial grid of 1510 points,  4 beta functions with: 
                l(1) =   0
                l(2) =   0
                l(3) =   1
                l(4) =   1

     atomic species   valence    mass     pseudopotential
        Si             4.00    28.08500     Si( 1.00)

     No symmetry found



   Cartesian axes

     site n.     atom                  positions (alat units)
         1           Si  tau(   1) = (  -0.0020098   0.0058000  -0.0091820  )
         2           Si  tau(   2) = (  -0.0041146   0.2776293   0.2435065  )
         3           Si  tau(   3) = (   0.2364061   0.0165346   0.2379187  )
         4           Si  tau(   4) = (   0.2266399   0.2593785   0.0125217  )
         5           Si  tau(   5) = (   0.1376314   0.1159053   0.1352550  )
         6           Si  tau(   6) = (   0.4972645  -0.0114388  -0.0168735  )
         7           Si  tau(   7) = (   0.4723706   0.2521956   0.2262053  )
         8           Si  tau(   8) = (   0.5948835   0.1341897   0.1297897  )
         9           Si  tau(   9) = (   0.7272734   0.0010158   0.2569417  )
        10           Si  tau(  10) = (   0.7286301   0.2784420   0.0120174  )
        11           Si  tau(  11) = (   0.0005737   0.5094418   0.0081455  )
        12           Si  tau(  12) = (   0.2359900   0.5414112   0.2364285  )
        13           Si  tau(  13) = (   0.1161293   0.6415142   0.1369761  )
        14           Si  tau(  14) = (   0.3476167   0.4025429   0.1085033  )
        15           Si  tau(  15) = (   0.4933445   0.5249879   0.0072422  )
        16           Si  tau(  16) = (   0.6146589   0.6463305   0.1147871  )
        17           Si  tau(  17) = (   0.8401813   0.3784600   0.1305107  )
        18           Si  tau(  18) = (   0.7261731   0.5346546   0.2302338  )
        19           Si  tau(  19) = (   0.0063562   0.7785756   0.2293736  )
        20           Si  tau(  20) = (   0.2312644   0.7888559  -0.0140929  )
        21           Si  tau(  21) = (   0.3696671   0.9081564   0.1215056  )
        22           Si  tau(  22) = (   0.4799829   0.7691442   0.2341887  )
        23           Si  tau(  23) = (   0.7339940   0.7695974  -0.0082615  )
        24           Si  tau(  24) = (   0.8404555   0.9289370   0.1041893  )
        25           Si  tau(  25) = (  -0.0017789  -0.0115154   0.4893725  )
        26           Si  tau(  26) = (   0.2323235   0.2467543   0.4947212  )
        27           Si  tau(  27) = (   0.1303592   0.1414196   0.6196304  )
        28           Si  tau(  28) = (   0.3716897   0.1248291   0.3563040  )
        29           Si  tau(  29) = (   0.4686177   0.0002479   0.4991653  )
        30           Si  tau(  30) = (   0.6113086   0.1317878   0.6118976  )
        31           Si  tau(  31) = (   0.8509590   0.1444003   0.3758785  )
        32           Si  tau(  32) = (   0.7369862   0.2643821   0.4774681  )
        33           Si  tau(  33) = (   0.1165279   0.3848194   0.3742708  )
        34           Si  tau(  34) = (  -0.0007818   0.5316678   0.4797105  )
        35           Si  tau(  35) = (   0.1143775   0.6722155   0.6154645  )
        36           Si  tau(  36) = (   0.6073314   0.3800722   0.3746775  )
        37           Si  tau(  37) = (   0.3634031   0.6557236   0.3792646  )
        38           Si  tau(  38) = (   0.3689845   0.3974044   0.6076044  )
        39           Si  tau(  39) = (   0.4940018   0.5265380   0.4960016  )
        40           Si  tau(  40) = (   0.6211974   0.6453419   0.5971198  )
        41           Si  tau(  41) = (   0.8467138   0.6721827   0.3627988  )
        42           Si  tau(  42) = (   0.8434892   0.3876145   0.5994252  )
        43           Si  tau(  43) = (   0.1323218   0.9115674   0.3514519  )
        44           Si  tau(  44) = (   0.2547133   0.7947012   0.5002221  )
        45           Si  tau(  45) = (   0.6040247   0.9181693   0.3624714  )
        46           Si  tau(  46) = (   0.3571760   0.9220919   0.6103036  )
        47           Si  tau(  47) = (   0.7315269   0.7898065   0.4785741  )
        48           Si  tau(  48) = (   0.8329770   0.9296470   0.5918195  )
        49           Si  tau(  49) = (  -0.0115484   0.2542643   0.7420284  )
        50           Si  tau(  50) = (   0.2591608   0.0146883   0.7484658  )
        51           Si  tau(  51) = (   0.3718540   0.1303051   0.8447602  )
        52           Si  tau(  52) = (   0.4945678   0.2799323   0.7227516  )
        53           Si  tau(  53) = (   0.7228572  -0.0127600   0.7465673  )
        54           Si  tau(  54) = (   0.8299973   0.1263121   0.8678559  )
        55           Si  tau(  55) = (   0.1383391   0.3985507   0.8404176  )
        56           Si  tau(  56) = (   0.2285372   0.5270243   0.7365911  )
        57           Si  tau(  57) = (   0.6133767   0.3830536   0.8464195  )
        58           Si  tau(  58) = (   0.3659299   0.6666277   0.8404286  )
        59           Si  tau(  59) = (   0.7119453   0.5109996   0.7202683  )
        60           Si  tau(  60) = (   0.8394926   0.6624115   0.8571099  )
        61           Si  tau(  61) = (  -0.0038084   0.8008649   0.7456320  )
        62           Si  tau(  62) = (   0.1293200   0.9160206   0.8681696  )
        63           Si  tau(  63) = (   0.4673407   0.7962948   0.7424979  )
        64           Si  tau(  64) = (   0.5875665   0.9122704   0.8687561  )

     number of k points=     1  Fermi-Dirac smearing, width (Ry)=  0.0100
                       cart. coord. in units 2pi/alat
        k(    1) = (   0.0000000   0.0000000   0.0000000), wk =   2.0000000

     Dense  grid:    94546 G-vectors     FFT dimensions: (  72,  75,  72)

     Estimated max dynamical RAM per process >     151.66 MB

     Estimated total dynamical RAM >     583.55 MB

     Initial potential from superposition of free atoms

     starting charge     255.9608, renormalised to     256.0000
     Starting wfcs are  256 randomized atomic wfcs

     total cpu time spent up to now is        5.1 secs

     Self-consistent Calculation

     iteration #  1     ecut=    30.00 Ry     beta= 0.50
     Davidson diagonalization with overlap
     ethr =  1.00E-02,  avg # of iterations =  3.0

     Threshold (ethr) on eigenvalues was too large:
     Diagonalizing with lowered threshold

     Davidson diagonalization with overlap
     ethr =  7.75E-04,  avg # of iterations =  2.0

     total cpu time spent up to now is        5.4 secs

     total energy              =    -501.93742675 Ry
     estimated scf accuracy    <       2.26556106 Ry

     iteration #  2     ecut=    30.00 Ry     beta= 0.50
     Davidson diagonalization with overlap
     ethr =  8.85E-04,  avg # of iterations =  4.0

     total cpu time spent up to now is        5.5 secs

     total energy              =    -501.68669710 Ry
     estimated scf accuracy    <       1.76669064 Ry

     iteration #  3     ecut=    30.00 Ry     beta= 0.50
     Davidson diagonalization with overlap
     ethr =  6.90E-04,  avg # of iterations =  9.0

     total cpu time spent up to now is        5.7 secs

     total energy              =    -501.77824246 Ry
     estimated scf accuracy    <       3.13446193 Ry

     iteration #  4     ecut=    30.00 Ry     beta= 0.50
     Davidson diagonalization with overlap
     ethr =  6.90E-04,  avg # of iterations =  3.0

     total cpu time spent up to now is        5.8 secs

     total energy              =    -502.07973398 Ry
     estimated scf accuracy    <       0.37842485 Ry

     iteration #  5     ecut=    30.00 Ry     beta= 0.50
     Davidson diagonalization with overlap
     ethr =  1.48E-04,  avg # of iterations =  5.0

     total cpu time spent up to now is        5.9 secs

     total energy              =    -502.13185330 Ry
     estimated scf accuracy    <       0.14360020 Ry

     iteration #  6     ecut=    30.00 Ry     beta= 0.50
     Davidson diagonalization with overlap
     ethr =  5.61E-05,  avg # of iterations =  9.0

     total cpu time spent up to now is        6.1 secs

     total energy              =    -502.14724865 Ry
     estimated scf accuracy    <       0.02008723 Ry

     iteration #  7     ecut=    30.00 Ry     beta= 0.50
     Davidson diagonalization with overlap
     ethr =  7.85E-06,  avg # of iterations = 10.0

     total cpu time spent up to now is        6.2 secs

     total energy              =    -502.14950454 Ry
     estimated scf accuracy    <       0.00430529 Ry

     iteration #  8     ecut=    30.00 Ry     beta= 0.50
     Davidson diagonalization with overlap
     ethr =  1.68E-06,  avg # of iterations =  6.0

     total cpu time spent up to now is        6.3 secs

     total energy              =    -502.15013347 Ry
     estimated scf accuracy    <       0.00340379 Ry

     iteration #  9     ecut=    30.00 Ry     beta= 0.50
     Davidson diagonalization with overlap
     ethr =  1.33E-06,  avg # of iterations =  2.0

     total cpu time spent up to now is        6.5 secs

     total energy              =    -502.15051765 Ry
     estimated scf accuracy    <       0.00046258 Ry

     iteration # 10     ecut=    30.00 Ry     beta= 0.50
     Davidson diagonalization with overlap
     ethr =  1.81E-07,  avg # of iterations =  4.0

     total cpu time spent up to now is        6.6 secs

     total energy              =    -502.15055999 Ry
     estimated scf accuracy    <       0.00010899 Ry

     iteration # 11     ecut=    30.00 Ry     beta= 0.50
     Davidson diagonalization with overlap
     ethr =  4.26E-08,  avg # of iterations =  4.0

     total cpu time spent up to now is        6.7 secs

     total energy              =    -502.15057272 Ry
     estimated scf accuracy    <       0.00004769 Ry

     iteration # 12     ecut=    30.00 Ry     beta= 0.50
     Davidson diagonalization with overlap
     ethr =  1.86E-08,  avg # of iterations =  3.0

     total cpu time spent up to now is        6.8 secs

     total energy              =    -502.15058009 Ry
     estimated scf accuracy    <       0.00000978 Ry

     iteration # 13     ecut=    30.00 Ry     beta= 0.50
     Davidson diagonalization with overlap
     ethr =  3.82E-09,  avg # of iterations =  2.0

     total cpu time spent up to now is        6.9 secs

     total energy              =    -502.15058111 Ry
     estimated scf accuracy    <       0.00000203 Ry

     iteration # 14     ecut=    30.00 Ry     beta= 0.50
     Davidson diagonalization with overlap
     ethr =  7.92E-10,  avg # of iterations =  4.0

     total cpu time spent up to now is        7.0 secs

     End of self-consistent calculation

          k = 0.0000 0.0000 0.0000 ( 11829 PWs)   bands (ev):

    -5.9603  -5.1338  -5.1322  -4.9876  -4.8184  -4.7237  -4.4634  -4.3452
    -4.2559  -4.2130  -4.1516  -4.0462  -3.8421  -3.8136  -3.7591  -3.6794
    -3.5907  -3.5044  -3.3981  -3.3464  -3.2151  -3.1159  -2.7487  -2.3018
    -2.1490  -1.9376  -1.8868  -1.7464  -1.6173  -1.6069  -1.4958  -1.4317
    -1.4122  -1.3083  -1.2868  -1.2838  -1.1384  -1.1059  -1.0279  -0.9892
    -0.9170  -0.7373  -0.6093  -0.4756  -0.3694   0.2405   0.4514   0.5225
     0.6212   0.7201   0.7589   0.8963   0.9437   1.0289   1.0858   1.1370
     1.2434   1.8730   1.9275   1.9708   2.0029   2.0887   2.1177   2.1908
     2.2139   2.2323   2.2622   2.3623   2.3654   2.4053   2.4462   2.5081
     2.5345   2.5668   2.6134   2.6540   2.6918   2.7587   2.8050   2.8960
     2.9238   2.9785   3.0411   3.1163   3.1487   3.1824   3.2517   3.2996
     3.3385   3.4364   3.5465   3.8244   3.9129   3.9610   4.0568   4.1035
     4.1604   4.2597   4.3402   4.3646   4.4254   4.4834   4.5089   4.5829
     4.6214   4.7179   4.7684   4.7722   4.8628   4.9003   4.9343   4.9443
     4.9779   5.1673   5.2414   5.2697   5.3366   5.3969   5.5053   5.5228
     5.6066   5.6801   5.8185   6.0727   6.1803   6.3158   6.4153   6.4405
     6.5368   6.6534   6.8613   6.9282   7.0330   7.0939   7.1507   7.2758
     7.3525   7.3751   7.4156   7.4752   7.4924   7.5861   7.7350   7.8386
     8.0590   8.1401   8.2335   8.2502   8.3330   8.4143   8.4786   8.5556
     8.5979   8.7112

     the Fermi energy is     6.5258 ev

!    total energy              =    -502.15058085 Ry
     estimated scf accuracy    <       0.00000092 Ry
     smearing contrib. (-TS)   =      -0.08611925 Ry
     internal energy E=F+TS    =    -502.06446160 Ry

     The total energy is F=E-TS. E is the sum of the following terms:
     one-electron contribution =     144.54636719 Ry
     hartree contribution      =      40.14004924 Ry
     xc contribution           =    -154.60925491 Ry
     ewald contribution        =    -532.14162313 Ry

     convergence has been achieved in  14 iterations

     Forces acting on atoms (cartesian axes, Ry/au):

     atom    1 type  1   force =    -0.03226349   -0.04183966    0.00823623
     atom    2 type  1   force =    -0.04184597   -0.08987783   -0.01553170
     atom    3 type  1   force =     0.24005896   -0.33742650    0.24498238
     atom    4 type  1   force =     0.04309234    0.00576886   -0.11201009
     atom    5 type  1   force =    -0.33000032    0.23965838   -0.24535404
     atom    6 type  1   force =    -0.05691506    0.05167039    0.07863707
     atom    7 type  1   force =    -0.04458493    0.14701627    0.07477026
     atom    8 type  1   force =     0.11250205   -0.10021378   -0.09376865
     atom    9 type  1   force =     0.00331149   -0.02596715   -0.02687578
     atom   10 type  1   force =    -0.11099091   -0.14854605   -0.11794580
     atom   11 type  1   force =    -0.05371775   -0.00257740   -0.04412026
     atom   12 type  1   force =     0.15451008   -0.16815327    0.18607796
     atom   13 type  1   force =    -0.09225536    0.08870778   -0.22116583
     atom   14 type  1   force =     0.03468341   -0.00340430    0.04898398
     atom   15 type  1   force =    -0.05405942   -0.04108741   -0.13426031
     atom   16 type  1   force =    -0.05359744    0.09850693   -0.01403782
     atom   17 type  1   force =     0.15854741    0.13121431    0.07751205
     atom   18 type  1   force =     0.07158410   -0.09346651    0.14423735
     atom   19 type  1   force =    -0.13438736    0.11484633    0.06036082
     atom   20 type  1   force =     0.10072293   -0.10856260    0.12245852
     atom   21 type  1   force =    -0.05209008    0.06854080   -0.05007060
     atom   22 type  1   force =     0.04170331    0.02785030    0.04721942
     atom   23 type  1   force =    -0.08979994    0.15221594    0.07261202
     atom   24 type  1   force =     0.06667674    0.01903046    0.03645900
     atom   25 type  1   force =    -0.01680819    0.00067399   -0.01126809
     atom   26 type  1   force =     0.13997235    0.10410648   -0.11226530
     atom   27 type  1   force =    -0.12315786   -0.14137284    0.09100755
     atom   28 type  1   force =    -0.05682327    0.01184543    0.05892452
     atom   29 type  1   force =     0.06382208   -0.04047766   -0.01446013
     atom   30 type  1   force =     0.00400823   -0.02734045   -0.00383192
     atom   31 type  1   force =     0.15126091   -0.13418368   -0.09900923
     atom   32 type  1   force =    -0.07874998   -0.01945807    0.09800146
     atom   33 type  1   force =     0.03921392    0.05819537   -0.02019320
     atom   34 type  1   force =    -0.07364118    0.02202557    0.03609633
     atom   35 type  1   force =    -0.01701211   -0.02446588   -0.01370741
     atom   36 type  1   force =    -0.06229294    0.07324391   -0.11678108
     atom   37 type  1   force =     0.00529777   -0.01389999   -0.03703313
     atom   38 type  1   force =    -0.09696283    0.00553863   -0.00487604
     atom   39 type  1   force =    -0.03827501   -0.04255640   -0.07404189
     atom   40 type  1   force =    -0.03174359    0.12225810    0.04867430
     atom   41 type  1   force =     0.11539408   -0.08606233   -0.07938797
     atom   42 type  1   force =     0.12007918    0.05375083    0.05523233
     atom   43 type  1   force =    -0.01523561    0.05342822    0.02026697
     atom   44 type  1   force =    -0.10037243   -0.05356460   -0.08229989
     atom   45 type  1   force =    -0.03915363    0.03418484   -0.01134239
     atom   46 type  1   force =     0.04452483    0.12713345    0.08424488
     atom   47 type  1   force =    -0.06222777    0.02061970    0.03264813
     atom   48 type  1   force =     0.10758958    0.05946340    0.09074522
     atom   49 type  1   force =    -0.04236319    0.02964455   -0.01141564
     atom   50 type  1   force =    -0.14990025   -0.18503000   -0.11998412
     atom   51 type  1   force =     0.11578531    0.14410966    0.14697633
     atom   52 type  1   force =    -0.04264298   -0.11066134   -0.00060526
     atom   53 type  1   force =    -0.03085272   -0.03853189   -0.04423713
     atom   54 type  1   force =     0.10023761    0.02482083    0.01535254
     atom   55 type  1   force =    -0.17243652   -0.17560746    0.16454228
     atom   56 type  1   force =     0.14192881    0.13944698   -0.13547588
     atom   57 type  1   force =    -0.00516373    0.05121496    0.13438572
     atom   58 type  1   force =    -0.09371031   -0.14584564    0.14297401
     atom   59 type  1   force =     0.11604046    0.03836120    0.04012033
     atom   60 type  1   force =     0.15165306   -0.12451787   -0.11675034
     atom   61 type  1   force =    -0.08815093   -0.00645824   -0.03387193
     atom   62 type  1   force =    -0.09044261    0.17403265   -0.08334015
     atom   63 type  1   force =     0.12286171    0.05747179   -0.14070123
     atom   64 type  1   force =     0.10756498   -0.01944048   -0.02071971

     Total force =     1.390947     Total SCF correction =     0.001901


     Computing stress (Cartesian axis) and pressure

          total   stress  (Ry/bohr**3)                   (kbar)     P=       83.03
   0.00060004  -0.00003021   0.00022156           88.27       -4.44       32.59
  -0.00003021   0.00042361  -0.00000225           -4.44       62.32       -0.33
   0.00022156  -0.00000225   0.00066969           32.59       -0.33       98.51

 
     init_run     :      1.19s CPU      5.08s WALL (       1 calls)
     electrons    :      1.72s CPU      1.85s WALL (       1 calls)
     forces       :      0.04s CPU      0.04s WALL (       1 calls)
     stress       :      0.16s CPU      0.16s WALL (       1 calls)

     Called by init_run:
     wfcinit      :      0.58s CPU      4.27s WALL (       1 calls)
                                        4.27s GPU  (       1 calls)
     potinit      :      0.19s CPU      0.29s WALL (       1 calls)
     hinit0       :      0.41s CPU      0.44s WALL (       1 calls)

     Called by electrons:
     c_bands      :      1.08s CPU      1.15s WALL (      15 calls)
     sum_band     :      0.32s CPU      0.36s WALL (      15 calls)
     v_of_rho     :      0.16s CPU      0.26s WALL (      15 calls)
     mix_rho      :      0.13s CPU      0.15s WALL (      15 calls)

     Called by c_bands:
     init_us_2    :      0.05s CPU      0.06s WALL (      31 calls)
     init_us_2:gp :      0.05s CPU      0.06s WALL (      31 calls)
     regterg      :      0.96s CPU      1.01s WALL (      15 calls)

     Called by *egterg:
     rdiaghg      :      0.39s CPU      1.16s WALL (      84 calls)
                                        1.14s GPU  (      84 calls)
     h_psi        :      0.96s CPU      3.93s WALL (      86 calls)
                                        3.93s GPU  (      86 calls)
     g_psi        :      0.00s CPU      0.00s WALL (      70 calls)
                                        0.00s GPU  (      70 calls)

     Called by h_psi:
     h_psi:calbec :      0.53s CPU      3.41s WALL (      86 calls)
                                        3.41s GPU  (      86 calls)
     vloc_psi     :      0.39s CPU      0.46s WALL (      86 calls)
                                        0.46s GPU  (      86 calls)
     add_vuspsi   :      0.03s CPU      0.05s WALL (      86 calls)
                                        0.05s GPU  (      86 calls)

     General routines
     calbec       :      0.53s CPU      3.42s WALL (      91 calls)
     fft          :      0.51s CPU      0.64s WALL (     127 calls)
                                        0.14s GPU  (      81 calls)
     ffts         :      0.05s CPU      0.05s WALL (      15 calls)
     fftw         :      0.44s CPU      0.59s WALL (    1621 calls)
                                        0.53s GPU  (    1621 calls)
 
     Parallel routines
 
     PWSCF        :      3.16s CPU      7.25s WALL

 
   This run was terminated on:  11:33:40  10May2023            

=------------------------------------------------------------------------------=
   JOB DONE.
=------------------------------------------------------------------------------=
