An instance of this daemon is already running
An instance of this daemon is already running

     Program PWSCF v.7.1 starts on 10May2023 at 11:30:48 

     This program is part of the open-source Quantum ESPRESSO suite
     for quantum simulation of materials; please cite
         "P. Giannozzi et al., J. Phys.:Condens. Matter 21 395502 (2009);
         "P. Giannozzi et al., J. Phys.:Condens. Matter 29 465901 (2017);
         "P. Giannozzi et al., J. Chem. Phys. 152 154105 (2020);
          URL http://www.quantum-espresso.org", 
     in publications or presentations arising from this work. More details at
     http://www.quantum-espresso.org/quote

     Parallel version (MPI & OpenMP), running on       4 processor cores
     Number of MPI processes:                 4
     Threads/MPI process:                     1

     MPI processes distributed on     1 nodes
     706999 MiB available memory on the printing compute node when the environment starts
 
     Reading input from pw-si-3.in
Warning: card &CELL ignored
Warning: card / ignored

     Current dimensions of program PWSCF are:
     Max number of different atomic species (ntypx) = 10
     Max number of k-points (npk) =  40000
     Max angular momentum in pseudopotentials (lmaxx) =  4

     IMPORTANT: XC functional enforced from input :
     Exchange-correlation= PBE
                           (   1   4   3   4   0   0   0)
     Any further DFT definition will be discarded
     Please, verify this is what you really want


     gamma-point specific algorithms are used
 
     K-points division:     npool     =       2
     R & G space division:  proc/nbgrp/npool/nimage =       2
     Subspace diagonalization in iterative solution of the eigenvalue problem:
     a serial algorithm will be used

     Message from routine divide_et_impera:
     suboptimal parallelization: some nodes have no k-points
 
     Parallelization info
     --------------------
     sticks:   dense  smooth     PW     G-vecs:    dense   smooth      PW
     Min        2163    2163    573               101537   101537   13805
     Max        2164    2164    578               101540   101540   13806
     Sum        4327    4327   1151               203077   203077   27611
 
     Using Slab Decomposition
 


     bravais-lattice index     =            0
     lattice parameter (alat)  =      20.8288  a.u.
     unit-cell volume          =    9148.3817 (a.u.)^3
     number of atoms/cell      =           64
     number of atomic types    =            1
     number of electrons       =       256.00
     number of Kohn-Sham states=          154
     kinetic-energy cutoff     =      30.0000  Ry
     charge density cutoff     =     120.0000  Ry
     scf convergence threshold =      1.0E-06
     mixing beta               =       0.5000
     number of iterations used =            8  plain     mixing
     Exchange-correlation= PBE
                           (   1   4   3   4   0   0   0)

     GPU acceleration is ACTIVE.
     GPU-aware MPI enabled

     Message from routine print_cuda_info:
     High GPU oversubscription detected. Are you sure this is what you want?

     celldm(1)=  20.828763  celldm(2)=   0.000000  celldm(3)=   0.000000
     celldm(4)=   0.000000  celldm(5)=   0.000000  celldm(6)=   0.000000

     crystal axes: (cart. coord. in units of alat)
               a(1) = (   1.000000   0.000000   0.000000 )  
               a(2) = (   0.000000   1.045722   0.000000 )  
               a(3) = (   0.000000   0.000000   0.968139 )  

     reciprocal axes: (cart. coord. in units 2 pi/alat)
               b(1) = (  1.000000  0.000000  0.000000 )  
               b(2) = (  0.000000  0.956277  0.000000 )  
               b(3) = (  0.000000  0.000000  1.032910 )  


     PseudoPot. # 1 for Si read from file:
     /home/ppiaggi/pseudos/Si_ONCV_PBE_sr.upf
     MD5 check sum: 8553c464762ac42b85b1eed164b4d029
     Pseudo is Norm-conserving, Zval =  4.0
     Generated using ONCVPSP code by D. R. Hamann
     Using radial grid of 1510 points,  4 beta functions with: 
                l(1) =   0
                l(2) =   0
                l(3) =   1
                l(4) =   1

     atomic species   valence    mass     pseudopotential
        Si             4.00    28.08500     Si( 1.00)

     No symmetry found



   Cartesian axes

     site n.     atom                  positions (alat units)
         1           Si  tau(   1) = (  -0.0134645  -0.0106119  -0.0012200  )
         2           Si  tau(   2) = (  -0.0115189   0.2426718   0.2371962  )
         3           Si  tau(   3) = (   0.2554560  -0.0132007   0.2461269  )
         4           Si  tau(   4) = (   0.2756368   0.2354331  -0.0087429  )
         5           Si  tau(   5) = (   0.1381600   0.1375529   0.1104177  )
         6           Si  tau(   6) = (   0.5172746  -0.0081793  -0.0008132  )
         7           Si  tau(   7) = (   0.5307079   0.2540450   0.2487578  )
         8           Si  tau(   8) = (   0.6596610   0.1256291   0.1275121  )
         9           Si  tau(   9) = (   0.7915450   0.0006806   0.2312841  )
        10           Si  tau(  10) = (   0.7956041   0.2706496  -0.0072497  )
        11           Si  tau(  11) = (  -0.0172164   0.5050661   0.0168085  )
        12           Si  tau(  12) = (   0.2691896   0.5176015   0.2493096  )
        13           Si  tau(  13) = (   0.1238174   0.6233896   0.1137608  )
        14           Si  tau(  14) = (   0.3788870   0.3609868   0.1139030  )
        15           Si  tau(  15) = (   0.5219609   0.4982137   0.0073367  )
        16           Si  tau(  16) = (   0.6392124   0.6492405   0.1251434  )
        17           Si  tau(  17) = (   0.9217203   0.3785923   0.1075592  )
        18           Si  tau(  18) = (   0.7931929   0.5221441   0.2465916  )
        19           Si  tau(  19) = (  -0.0154066   0.7483805   0.2383414  )
        20           Si  tau(  20) = (   0.2651238   0.7676177   0.0016299  )
        21           Si  tau(  21) = (   0.3727013   0.8804503   0.1234425  )
        22           Si  tau(  22) = (   0.5179106   0.7399530   0.2391367  )
        23           Si  tau(  23) = (   0.7969021   0.7396123   0.0161358  )
        24           Si  tau(  24) = (   0.8961842   0.8855620   0.1350906  )
        25           Si  tau(  25) = (   0.0153839   0.0034909   0.4787586  )
        26           Si  tau(  26) = (   0.2752965   0.2611455   0.4726260  )
        27           Si  tau(  27) = (   0.1381804   0.1359501   0.5955206  )
        28           Si  tau(  28) = (   0.3983280   0.1083423   0.3518755  )
        29           Si  tau(  29) = (   0.5200439  -0.0115648   0.4794175  )
        30           Si  tau(  30) = (   0.6418835   0.1348474   0.5937760  )
        31           Si  tau(  31) = (   0.8912841   0.1175041   0.3586072  )
        32           Si  tau(  32) = (   0.7969808   0.2479481   0.4683412  )
        33           Si  tau(  33) = (   0.1355341   0.3714810   0.3457137  )
        34           Si  tau(  34) = (   0.0143133   0.5233438   0.4838468  )
        35           Si  tau(  35) = (   0.1434018   0.6282505   0.5863431  )
        36           Si  tau(  36) = (   0.6577275   0.3949099   0.3507331  )
        37           Si  tau(  37) = (   0.4000791   0.6412504   0.3395323  )
        38           Si  tau(  38) = (   0.4086684   0.3859760   0.6082680  )
        39           Si  tau(  39) = (   0.5125764   0.5152502   0.4906643  )
        40           Si  tau(  40) = (   0.6498311   0.6340013   0.5756173  )
        41           Si  tau(  41) = (   0.9253592   0.6361329   0.3388486  )
        42           Si  tau(  42) = (   0.9184550   0.3784997   0.6081932  )
        43           Si  tau(  43) = (   0.1196175   0.8677978   0.3415435  )
        44           Si  tau(  44) = (   0.2564866   0.7750101   0.4759504  )
        45           Si  tau(  45) = (   0.6677802   0.8666541   0.3592659  )
        46           Si  tau(  46) = (   0.3804248   0.8856635   0.5947995  )
        47           Si  tau(  47) = (   0.7662597   0.7462555   0.4769802  )
        48           Si  tau(  48) = (   0.9079161   0.8667916   0.5826810  )
        49           Si  tau(  49) = (   0.0093702   0.2417006   0.6958793  )
        50           Si  tau(  50) = (   0.2432430  -0.0123724   0.7132556  )
        51           Si  tau(  51) = (   0.4018975   0.1274645   0.8213464  )
        52           Si  tau(  52) = (   0.5218458   0.2399791   0.7219865  )
        53           Si  tau(  53) = (   0.7949109   0.0124923   0.7152429  )
        54           Si  tau(  54) = (   0.9035971   0.1177713   0.8141882  )
        55           Si  tau(  55) = (   0.1360315   0.3677136   0.8185119  )
        56           Si  tau(  56) = (   0.2443763   0.5229413   0.6983192  )
        57           Si  tau(  57) = (   0.6641676   0.3666574   0.8450563  )
        58           Si  tau(  58) = (   0.4034533   0.6306626   0.8317345  )
        59           Si  tau(  59) = (   0.7910347   0.5031480   0.7105455  )
        60           Si  tau(  60) = (   0.9162144   0.6338414   0.8299066  )
        61           Si  tau(  61) = (  -0.0089458   0.7458278   0.7163225  )
        62           Si  tau(  62) = (   0.1327155   0.8657918   0.8174814  )
        63           Si  tau(  63) = (   0.5161896   0.7526168   0.7190977  )
        64           Si  tau(  64) = (   0.6369404   0.8985499   0.8445847  )

     number of k points=     1  Fermi-Dirac smearing, width (Ry)=  0.0100
                       cart. coord. in units 2pi/alat
        k(    1) = (   0.0000000   0.0000000   0.0000000), wk =   2.0000000

     Dense  grid:   101539 G-vectors     FFT dimensions: (  75,  75,  72)

     Estimated max dynamical RAM per process >     162.18 MB

     Estimated total dynamical RAM >     623.92 MB

     Initial potential from superposition of free atoms

     starting charge     255.9608, renormalised to     256.0000
     Starting wfcs are  256 randomized atomic wfcs

     total cpu time spent up to now is        5.1 secs

     Self-consistent Calculation

     iteration #  1     ecut=    30.00 Ry     beta= 0.50
     Davidson diagonalization with overlap
     ethr =  1.00E-02,  avg # of iterations =  3.0

     Threshold (ethr) on eigenvalues was too large:
     Diagonalizing with lowered threshold

     Davidson diagonalization with overlap
     ethr =  7.70E-04,  avg # of iterations =  4.0

     total cpu time spent up to now is        5.4 secs

     total energy              =    -501.48714267 Ry
     estimated scf accuracy    <       2.30818560 Ry

     iteration #  2     ecut=    30.00 Ry     beta= 0.50
     Davidson diagonalization with overlap
     ethr =  9.02E-04,  avg # of iterations =  5.0

     total cpu time spent up to now is        5.5 secs

     total energy              =    -500.96020369 Ry
     estimated scf accuracy    <       4.91069795 Ry

     iteration #  3     ecut=    30.00 Ry     beta= 0.50
     Davidson diagonalization with overlap
     ethr =  9.02E-04,  avg # of iterations =  5.0

     total cpu time spent up to now is        5.7 secs

     total energy              =    -501.63915190 Ry
     estimated scf accuracy    <       1.93042299 Ry

     iteration #  4     ecut=    30.00 Ry     beta= 0.50
     Davidson diagonalization with overlap
     ethr =  7.54E-04,  avg # of iterations =  3.0

     total cpu time spent up to now is        5.8 secs

     total energy              =    -501.73314141 Ry
     estimated scf accuracy    <       0.48951637 Ry

     iteration #  5     ecut=    30.00 Ry     beta= 0.50
     Davidson diagonalization with overlap
     ethr =  1.91E-04,  avg # of iterations =  4.0

     total cpu time spent up to now is        5.9 secs

     total energy              =    -501.80542389 Ry
     estimated scf accuracy    <       0.22718196 Ry

     iteration #  6     ecut=    30.00 Ry     beta= 0.50
     Davidson diagonalization with overlap
     ethr =  8.87E-05,  avg # of iterations =  3.0

     total cpu time spent up to now is        6.0 secs

     total energy              =    -501.83096884 Ry
     estimated scf accuracy    <       0.02427032 Ry

     iteration #  7     ecut=    30.00 Ry     beta= 0.50
     Davidson diagonalization with overlap
     ethr =  9.48E-06,  avg # of iterations = 15.0

     total cpu time spent up to now is        6.2 secs

     total energy              =    -501.83511758 Ry
     estimated scf accuracy    <       0.00634098 Ry

     iteration #  8     ecut=    30.00 Ry     beta= 0.50
     Davidson diagonalization with overlap
     ethr =  2.48E-06,  avg # of iterations =  6.0

     total cpu time spent up to now is        6.4 secs

     total energy              =    -501.83586172 Ry
     estimated scf accuracy    <       0.00441817 Ry

     iteration #  9     ecut=    30.00 Ry     beta= 0.50
     Davidson diagonalization with overlap
     ethr =  1.73E-06,  avg # of iterations =  2.0

     total cpu time spent up to now is        6.5 secs

     total energy              =    -501.83636809 Ry
     estimated scf accuracy    <       0.00038308 Ry

     iteration # 10     ecut=    30.00 Ry     beta= 0.50
     Davidson diagonalization with overlap
     ethr =  1.50E-07,  avg # of iterations =  4.0

     total cpu time spent up to now is        6.6 secs

     total energy              =    -501.83643016 Ry
     estimated scf accuracy    <       0.00023536 Ry

     iteration # 11     ecut=    30.00 Ry     beta= 0.50
     Davidson diagonalization with overlap
     ethr =  9.19E-08,  avg # of iterations =  3.0

     total cpu time spent up to now is        6.8 secs

     total energy              =    -501.83645867 Ry
     estimated scf accuracy    <       0.00011722 Ry

     iteration # 12     ecut=    30.00 Ry     beta= 0.50
     Davidson diagonalization with overlap
     ethr =  4.58E-08,  avg # of iterations =  2.0

     total cpu time spent up to now is        6.9 secs

     total energy              =    -501.83647297 Ry
     estimated scf accuracy    <       0.00000949 Ry

     iteration # 13     ecut=    30.00 Ry     beta= 0.50
     Davidson diagonalization with overlap
     ethr =  3.71E-09,  avg # of iterations =  5.0

     total cpu time spent up to now is        7.0 secs

     total energy              =    -501.83647462 Ry
     estimated scf accuracy    <       0.00000898 Ry

     iteration # 14     ecut=    30.00 Ry     beta= 0.50
     Davidson diagonalization with overlap
     ethr =  3.51E-09,  avg # of iterations =  3.0

     total cpu time spent up to now is        7.1 secs

     total energy              =    -501.83647566 Ry
     estimated scf accuracy    <       0.00000110 Ry

     iteration # 15     ecut=    30.00 Ry     beta= 0.50
     Davidson diagonalization with overlap
     ethr =  4.30E-10,  avg # of iterations =  4.0

     total cpu time spent up to now is        7.3 secs

     total energy              =    -501.83647583 Ry
     estimated scf accuracy    <       0.00000128 Ry

     iteration # 16     ecut=    30.00 Ry     beta= 0.50
     Davidson diagonalization with overlap
     ethr =  4.30E-10,  avg # of iterations =  3.0

     total cpu time spent up to now is        7.4 secs

     End of self-consistent calculation

          k = 0.0000 0.0000 0.0000 ( 12696 PWs)   bands (ev):

    -6.5795  -5.8908  -5.6291  -5.4770  -5.4182  -5.1102  -5.0017  -4.9656
    -4.9021  -4.5040  -4.3866  -4.2706  -4.2491  -4.1231  -4.0899  -4.0243
    -3.9387  -3.7672  -3.6823  -3.6327  -3.5874  -3.5404  -3.1847  -2.9374
    -2.8117  -2.5162  -2.4523  -2.2916  -2.2682  -2.1308  -2.0818  -2.0066
    -1.9570  -1.8459  -1.7705  -1.7134  -1.6338  -1.6033  -1.5455  -1.4835
    -1.3616  -1.3106  -1.1178  -0.9739  -0.6257  -0.3454  -0.2708  -0.1482
    -0.0847   0.0071   0.0788   0.2040   0.3434   0.3629   0.4055   0.4622
     0.6615   1.2060   1.2945   1.3872   1.4797   1.5037   1.5610   1.6331
     1.6603   1.7271   1.8195   1.8400   1.9006   1.9448   1.9765   2.0110
     2.0455   2.1293   2.1491   2.2050   2.2194   2.2459   2.3144   2.3890
     2.4069   2.4894   2.5264   2.5390   2.5497   2.6243   2.6954   2.7311
     2.7811   2.7873   2.9344   3.1202   3.1735   3.2923   3.4422   3.5452
     3.5842   3.6448   3.7078   3.7460   3.7903   3.8714   3.9305   3.9864
     4.0961   4.1607   4.1814   4.2672   4.3208   4.4037   4.4347   4.4724
     4.5279   4.5618   4.6194   4.6730   4.7176   4.8021   4.8793   4.9667
     4.9843   5.0499   5.1419   5.2667   5.4252   5.5119   5.6158   5.8286
     5.9602   6.0414   6.1668   6.1982   6.2957   6.3264   6.3818   6.4752
     6.5462   6.6347   6.7192   6.7889   6.8342   6.8704   6.9357   6.9864
     7.1665   7.2135   7.2919   7.3400   7.5149   7.5463   7.6579   7.7473
     7.8453   7.9095

     the Fermi energy is     5.8481 ev

!    total energy              =    -501.83647595 Ry
     estimated scf accuracy    <       0.00000009 Ry
     smearing contrib. (-TS)   =      -0.07862098 Ry
     internal energy E=F+TS    =    -501.75785496 Ry

     The total energy is F=E-TS. E is the sum of the following terms:
     one-electron contribution =     118.67138446 Ry
     hartree contribution      =      46.44251658 Ry
     xc contribution           =    -152.35442001 Ry
     ewald contribution        =    -514.51733599 Ry

     convergence has been achieved in  16 iterations

     Forces acting on atoms (cartesian axes, Ry/au):

     atom    1 type  1   force =     0.07290757   -0.00319807   -0.00004543
     atom    2 type  1   force =     0.13058430    0.01330695   -0.01007453
     atom    3 type  1   force =    -0.01953237   -0.01010307   -0.03839014
     atom    4 type  1   force =    -0.02661614    0.02258479   -0.06918035
     atom    5 type  1   force =    -0.04321990   -0.08836005    0.03022615
     atom    6 type  1   force =    -0.00280451    0.00051394    0.00289539
     atom    7 type  1   force =    -0.03079488   -0.01492194   -0.03441945
     atom    8 type  1   force =    -0.01964500    0.01570084   -0.05956242
     atom    9 type  1   force =    -0.06152149   -0.08162617   -0.00604712
     atom   10 type  1   force =    -0.02849593   -0.12467804    0.00376968
     atom   11 type  1   force =     0.22308942    0.30531045   -0.27616223
     atom   12 type  1   force =    -0.06268194   -0.07587249   -0.08704672
     atom   13 type  1   force =     0.05390029    0.04209624    0.02543332
     atom   14 type  1   force =     0.06650348    0.06915020    0.05702324
     atom   15 type  1   force =    -0.00064423   -0.00114220   -0.03509172
     atom   16 type  1   force =     0.09790033   -0.12529580   -0.08854351
     atom   17 type  1   force =    -0.20764602   -0.24811559    0.23702023
     atom   18 type  1   force =    -0.07806392   -0.04543167   -0.07890381
     atom   19 type  1   force =     0.29433697    0.31457543   -0.31635221
     atom   20 type  1   force =    -0.05920839   -0.08012387   -0.08789309
     atom   21 type  1   force =     0.07478662    0.08163580    0.04654965
     atom   22 type  1   force =     0.04634122    0.23004376   -0.02890470
     atom   23 type  1   force =    -0.04037958    0.04248533   -0.04717477
     atom   24 type  1   force =    -0.05605132    0.08891374   -0.09352127
     atom   25 type  1   force =     0.02032263   -0.07383322   -0.00222803
     atom   26 type  1   force =     0.01067094   -0.02808595    0.00663693
     atom   27 type  1   force =     0.08558921   -0.06444282   -0.06705593
     atom   28 type  1   force =    -0.00506005    0.03335812    0.01807986
     atom   29 type  1   force =     0.01205608   -0.04158603    0.01144497
     atom   30 type  1   force =     0.06281117   -0.05127374   -0.03795761
     atom   31 type  1   force =     0.03253513   -0.05658088    0.00941558
     atom   32 type  1   force =    -0.10725812    0.08989763    0.07892054
     atom   33 type  1   force =     0.00472981    0.02762117    0.04031547
     atom   34 type  1   force =     0.00936015   -0.10560844   -0.04759494
     atom   35 type  1   force =    -0.05549213    0.17271572   -0.05897324
     atom   36 type  1   force =    -0.00493000   -0.02261742    0.04854839
     atom   37 type  1   force =    -0.11236970   -0.08036889    0.19741405
     atom   38 type  1   force =    -0.07961529   -0.02923761    0.00046885
     atom   39 type  1   force =     0.01276435   -0.01187866   -0.10560351
     atom   40 type  1   force =    -0.04026012   -0.05408076    0.15926038
     atom   41 type  1   force =    -0.23890177   -0.32993304    0.39678936
     atom   42 type  1   force =    -0.10685312    0.08556320   -0.13107151
     atom   43 type  1   force =     0.04309714    0.09361456    0.04305153
     atom   44 type  1   force =     0.00782834   -0.05720148   -0.04998938
     atom   45 type  1   force =    -0.09100725    0.10766280   -0.07068053
     atom   46 type  1   force =     0.04212146    0.06501975    0.03425071
     atom   47 type  1   force =     0.14954883    0.03751831   -0.04149807
     atom   48 type  1   force =    -0.05065983    0.09567826   -0.02869396
     atom   49 type  1   force =     0.07537874   -0.02845899    0.12373939
     atom   50 type  1   force =     0.04387563   -0.01226894    0.00767903
     atom   51 type  1   force =    -0.09863230   -0.12914878    0.09500408
     atom   52 type  1   force =     0.07350859    0.11553785   -0.02416876
     atom   53 type  1   force =    -0.19269826   -0.17452156   -0.13873674
     atom   54 type  1   force =     0.07839819    0.10836036    0.19158675
     atom   55 type  1   force =     0.01332109    0.01665706    0.04058340
     atom   56 type  1   force =     0.16533140   -0.14155215    0.16316919
     atom   57 type  1   force =    -0.06049852    0.06367312   -0.03964916
     atom   58 type  1   force =    -0.07652693   -0.04616883    0.06407569
     atom   59 type  1   force =    -0.07392434    0.01781889    0.02423862
     atom   60 type  1   force =    -0.18037094   -0.19136552    0.19699616
     atom   61 type  1   force =     0.19992114    0.14391897   -0.15441653
     atom   62 type  1   force =     0.02171869    0.06345948    0.05264931
     atom   63 type  1   force =     0.04849701    0.06992534   -0.04825801
     atom   64 type  1   force =     0.03862838   -0.00523536   -0.00334652

     Total force =     1.465056     Total SCF correction =     0.000491


     Computing stress (Cartesian axis) and pressure

          total   stress  (Ry/bohr**3)                   (kbar)     P=       27.18
   0.00006168   0.00023371   0.00002825            9.07       34.38        4.16
   0.00023371   0.00016962  -0.00028981           34.38       24.95      -42.63
   0.00002825  -0.00028981   0.00032306            4.16      -42.63       47.52

 
     init_run     :      1.07s CPU      5.00s WALL (       1 calls)
     electrons    :      2.13s CPU      2.28s WALL (       1 calls)
     forces       :      0.04s CPU      0.05s WALL (       1 calls)
     stress       :      0.17s CPU      0.17s WALL (       1 calls)

     Called by init_run:
     wfcinit      :      0.57s CPU      4.31s WALL (       1 calls)
                                        4.31s GPU  (       1 calls)
     potinit      :      0.20s CPU      0.30s WALL (       1 calls)
     hinit0       :      0.28s CPU      0.31s WALL (       1 calls)

     Called by electrons:
     c_bands      :      1.33s CPU      1.40s WALL (      17 calls)
     sum_band     :      0.41s CPU      0.45s WALL (      17 calls)
     v_of_rho     :      0.18s CPU      0.29s WALL (      17 calls)
     mix_rho      :      0.17s CPU      0.19s WALL (      17 calls)

     Called by c_bands:
     init_us_2    :      0.06s CPU      0.06s WALL (      35 calls)
     init_us_2:gp :      0.06s CPU      0.06s WALL (      35 calls)
     regterg      :      1.18s CPU      1.25s WALL (      17 calls)

     Called by *egterg:
     rdiaghg      :      0.43s CPU      1.20s WALL (      90 calls)
                                        1.18s GPU  (      90 calls)
     h_psi        :      1.13s CPU      4.15s WALL (      92 calls)
                                        4.15s GPU  (      92 calls)
     g_psi        :      0.00s CPU      0.00s WALL (      74 calls)
                                        0.00s GPU  (      74 calls)

     Called by h_psi:
     h_psi:calbec :      0.52s CPU      3.46s WALL (      92 calls)
                                        3.46s GPU  (      92 calls)
     vloc_psi     :      0.55s CPU      0.63s WALL (      92 calls)
                                        0.63s GPU  (      92 calls)
     add_vuspsi   :      0.04s CPU      0.05s WALL (      92 calls)
                                        0.05s GPU  (      92 calls)

     General routines
     calbec       :      0.53s CPU      3.46s WALL (      97 calls)
     fft          :      0.41s CPU      0.55s WALL (     143 calls)
                                        0.13s GPU  (      91 calls)
     ffts         :      0.06s CPU      0.07s WALL (      17 calls)
     fftw         :      0.60s CPU      0.79s WALL (    1819 calls)
                                        0.72s GPU  (    1819 calls)
 
     Parallel routines
 
     PWSCF        :      3.44s CPU      7.59s WALL

 
   This run was terminated on:  11:30:55  10May2023            

=------------------------------------------------------------------------------=
   JOB DONE.
=------------------------------------------------------------------------------=
