An instance of this daemon is already running
An instance of this daemon is already running

     Program PWSCF v.7.1 starts on 10May2023 at 11:45:19 

     This program is part of the open-source Quantum ESPRESSO suite
     for quantum simulation of materials; please cite
         "P. Giannozzi et al., J. Phys.:Condens. Matter 21 395502 (2009);
         "P. Giannozzi et al., J. Phys.:Condens. Matter 29 465901 (2017);
         "P. Giannozzi et al., J. Chem. Phys. 152 154105 (2020);
          URL http://www.quantum-espresso.org", 
     in publications or presentations arising from this work. More details at
     http://www.quantum-espresso.org/quote

     Parallel version (MPI & OpenMP), running on       4 processor cores
     Number of MPI processes:                 4
     Threads/MPI process:                     1

     MPI processes distributed on     1 nodes
     707051 MiB available memory on the printing compute node when the environment starts
 
     Reading input from pw-si-93.in
Warning: card &CELL ignored
Warning: card / ignored

     Current dimensions of program PWSCF are:
     Max number of different atomic species (ntypx) = 10
     Max number of k-points (npk) =  40000
     Max angular momentum in pseudopotentials (lmaxx) =  4

     IMPORTANT: XC functional enforced from input :
     Exchange-correlation= PBE
                           (   1   4   3   4   0   0   0)
     Any further DFT definition will be discarded
     Please, verify this is what you really want


     gamma-point specific algorithms are used
 
     K-points division:     npool     =       2
     R & G space division:  proc/nbgrp/npool/nimage =       2
     Subspace diagonalization in iterative solution of the eigenvalue problem:
     a serial algorithm will be used

     Message from routine divide_et_impera:
     suboptimal parallelization: some nodes have no k-points
 
     Parallelization info
     --------------------
     sticks:   dense  smooth     PW     G-vecs:    dense   smooth      PW
     Min        2042    2042    541                96515    96515   13089
     Max        2045    2045    544                96518    96518   13092
     Sum        4087    4087   1085               193033   193033   26181
 
     Using Slab Decomposition
 


     bravais-lattice index     =            0
     lattice parameter (alat)  =      20.9822  a.u.
     unit-cell volume          =    8696.0209 (a.u.)^3
     number of atoms/cell      =           64
     number of atomic types    =            1
     number of electrons       =       256.00
     number of Kohn-Sham states=          154
     kinetic-energy cutoff     =      30.0000  Ry
     charge density cutoff     =     120.0000  Ry
     scf convergence threshold =      1.0E-06
     mixing beta               =       0.5000
     number of iterations used =            8  plain     mixing
     Exchange-correlation= PBE
                           (   1   4   3   4   0   0   0)

     GPU acceleration is ACTIVE.
     GPU-aware MPI enabled

     Message from routine print_cuda_info:
     High GPU oversubscription detected. Are you sure this is what you want?

     celldm(1)=  20.982187  celldm(2)=   0.000000  celldm(3)=   0.000000
     celldm(4)=   0.000000  celldm(5)=   0.000000  celldm(6)=   0.000000

     crystal axes: (cart. coord. in units of alat)
               a(1) = (   1.000000   0.000000   0.000000 )  
               a(2) = (   0.000000   0.972411   0.000000 )  
               a(3) = (   0.000000   0.000000   0.968096 )  

     reciprocal axes: (cart. coord. in units 2 pi/alat)
               b(1) = (  1.000000  0.000000  0.000000 )  
               b(2) = (  0.000000  1.028372  0.000000 )  
               b(3) = (  0.000000  0.000000  1.032955 )  


     PseudoPot. # 1 for Si read from file:
     /home/ppiaggi/pseudos/Si_ONCV_PBE_sr.upf
     MD5 check sum: 8553c464762ac42b85b1eed164b4d029
     Pseudo is Norm-conserving, Zval =  4.0
     Generated using ONCVPSP code by D. R. Hamann
     Using radial grid of 1510 points,  4 beta functions with: 
                l(1) =   0
                l(2) =   0
                l(3) =   1
                l(4) =   1

     atomic species   valence    mass     pseudopotential
        Si             4.00    28.08500     Si( 1.00)

     No symmetry found



   Cartesian axes

     site n.     atom                  positions (alat units)
         1           Si  tau(   1) = (   0.0015369   0.0100708   0.0118701  )
         2           Si  tau(   2) = (  -0.0155258   0.2361778   0.2444039  )
         3           Si  tau(   3) = (   0.2509963   0.0151674   0.2225355  )
         4           Si  tau(   4) = (   0.2450785   0.2376828  -0.0077631  )
         5           Si  tau(   5) = (   0.1205879   0.1157279   0.1164710  )
         6           Si  tau(   6) = (   0.4948087   0.0070495   0.0073384  )
         7           Si  tau(   7) = (   0.5012162   0.2331248   0.2441415  )
         8           Si  tau(   8) = (   0.6140884   0.1081086   0.1340061  )
         9           Si  tau(   9) = (   0.7440813   0.0077751   0.2361997  )
        10           Si  tau(  10) = (   0.7512966   0.2371740   0.0153412  )
        11           Si  tau(  11) = (  -0.0086561   0.4826888   0.0026476  )
        12           Si  tau(  12) = (   0.2474426   0.4534052   0.2367795  )
        13           Si  tau(  13) = (   0.1183933   0.5816779   0.1361103  )
        14           Si  tau(  14) = (   0.3818201   0.3354069   0.1335227  )
        15           Si  tau(  15) = (   0.4818866   0.4639797  -0.0153902  )
        16           Si  tau(  16) = (   0.6285105   0.5946692   0.1205607  )
        17           Si  tau(  17) = (   0.8594334   0.3563757   0.1092882  )
        18           Si  tau(  18) = (   0.7427098   0.4808450   0.2443408  )
        19           Si  tau(  19) = (   0.0039408   0.7049764   0.2555836  )
        20           Si  tau(  20) = (   0.2388595   0.7043652  -0.0068527  )
        21           Si  tau(  21) = (   0.3713708   0.8158937   0.1100278  )
        22           Si  tau(  22) = (   0.4825288   0.7186729   0.2494125  )
        23           Si  tau(  23) = (   0.7566938   0.7149590   0.0122264  )
        24           Si  tau(  24) = (   0.8624796   0.8213792   0.1324091  )
        25           Si  tau(  25) = (   0.0103160  -0.0055024   0.4708064  )
        26           Si  tau(  26) = (   0.2415207   0.2478897   0.4667252  )
        27           Si  tau(  27) = (   0.1198502   0.1172597   0.5957984  )
        28           Si  tau(  28) = (   0.3630825   0.1004198   0.3428262  )
        29           Si  tau(  29) = (   0.5048652  -0.0125315   0.4747323  )
        30           Si  tau(  30) = (   0.6080106   0.1127159   0.6106685  )
        31           Si  tau(  31) = (   0.8665892   0.1208056   0.3468286  )
        32           Si  tau(  32) = (   0.7612980   0.2454828   0.4873741  )
        33           Si  tau(  33) = (   0.1153145   0.3390015   0.3663724  )
        34           Si  tau(  34) = (   0.0121216   0.4536047   0.4652466  )
        35           Si  tau(  35) = (   0.1081530   0.5731658   0.5879545  )
        36           Si  tau(  36) = (   0.6248176   0.3562865   0.3450953  )
        37           Si  tau(  37) = (   0.3648532   0.5759861   0.3585429  )
        38           Si  tau(  38) = (   0.3829884   0.3572793   0.5831700  )
        39           Si  tau(  39) = (   0.5008236   0.4599038   0.4886256  )
        40           Si  tau(  40) = (   0.6101691   0.5940468   0.6001051  )
        41           Si  tau(  41) = (   0.8698814   0.5784462   0.3456571  )
        42           Si  tau(  42) = (   0.8726261   0.3643968   0.6074894  )
        43           Si  tau(  43) = (   0.1227687   0.8372206   0.3766763  )
        44           Si  tau(  44) = (   0.2616214   0.6881666   0.4670422  )
        45           Si  tau(  45) = (   0.6345307   0.8143267   0.3440520  )
        46           Si  tau(  46) = (   0.3837552   0.8129982   0.5902599  )
        47           Si  tau(  47) = (   0.7500278   0.6931613   0.4844268  )
        48           Si  tau(  48) = (   0.8571722   0.8245359   0.6113657  )
        49           Si  tau(  49) = (  -0.0120226   0.2226408   0.7139684  )
        50           Si  tau(  50) = (   0.2633664  -0.0129421   0.7043468  )
        51           Si  tau(  51) = (   0.3774113   0.1207033   0.8270726  )
        52           Si  tau(  52) = (   0.5099180   0.2244793   0.7132479  )
        53           Si  tau(  53) = (   0.7618636  -0.0063749   0.7059446  )
        54           Si  tau(  54) = (   0.8783665   0.1203512   0.8342782  )
        55           Si  tau(  55) = (   0.1117510   0.3478337   0.8408236  )
        56           Si  tau(  56) = (   0.2312051   0.4762158   0.7247541  )
        57           Si  tau(  57) = (   0.6281967   0.3444833   0.8513444  )
        58           Si  tau(  58) = (   0.3739688   0.5735595   0.8473318  )
        59           Si  tau(  59) = (   0.7348206   0.4793950   0.7267199  )
        60           Si  tau(  60) = (   0.8786195   0.5830850   0.8266621  )
        61           Si  tau(  61) = (   0.0073740   0.7203598   0.7065404  )
        62           Si  tau(  62) = (   0.1175989   0.8265641   0.8406336  )
        63           Si  tau(  63) = (   0.4925388   0.7131150   0.7268828  )
        64           Si  tau(  64) = (   0.6244450   0.8065341   0.8405969  )

     number of k points=     1  Fermi-Dirac smearing, width (Ry)=  0.0100
                       cart. coord. in units 2pi/alat
        k(    1) = (   0.0000000   0.0000000   0.0000000), wk =   2.0000000

     Dense  grid:    96517 G-vectors     FFT dimensions: (  75,  72,  72)

     Estimated max dynamical RAM per process >     154.44 MB

     Estimated total dynamical RAM >     594.18 MB

     Initial potential from superposition of free atoms

     starting charge     255.9608, renormalised to     256.0000
     Starting wfcs are  256 randomized atomic wfcs

     total cpu time spent up to now is        5.2 secs

     Self-consistent Calculation

     iteration #  1     ecut=    30.00 Ry     beta= 0.50
     Davidson diagonalization with overlap
     ethr =  1.00E-02,  avg # of iterations =  3.0

     Threshold (ethr) on eigenvalues was too large:
     Diagonalizing with lowered threshold

     Davidson diagonalization with overlap
     ethr =  6.95E-04,  avg # of iterations =  4.0

     total cpu time spent up to now is        5.5 secs

     total energy              =    -502.61021197 Ry
     estimated scf accuracy    <       2.01429925 Ry

     iteration #  2     ecut=    30.00 Ry     beta= 0.50
     Davidson diagonalization with overlap
     ethr =  7.87E-04,  avg # of iterations =  2.0

     total cpu time spent up to now is        5.6 secs

     total energy              =    -502.47315681 Ry
     estimated scf accuracy    <       0.81835243 Ry

     iteration #  3     ecut=    30.00 Ry     beta= 0.50
     Davidson diagonalization with overlap
     ethr =  3.20E-04,  avg # of iterations = 12.0

     total cpu time spent up to now is        5.8 secs

     total energy              =    -502.33205123 Ry
     estimated scf accuracy    <       2.90606050 Ry

     iteration #  4     ecut=    30.00 Ry     beta= 0.50
     Davidson diagonalization with overlap
     ethr =  3.20E-04,  avg # of iterations =  5.0

     total cpu time spent up to now is        5.9 secs

     total energy              =    -502.69085020 Ry
     estimated scf accuracy    <       0.14205887 Ry

     iteration #  5     ecut=    30.00 Ry     beta= 0.50
     Davidson diagonalization with overlap
     ethr =  5.55E-05,  avg # of iterations = 14.0

     total cpu time spent up to now is        6.1 secs

     total energy              =    -502.70489548 Ry
     estimated scf accuracy    <       0.07102790 Ry

     iteration #  6     ecut=    30.00 Ry     beta= 0.50
     Davidson diagonalization with overlap
     ethr =  2.77E-05,  avg # of iterations =  2.0

     total cpu time spent up to now is        6.2 secs

     total energy              =    -502.70885080 Ry
     estimated scf accuracy    <       0.01941437 Ry

     iteration #  7     ecut=    30.00 Ry     beta= 0.50
     Davidson diagonalization with overlap
     c_bands:  1 eigenvalues not converged
     ethr =  7.58E-06,  avg # of iterations = 20.0

     total cpu time spent up to now is        6.4 secs

     total energy              =    -502.71128036 Ry
     estimated scf accuracy    <       0.00100666 Ry

     iteration #  8     ecut=    30.00 Ry     beta= 0.50
     Davidson diagonalization with overlap
     c_bands:  1 eigenvalues not converged
     ethr =  3.93E-07,  avg # of iterations = 20.0

     total cpu time spent up to now is        6.6 secs

     total energy              =    -502.71153109 Ry
     estimated scf accuracy    <       0.00201611 Ry

     iteration #  9     ecut=    30.00 Ry     beta= 0.50
     Davidson diagonalization with overlap
     ethr =  3.93E-07,  avg # of iterations =  3.0

     total cpu time spent up to now is        6.7 secs

     total energy              =    -502.71164649 Ry
     estimated scf accuracy    <       0.00059531 Ry

     iteration # 10     ecut=    30.00 Ry     beta= 0.50
     Davidson diagonalization with overlap
     ethr =  2.33E-07,  avg # of iterations =  2.0

     total cpu time spent up to now is        6.8 secs

     total energy              =    -502.71168372 Ry
     estimated scf accuracy    <       0.00006249 Ry

     iteration # 11     ecut=    30.00 Ry     beta= 0.50
     Davidson diagonalization with overlap
     ethr =  2.44E-08,  avg # of iterations =  5.0

     total cpu time spent up to now is        7.0 secs

     total energy              =    -502.71169709 Ry
     estimated scf accuracy    <       0.00001774 Ry

     iteration # 12     ecut=    30.00 Ry     beta= 0.50
     Davidson diagonalization with overlap
     ethr =  6.93E-09,  avg # of iterations =  3.0

     total cpu time spent up to now is        7.1 secs

     total energy              =    -502.71169947 Ry
     estimated scf accuracy    <       0.00001160 Ry

     iteration # 13     ecut=    30.00 Ry     beta= 0.50
     Davidson diagonalization with overlap
     ethr =  4.53E-09,  avg # of iterations =  2.0

     total cpu time spent up to now is        7.2 secs

     total energy              =    -502.71169953 Ry
     estimated scf accuracy    <       0.00000291 Ry

     iteration # 14     ecut=    30.00 Ry     beta= 0.50
     Davidson diagonalization with overlap
     ethr =  1.14E-09,  avg # of iterations =  4.0

     total cpu time spent up to now is        7.3 secs

     End of self-consistent calculation

          k = 0.0000 0.0000 0.0000 ( 12075 PWs)   bands (ev):

    -5.9885  -5.1083  -5.0675  -4.9595  -4.8899  -4.7235  -4.5993  -4.2254
    -4.1861  -4.1605  -4.1121  -3.9342  -3.8892  -3.8192  -3.8052  -3.7571
    -3.7186  -3.6535  -3.5810  -3.5140  -3.4399  -3.3633  -2.9985  -2.2596
    -2.1650  -2.0105  -2.0015  -1.9135  -1.8345  -1.7656  -1.6956  -1.6651
    -1.5821  -1.5254  -1.4362  -1.3825  -1.3342  -1.2922  -1.2124  -1.0759
    -1.0313  -0.9414  -0.7765  -0.5281  -0.4969   0.2302   0.2985   0.3782
     0.4746   0.5555   0.6542   0.7261   0.7491   0.8290   0.9505   1.0322
     1.0793   1.8284   1.9223   1.9737   2.0098   2.0218   2.0576   2.0967
     2.1367   2.2026   2.2114   2.2242   2.2579   2.3262   2.3549   2.3746
     2.3818   2.4083   2.4510   2.4698   2.5184   2.5767   2.6219   2.6304
     2.6610   2.7635   2.7866   2.8382   2.8550   2.9524   3.0812   3.1649
     3.2474   3.3056   3.3721   3.5134   3.6069   3.8894   3.9578   4.0562
     4.1270   4.1927   4.2558   4.3002   4.3272   4.3388   4.3993   4.4262
     4.4915   4.5651   4.5899   4.6004   4.6570   4.7051   4.7830   4.8231
     4.8416   4.8936   4.9397   4.9974   5.0896   5.1101   5.1663   5.2498
     5.3602   5.3995   5.4662   5.5467   5.9055   6.0467   6.3220   6.4501
     6.5423   6.5558   6.6419   6.8020   6.8669   6.9465   7.0034   7.1011
     7.1605   7.2390   7.3230   7.4136   7.4324   7.4655   7.5047   7.5805
     8.0494   8.0701   8.1615   8.1681   8.1765   8.2504   8.3248   8.4096
     8.4190   8.4674

     the Fermi energy is     6.4313 ev

!    total energy              =    -502.71170000 Ry
     estimated scf accuracy    <       0.00000010 Ry
     smearing contrib. (-TS)   =      -0.08074185 Ry
     internal energy E=F+TS    =    -502.63095815 Ry

     The total energy is F=E-TS. E is the sum of the following terms:
     one-electron contribution =     142.07581295 Ry
     hartree contribution      =      39.65245868 Ry
     xc contribution           =    -153.98682340 Ry
     ewald contribution        =    -530.37240638 Ry

     convergence has been achieved in  14 iterations

     Forces acting on atoms (cartesian axes, Ry/au):

     atom    1 type  1   force =    -0.09473690   -0.13732266   -0.09921879
     atom    2 type  1   force =     0.04336087    0.03236468   -0.09290130
     atom    3 type  1   force =    -0.04757165   -0.18377529   -0.04616222
     atom    4 type  1   force =     0.03288166   -0.01815064    0.00298759
     atom    5 type  1   force =     0.01348882    0.10731955    0.02605512
     atom    6 type  1   force =    -0.03474422   -0.09215487   -0.06603118
     atom    7 type  1   force =     0.00543928   -0.05876481    0.05583676
     atom    8 type  1   force =     0.01117145    0.05652002   -0.07140685
     atom    9 type  1   force =     0.02999218   -0.14054257    0.02696622
     atom   10 type  1   force =    -0.08319751   -0.12742750   -0.10366409
     atom   11 type  1   force =     0.00862960   -0.03849829   -0.02783237
     atom   12 type  1   force =    -0.01350839    0.00732541    0.02518408
     atom   13 type  1   force =     0.02709139    0.02402476   -0.05331137
     atom   14 type  1   force =    -0.07502853    0.05856421   -0.12682581
     atom   15 type  1   force =     0.12814882   -0.07897150    0.13479375
     atom   16 type  1   force =    -0.08589271    0.00816099   -0.01992810
     atom   17 type  1   force =     0.09690153    0.08621723    0.11009858
     atom   18 type  1   force =    -0.02443989   -0.05100638   -0.09969984
     atom   19 type  1   force =    -0.01980021    0.05442077   -0.01397326
     atom   20 type  1   force =     0.00620344   -0.03267126    0.01613513
     atom   21 type  1   force =    -0.01982854    0.10123329   -0.00985299
     atom   22 type  1   force =     0.02572127   -0.06352095   -0.02605430
     atom   23 type  1   force =    -0.03877113   -0.06859162   -0.11376268
     atom   24 type  1   force =     0.09035725    0.11748584    0.05105970
     atom   25 type  1   force =    -0.09974667    0.02623631    0.03629453
     atom   26 type  1   force =     0.12419421   -0.13626914    0.09649467
     atom   27 type  1   force =     0.05611321   -0.01770034   -0.00789644
     atom   28 type  1   force =     0.10607289    0.09446510    0.14570386
     atom   29 type  1   force =    -0.01607010   -0.04058818   -0.02207676
     atom   30 type  1   force =     0.16807938   -0.12411351   -0.15448701
     atom   31 type  1   force =     0.00072736   -0.04352275    0.10721370
     atom   32 type  1   force =    -0.07539509   -0.04344714   -0.03702216
     atom   33 type  1   force =     0.02168072   -0.01488724   -0.18768393
     atom   34 type  1   force =    -0.18147727    0.10305257    0.07349109
     atom   35 type  1   force =     0.06866212    0.08472965    0.02651378
     atom   36 type  1   force =     0.01035627   -0.02935189    0.10710753
     atom   37 type  1   force =     0.09885580   -0.07623566   -0.07056894
     atom   38 type  1   force =    -0.14227028   -0.11487763    0.14511083
     atom   39 type  1   force =     0.09397170    0.11521018   -0.14061203
     atom   40 type  1   force =     0.01191170   -0.01316939    0.02283407
     atom   41 type  1   force =     0.07987756    0.04048203    0.11961116
     atom   42 type  1   force =     0.02225429    0.00332128   -0.00086443
     atom   43 type  1   force =     0.07483493   -0.05100618   -0.07145482
     atom   44 type  1   force =    -0.11740990    0.10979527    0.10783108
     atom   45 type  1   force =     0.01540076    0.07348598    0.05182686
     atom   46 type  1   force =    -0.03358140    0.07060130   -0.02432174
     atom   47 type  1   force =     0.00325139    0.02962531   -0.03598559
     atom   48 type  1   force =     0.06181889   -0.00934265   -0.08103082
     atom   49 type  1   force =     0.05794224    0.09139093   -0.02381938
     atom   50 type  1   force =    -0.03954007   -0.02358150    0.01863278
     atom   51 type  1   force =    -0.03293176   -0.04100870    0.05639877
     atom   52 type  1   force =    -0.10694417    0.17700440    0.10422531
     atom   53 type  1   force =    -0.08188286    0.03045366    0.07374328
     atom   54 type  1   force =    -0.06797650   -0.07202704    0.10582436
     atom   55 type  1   force =    -0.01214001    0.01037612    0.01290219
     atom   56 type  1   force =     0.04511655   -0.03215398   -0.02599356
     atom   57 type  1   force =    -0.02927492    0.00435617   -0.02300343
     atom   58 type  1   force =    -0.10730980    0.11769354   -0.09125353
     atom   59 type  1   force =     0.00204053   -0.02242683   -0.01471415
     atom   60 type  1   force =     0.00940549    0.07503558    0.04283623
     atom   61 type  1   force =    -0.03839245   -0.05268524    0.00847461
     atom   62 type  1   force =     0.03827034    0.08448494    0.01530176
     atom   63 type  1   force =    -0.02034642   -0.06502077    0.00661064
     atom   64 type  1   force =     0.04998345    0.11937704    0.04931387

     Total force =     1.043046     Total SCF correction =     0.000462


     Computing stress (Cartesian axis) and pressure

          total   stress  (Ry/bohr**3)                   (kbar)     P=       50.85
   0.00031668   0.00005490   0.00020619           46.59        8.08       30.33
   0.00005490   0.00035191   0.00012334            8.08       51.77       18.14
   0.00020619   0.00012334   0.00036838           30.33       18.14       54.19

 
     init_run     :      1.30s CPU      5.15s WALL (       1 calls)
     electrons    :      1.92s CPU      2.06s WALL (       1 calls)
     forces       :      0.04s CPU      0.04s WALL (       1 calls)
     stress       :      0.16s CPU      0.17s WALL (       1 calls)

     Called by init_run:
     wfcinit      :      0.57s CPU      4.24s WALL (       1 calls)
                                        4.24s GPU  (       1 calls)
     potinit      :      0.20s CPU      0.30s WALL (       1 calls)
     hinit0       :      0.50s CPU      0.54s WALL (       1 calls)

     Called by electrons:
     c_bands      :      1.28s CPU      1.34s WALL (      15 calls)
     sum_band     :      0.33s CPU      0.37s WALL (      15 calls)
     v_of_rho     :      0.16s CPU      0.26s WALL (      15 calls)
     mix_rho      :      0.14s CPU      0.15s WALL (      15 calls)

     Called by c_bands:
     init_us_2    :      0.05s CPU      0.06s WALL (      31 calls)
     init_us_2:gp :      0.05s CPU      0.06s WALL (      31 calls)
     regterg      :      1.15s CPU      1.21s WALL (      15 calls)

     Called by *egterg:
     rdiaghg      :      0.51s CPU      1.28s WALL (     115 calls)
                                        1.25s GPU  (     115 calls)
     h_psi        :      1.00s CPU      3.95s WALL (     117 calls)
                                        3.95s GPU  (     117 calls)
     g_psi        :      0.00s CPU      0.00s WALL (     101 calls)
                                        0.00s GPU  (     101 calls)

     Called by h_psi:
     h_psi:calbec :      0.53s CPU      3.40s WALL (     117 calls)
                                        3.40s GPU  (     117 calls)
     vloc_psi     :      0.40s CPU      0.48s WALL (     117 calls)
                                        0.47s GPU  (     117 calls)
     add_vuspsi   :      0.05s CPU      0.07s WALL (     117 calls)
                                        0.07s GPU  (     117 calls)

     General routines
     calbec       :      0.53s CPU      3.40s WALL (     122 calls)
     fft          :      0.60s CPU      0.74s WALL (     127 calls)
                                        0.13s GPU  (      81 calls)
     ffts         :      0.04s CPU      0.05s WALL (      15 calls)
     fftw         :      0.45s CPU      0.61s WALL (    1687 calls)
                                        0.54s GPU  (    1687 calls)
 
     Parallel routines
 
     PWSCF        :      3.46s CPU      7.51s WALL

 
   This run was terminated on:  11:45:26  10May2023            

=------------------------------------------------------------------------------=
   JOB DONE.
=------------------------------------------------------------------------------=
