An instance of this daemon is already running
An instance of this daemon is already running

     Program PWSCF v.7.1 starts on 10May2023 at 11:41:27 

     This program is part of the open-source Quantum ESPRESSO suite
     for quantum simulation of materials; please cite
         "P. Giannozzi et al., J. Phys.:Condens. Matter 21 395502 (2009);
         "P. Giannozzi et al., J. Phys.:Condens. Matter 29 465901 (2017);
         "P. Giannozzi et al., J. Chem. Phys. 152 154105 (2020);
          URL http://www.quantum-espresso.org", 
     in publications or presentations arising from this work. More details at
     http://www.quantum-espresso.org/quote

     Parallel version (MPI & OpenMP), running on       4 processor cores
     Number of MPI processes:                 4
     Threads/MPI process:                     1

     MPI processes distributed on     1 nodes
     706952 MiB available memory on the printing compute node when the environment starts
 
     Reading input from pw-si-69.in
Warning: card &CELL ignored
Warning: card / ignored

     Current dimensions of program PWSCF are:
     Max number of different atomic species (ntypx) = 10
     Max number of k-points (npk) =  40000
     Max angular momentum in pseudopotentials (lmaxx) =  4

     IMPORTANT: XC functional enforced from input :
     Exchange-correlation= PBE
                           (   1   4   3   4   0   0   0)
     Any further DFT definition will be discarded
     Please, verify this is what you really want


     gamma-point specific algorithms are used
 
     K-points division:     npool     =       2
     R & G space division:  proc/nbgrp/npool/nimage =       2
     Subspace diagonalization in iterative solution of the eigenvalue problem:
     a serial algorithm will be used

     Message from routine divide_et_impera:
     suboptimal parallelization: some nodes have no k-points
 
     Parallelization info
     --------------------
     sticks:   dense  smooth     PW     G-vecs:    dense   smooth      PW
     Min        2179    2179    575               107952   107952   14600
     Max        2180    2180    576               107953   107953   14601
     Sum        4359    4359   1151               215905   215905   29201
 
     Using Slab Decomposition
 


     bravais-lattice index     =            0
     lattice parameter (alat)  =      21.0834  a.u.
     unit-cell volume          =    9726.6344 (a.u.)^3
     number of atoms/cell      =           64
     number of atomic types    =            1
     number of electrons       =       256.00
     number of Kohn-Sham states=          154
     kinetic-energy cutoff     =      30.0000  Ry
     charge density cutoff     =     120.0000  Ry
     scf convergence threshold =      1.0E-06
     mixing beta               =       0.5000
     number of iterations used =            8  plain     mixing
     Exchange-correlation= PBE
                           (   1   4   3   4   0   0   0)

     GPU acceleration is ACTIVE.
     GPU-aware MPI enabled

     Message from routine print_cuda_info:
     High GPU oversubscription detected. Are you sure this is what you want?

     celldm(1)=  21.083376  celldm(2)=   0.000000  celldm(3)=   0.000000
     celldm(4)=   0.000000  celldm(5)=   0.000000  celldm(6)=   0.000000

     crystal axes: (cart. coord. in units of alat)
               a(1) = (   1.000000   0.000000   0.000000 )  
               a(2) = (   0.000000   1.027581   0.000000 )  
               a(3) = (   0.000000   0.000000   1.010011 )  

     reciprocal axes: (cart. coord. in units 2 pi/alat)
               b(1) = (  1.000000  0.000000  0.000000 )  
               b(2) = (  0.000000  0.973160  0.000000 )  
               b(3) = (  0.000000  0.000000  0.990088 )  


     PseudoPot. # 1 for Si read from file:
     /home/ppiaggi/pseudos/Si_ONCV_PBE_sr.upf
     MD5 check sum: 8553c464762ac42b85b1eed164b4d029
     Pseudo is Norm-conserving, Zval =  4.0
     Generated using ONCVPSP code by D. R. Hamann
     Using radial grid of 1510 points,  4 beta functions with: 
                l(1) =   0
                l(2) =   0
                l(3) =   1
                l(4) =   1

     atomic species   valence    mass     pseudopotential
        Si             4.00    28.08500     Si( 1.00)

     No symmetry found



   Cartesian axes

     site n.     atom                  positions (alat units)
         1           Si  tau(   1) = (   0.0099852  -0.0015898   0.0026392  )
         2           Si  tau(   2) = (   0.0164121   0.2758624   0.2393495  )
         3           Si  tau(   3) = (   0.2248908   0.0189324   0.2535138  )
         4           Si  tau(   4) = (   0.2257114   0.2458014  -0.0170336  )
         5           Si  tau(   5) = (   0.1271082   0.1359002   0.1128493  )
         6           Si  tau(   6) = (   0.4759835  -0.0153588   0.0066169  )
         7           Si  tau(   7) = (   0.4854864   0.2724365   0.2324802  )
         8           Si  tau(   8) = (   0.5820105   0.1454071   0.1253513  )
         9           Si  tau(   9) = (   0.7053170  -0.0185114   0.2590801  )
        10           Si  tau(  10) = (   0.7212923   0.2708578   0.0018981  )
        11           Si  tau(  11) = (   0.0112856   0.5235710   0.0170351  )
        12           Si  tau(  12) = (   0.2413273   0.5217717   0.2567752  )
        13           Si  tau(  13) = (   0.1276824   0.6325834   0.1153407  )
        14           Si  tau(  14) = (   0.3694607   0.4031893   0.1258076  )
        15           Si  tau(  15) = (   0.4762164   0.5200187  -0.0019141  )
        16           Si  tau(  16) = (   0.6083957   0.6669234   0.1207255  )
        17           Si  tau(  17) = (   0.8513742   0.3977220   0.1106334  )
        18           Si  tau(  18) = (   0.7306572   0.5357662   0.2405913  )
        19           Si  tau(  19) = (  -0.0104381   0.7736912   0.2503760  )
        20           Si  tau(  20) = (   0.2540694   0.7750343   0.0102488  )
        21           Si  tau(  21) = (   0.3721188   0.9179011   0.1095133  )
        22           Si  tau(  22) = (   0.4672704   0.7955013   0.2451207  )
        23           Si  tau(  23) = (   0.7157807   0.7664234  -0.0065537  )
        24           Si  tau(  24) = (   0.8302898   0.8989296   0.1038271  )
        25           Si  tau(  25) = (   0.0032934  -0.0132356   0.4692471  )
        26           Si  tau(  26) = (   0.2474675   0.2588093   0.4976522  )
        27           Si  tau(  27) = (   0.1320540   0.1306408   0.5928579  )
        28           Si  tau(  28) = (   0.3716358   0.1429109   0.3618830  )
        29           Si  tau(  29) = (   0.4731598   0.0109225   0.4882263  )
        30           Si  tau(  30) = (   0.6130781   0.1444704   0.6008661  )
        31           Si  tau(  31) = (   0.8420108   0.1289607   0.3778344  )
        32           Si  tau(  32) = (   0.7263035   0.2570779   0.4992368  )
        33           Si  tau(  33) = (   0.1209357   0.3813195   0.3542722  )
        34           Si  tau(  34) = (   0.0128767   0.5351324   0.4807121  )
        35           Si  tau(  35) = (   0.1043866   0.6595299   0.6015207  )
        36           Si  tau(  36) = (   0.6010384   0.3956394   0.3693045  )
        37           Si  tau(  37) = (   0.3568376   0.6495573   0.3559265  )
        38           Si  tau(  38) = (   0.3479912   0.3761466   0.6170997  )
        39           Si  tau(  39) = (   0.4659089   0.5204794   0.4807673  )
        40           Si  tau(  40) = (   0.6028344   0.6440122   0.6098544  )
        41           Si  tau(  41) = (   0.8476040   0.6508427   0.3571656  )
        42           Si  tau(  42) = (   0.8181584   0.3973055   0.5936605  )
        43           Si  tau(  43) = (   0.1337370   0.9273697   0.3659632  )
        44           Si  tau(  44) = (   0.2283139   0.7860621   0.4785100  )
        45           Si  tau(  45) = (   0.5938376   0.9191460   0.3640891  )
        46           Si  tau(  46) = (   0.3751044   0.8986453   0.6065045  )
        47           Si  tau(  47) = (   0.7194943   0.7882542   0.4891942  )
        48           Si  tau(  48) = (   0.8477551   0.9208380   0.5908593  )
        49           Si  tau(  49) = (   0.0050155   0.2557376   0.7322377  )
        50           Si  tau(  50) = (   0.2422353  -0.0032178   0.7240636  )
        51           Si  tau(  51) = (   0.3530231   0.1226130   0.8552876  )
        52           Si  tau(  52) = (   0.4734119   0.2712698   0.7348000  )
        53           Si  tau(  53) = (   0.7306723   0.0001319   0.7413595  )
        54           Si  tau(  54) = (   0.8466705   0.1271625   0.8445173  )
        55           Si  tau(  55) = (   0.1216817   0.4020710   0.8506874  )
        56           Si  tau(  56) = (   0.2285534   0.5035322   0.7350384  )
        57           Si  tau(  57) = (   0.5854032   0.3844085   0.8474993  )
        58           Si  tau(  58) = (   0.3422893   0.6515143   0.8566508  )
        59           Si  tau(  59) = (   0.7121346   0.5047032   0.7425059  )
        60           Si  tau(  60) = (   0.8304636   0.6569947   0.8552973  )
        61           Si  tau(  61) = (   0.0135356   0.7818125   0.7358144  )
        62           Si  tau(  62) = (   0.1354980   0.8922848   0.8285097  )
        63           Si  tau(  63) = (   0.4826824   0.7862605   0.7262701  )
        64           Si  tau(  64) = (   0.5804432   0.8936610   0.8478753  )

     number of k points=     1  Fermi-Dirac smearing, width (Ry)=  0.0100
                       cart. coord. in units 2pi/alat
        k(    1) = (   0.0000000   0.0000000   0.0000000), wk =   2.0000000

     Dense  grid:   107953 G-vectors     FFT dimensions: (  75,  75,  75)

     Estimated max dynamical RAM per process >     172.13 MB

     Estimated total dynamical RAM >     662.16 MB

     Initial potential from superposition of free atoms

     starting charge     255.9608, renormalised to     256.0000
     Starting wfcs are  256 randomized atomic wfcs

     total cpu time spent up to now is        4.9 secs

     Self-consistent Calculation

     iteration #  1     ecut=    30.00 Ry     beta= 0.50
     Davidson diagonalization with overlap
     ethr =  1.00E-02,  avg # of iterations =  3.0

     Threshold (ethr) on eigenvalues was too large:
     Diagonalizing with lowered threshold

     Davidson diagonalization with overlap
     ethr =  6.82E-04,  avg # of iterations =  4.0

     total cpu time spent up to now is        5.3 secs

     total energy              =    -501.86317882 Ry
     estimated scf accuracy    <       2.02679245 Ry

     iteration #  2     ecut=    30.00 Ry     beta= 0.50
     Davidson diagonalization with overlap
     ethr =  7.92E-04,  avg # of iterations =  4.0

     total cpu time spent up to now is        5.4 secs

     total energy              =    -501.57771227 Ry
     estimated scf accuracy    <       2.60966027 Ry

     iteration #  3     ecut=    30.00 Ry     beta= 0.50
     Davidson diagonalization with overlap
     ethr =  7.92E-04,  avg # of iterations =  5.0

     total cpu time spent up to now is        5.6 secs

     total energy              =    -501.90820188 Ry
     estimated scf accuracy    <       1.65811289 Ry

     iteration #  4     ecut=    30.00 Ry     beta= 0.50
     Davidson diagonalization with overlap
     ethr =  6.48E-04,  avg # of iterations =  2.0

     total cpu time spent up to now is        5.7 secs

     total energy              =    -502.07533670 Ry
     estimated scf accuracy    <       0.19212685 Ry

     iteration #  5     ecut=    30.00 Ry     beta= 0.50
     Davidson diagonalization with overlap
     ethr =  7.50E-05,  avg # of iterations =  4.0

     total cpu time spent up to now is        5.8 secs

     total energy              =    -502.10254544 Ry
     estimated scf accuracy    <       0.05236878 Ry

     iteration #  6     ecut=    30.00 Ry     beta= 0.50
     Davidson diagonalization with overlap
     ethr =  2.05E-05,  avg # of iterations = 13.0

     total cpu time spent up to now is        6.0 secs

     total energy              =    -502.10924486 Ry
     estimated scf accuracy    <       0.03177402 Ry

     iteration #  7     ecut=    30.00 Ry     beta= 0.50
     Davidson diagonalization with overlap
     ethr =  1.24E-05,  avg # of iterations =  2.0

     total cpu time spent up to now is        6.1 secs

     total energy              =    -502.11233648 Ry
     estimated scf accuracy    <       0.00431863 Ry

     iteration #  8     ecut=    30.00 Ry     beta= 0.50
     Davidson diagonalization with overlap
     ethr =  1.69E-06,  avg # of iterations =  8.0

     total cpu time spent up to now is        6.3 secs

     total energy              =    -502.11283381 Ry
     estimated scf accuracy    <       0.00343118 Ry

     iteration #  9     ecut=    30.00 Ry     beta= 0.50
     Davidson diagonalization with overlap
     ethr =  1.34E-06,  avg # of iterations =  3.0

     total cpu time spent up to now is        6.4 secs

     total energy              =    -502.11327659 Ry
     estimated scf accuracy    <       0.00060866 Ry

     iteration # 10     ecut=    30.00 Ry     beta= 0.50
     Davidson diagonalization with overlap
     ethr =  2.38E-07,  avg # of iterations =  2.0

     total cpu time spent up to now is        6.6 secs

     total energy              =    -502.11333798 Ry
     estimated scf accuracy    <       0.00009096 Ry

     iteration # 11     ecut=    30.00 Ry     beta= 0.50
     Davidson diagonalization with overlap
     ethr =  3.55E-08,  avg # of iterations =  4.0

     total cpu time spent up to now is        6.7 secs

     total energy              =    -502.11335002 Ry
     estimated scf accuracy    <       0.00003916 Ry

     iteration # 12     ecut=    30.00 Ry     beta= 0.50
     Davidson diagonalization with overlap
     ethr =  1.53E-08,  avg # of iterations =  3.0

     total cpu time spent up to now is        6.8 secs

     total energy              =    -502.11335622 Ry
     estimated scf accuracy    <       0.00001438 Ry

     iteration # 13     ecut=    30.00 Ry     beta= 0.50
     Davidson diagonalization with overlap
     ethr =  5.62E-09,  avg # of iterations =  4.0

     total cpu time spent up to now is        7.0 secs

     total energy              =    -502.11335774 Ry
     estimated scf accuracy    <       0.00000666 Ry

     iteration # 14     ecut=    30.00 Ry     beta= 0.50
     Davidson diagonalization with overlap
     ethr =  2.60E-09,  avg # of iterations =  2.0

     total cpu time spent up to now is        7.1 secs

     End of self-consistent calculation

          k = 0.0000 0.0000 0.0000 ( 13503 PWs)   bands (ev):

    -6.5556  -5.8006  -5.7790  -5.6665  -5.5566  -5.4372  -5.2322  -5.0852
    -5.0467  -4.9784  -4.9373  -4.7578  -4.6937  -4.6187  -4.5470  -4.4686
    -4.4070  -4.2963  -4.1832  -4.0598  -4.0018  -3.9046  -3.5366  -3.2772
    -3.0873  -2.9150  -2.8721  -2.8145  -2.7585  -2.6138  -2.5826  -2.4464
    -2.4109  -2.3693  -2.2827  -2.2481  -2.0827  -2.0025  -1.9261  -1.8182
    -1.7895  -1.6732  -1.5890  -1.3196  -1.1703  -0.8316  -0.8066  -0.5779
    -0.5484  -0.3475  -0.2813  -0.2278  -0.2166  -0.0705   0.0367   0.1394
     0.1947   0.7093   0.9934   1.0666   1.0920   1.1716   1.2049   1.2317
     1.2562   1.3122   1.3142   1.3694   1.4352   1.4859   1.5583   1.5865
     1.6309   1.6599   1.6840   1.7486   1.7762   1.7943   1.8680   1.8822
     1.9039   1.9268   2.0123   2.1169   2.1735   2.1969   2.3182   2.3429
     2.3833   2.4483   2.4932   2.6150   2.8246   2.8905   2.9376   2.9500
     3.0756   3.1193   3.2411   3.2750   3.3106   3.3671   3.4127   3.4736
     3.5042   3.5462   3.5749   3.6545   3.7478   3.7793   3.8085   3.8457
     3.9044   3.9416   4.0334   4.0517   4.1380   4.1909   4.2511   4.2835
     4.3641   4.4508   4.5678   4.8945   4.9623   5.1330   5.1845   5.2281
     5.3583   5.4581   5.5464   5.6895   5.7293   5.8022   5.8177   5.8592
     5.8918   6.0067   6.0376   6.0971   6.1495   6.2394   6.3117   6.4680
     6.5452   6.6723   6.7496   6.8238   6.8640   6.9001   6.9304   7.0047
     7.0759   7.1095

     the Fermi energy is     5.3067 ev

!    total energy              =    -502.11335846 Ry
     estimated scf accuracy    <       0.00000036 Ry
     smearing contrib. (-TS)   =      -0.09687465 Ry
     internal energy E=F+TS    =    -502.01648381 Ry

     The total energy is F=E-TS. E is the sum of the following terms:
     one-electron contribution =     102.85163789 Ry
     hartree contribution      =      49.03897378 Ry
     xc contribution           =    -150.68000628 Ry
     ewald contribution        =    -503.22708921 Ry

     convergence has been achieved in  14 iterations

     Forces acting on atoms (cartesian axes, Ry/au):

     atom    1 type  1   force =    -0.06492381   -0.03437177   -0.05796571
     atom    2 type  1   force =    -0.14373861   -0.08716213   -0.09202696
     atom    3 type  1   force =     0.13915970    0.07433307   -0.09636906
     atom    4 type  1   force =     0.08021759    0.08432327   -0.06433989
     atom    5 type  1   force =    -0.06708543   -0.01196114    0.04900088
     atom    6 type  1   force =     0.18117007    0.20737398   -0.23227722
     atom    7 type  1   force =    -0.03344633    0.04477451    0.08818618
     atom    8 type  1   force =     0.10023481   -0.10864238   -0.06592681
     atom    9 type  1   force =     0.18133068    0.18596254   -0.18523918
     atom   10 type  1   force =    -0.02046434   -0.03631122   -0.06999804
     atom   11 type  1   force =    -0.12013466   -0.10812066   -0.14147809
     atom   12 type  1   force =    -0.01315299   -0.04464724   -0.06413389
     atom   13 type  1   force =     0.05289248    0.11880407    0.09934161
     atom   14 type  1   force =    -0.07520180   -0.02685233   -0.02396584
     atom   15 type  1   force =     0.03298949    0.04049572   -0.05865990
     atom   16 type  1   force =    -0.09105554   -0.06592874    0.04724479
     atom   17 type  1   force =     0.05270246    0.02529229    0.03574573
     atom   18 type  1   force =    -0.03071192   -0.06648891   -0.01947172
     atom   19 type  1   force =    -0.00214552    0.00956940   -0.04505610
     atom   20 type  1   force =    -0.03301190   -0.01606370   -0.07383526
     atom   21 type  1   force =    -0.22099001   -0.13666916    0.19200760
     atom   22 type  1   force =     0.05346523   -0.04272286   -0.01046340
     atom   23 type  1   force =     0.02922560    0.05554335   -0.11200742
     atom   24 type  1   force =     0.06962491    0.03385896    0.05065856
     atom   25 type  1   force =    -0.12184476    0.12889397    0.10822141
     atom   26 type  1   force =    -0.01669665   -0.00098495   -0.11323481
     atom   27 type  1   force =    -0.08268404   -0.05667668    0.05513832
     atom   28 type  1   force =    -0.04604508    0.00191360   -0.00688898
     atom   29 type  1   force =     0.05316087    0.02524010    0.00835017
     atom   30 type  1   force =    -0.10444551   -0.09456783    0.10883009
     atom   31 type  1   force =     0.04741354   -0.03821912   -0.05028462
     atom   32 type  1   force =     0.00922420    0.03242315   -0.11696059
     atom   33 type  1   force =     0.07495602    0.08647275    0.12639078
     atom   34 type  1   force =    -0.11777610   -0.07743403   -0.06031836
     atom   35 type  1   force =     0.07581907    0.00199405    0.04277554
     atom   36 type  1   force =     0.02270156    0.00148688   -0.02512123
     atom   37 type  1   force =    -0.00165152    0.06012345    0.04087726
     atom   38 type  1   force =     0.03709204    0.10134035   -0.00129006
     atom   39 type  1   force =     0.02905472   -0.01486323    0.04912566
     atom   40 type  1   force =    -0.01082799    0.00556389   -0.00122888
     atom   41 type  1   force =     0.06059354    0.04196922    0.05902334
     atom   42 type  1   force =     0.12944394    0.06737396    0.06724838
     atom   43 type  1   force =    -0.04463312   -0.16788195   -0.03395966
     atom   44 type  1   force =     0.06596355   -0.03531601    0.03833624
     atom   45 type  1   force =    -0.13956056   -0.14616358    0.14689258
     atom   46 type  1   force =    -0.09670083    0.03742353   -0.04442878
     atom   47 type  1   force =     0.00646623   -0.03844883   -0.01910529
     atom   48 type  1   force =     0.04347595   -0.02063050    0.03425658
     atom   49 type  1   force =    -0.04579231   -0.00273537   -0.01279131
     atom   50 type  1   force =     0.03516257    0.03350431   -0.02964026
     atom   51 type  1   force =     0.00863391    0.01018778    0.04064444
     atom   52 type  1   force =    -0.00157864   -0.11012792   -0.02244773
     atom   53 type  1   force =    -0.05245739   -0.01806408   -0.05390859
     atom   54 type  1   force =     0.07356457    0.06658465    0.08233319
     atom   55 type  1   force =    -0.10978564   -0.10451761    0.13960855
     atom   56 type  1   force =     0.06686766    0.12539556   -0.08210215
     atom   57 type  1   force =     0.04284679    0.04312966    0.13389261
     atom   58 type  1   force =     0.03761055   -0.00027770    0.02473012
     atom   59 type  1   force =     0.02230624    0.04919660   -0.03078379
     atom   60 type  1   force =     0.05341899   -0.00745002    0.01418340
     atom   61 type  1   force =    -0.16609984   -0.05056121   -0.04567821
     atom   62 type  1   force =     0.03650526    0.03726115    0.15984216
     atom   63 type  1   force =    -0.04155262   -0.14970014   -0.01373554
     atom   64 type  1   force =     0.11090067    0.08275321    0.13423716

     Total force =     1.126229     Total SCF correction =     0.000921


     Computing stress (Cartesian axis) and pressure

          total   stress  (Ry/bohr**3)                   (kbar)     P=      -16.08
  -0.00006955   0.00028179  -0.00004542          -10.23       41.45       -6.68
   0.00028179  -0.00016719  -0.00001102           41.45      -24.59       -1.62
  -0.00004542  -0.00001102  -0.00009112           -6.68       -1.62      -13.40

 
     init_run     :      1.00s CPU      4.87s WALL (       1 calls)
     electrons    :      1.99s CPU      2.11s WALL (       1 calls)
     forces       :      0.04s CPU      0.05s WALL (       1 calls)
     stress       :      0.18s CPU      0.18s WALL (       1 calls)

     Called by init_run:
     wfcinit      :      0.56s CPU      4.27s WALL (       1 calls)
                                        4.27s GPU  (       1 calls)
     potinit      :      0.21s CPU      0.30s WALL (       1 calls)
     hinit0       :      0.20s CPU      0.22s WALL (       1 calls)

     Called by electrons:
     c_bands      :      1.24s CPU      1.29s WALL (      15 calls)
     sum_band     :      0.40s CPU      0.43s WALL (      15 calls)
     v_of_rho     :      0.18s CPU      0.27s WALL (      15 calls)
     mix_rho      :      0.15s CPU      0.17s WALL (      15 calls)

     Called by c_bands:
     init_us_2    :      0.06s CPU      0.06s WALL (      31 calls)
     init_us_2:gp :      0.06s CPU      0.06s WALL (      31 calls)
     regterg      :      1.09s CPU      1.14s WALL (      15 calls)

     Called by *egterg:
     rdiaghg      :      0.38s CPU      1.15s WALL (      77 calls)
                                        1.13s GPU  (      77 calls)
     h_psi        :      1.09s CPU      4.06s WALL (      79 calls)
                                        4.06s GPU  (      79 calls)
     g_psi        :      0.00s CPU      0.00s WALL (      63 calls)
                                        0.00s GPU  (      63 calls)

     Called by h_psi:
     h_psi:calbec :      0.50s CPU      3.40s WALL (      79 calls)
                                        3.40s GPU  (      79 calls)
     vloc_psi     :      0.54s CPU      0.61s WALL (      79 calls)
                                        0.61s GPU  (      79 calls)
     add_vuspsi   :      0.03s CPU      0.05s WALL (      79 calls)
                                        0.05s GPU  (      79 calls)

     General routines
     calbec       :      0.51s CPU      3.41s WALL (      84 calls)
     fft          :      0.31s CPU      0.44s WALL (     127 calls)
                                        0.12s GPU  (      81 calls)
     ffts         :      0.06s CPU      0.06s WALL (      15 calls)
     fftw         :      0.58s CPU      0.77s WALL (    1607 calls)
                                        0.69s GPU  (    1607 calls)
 
     Parallel routines
 
     PWSCF        :      3.25s CPU      7.30s WALL

 
   This run was terminated on:  11:41:34  10May2023            

=------------------------------------------------------------------------------=
   JOB DONE.
=------------------------------------------------------------------------------=
