An instance of this daemon is already running

     Program PWSCF v.7.1 starts on 10May2023 at 11:41:37 

     This program is part of the open-source Quantum ESPRESSO suite
     for quantum simulation of materials; please cite
         "P. Giannozzi et al., J. Phys.:Condens. Matter 21 395502 (2009);
         "P. Giannozzi et al., J. Phys.:Condens. Matter 29 465901 (2017);
         "P. Giannozzi et al., J. Chem. Phys. 152 154105 (2020);
          URL http://www.quantum-espresso.org", 
     in publications or presentations arising from this work. More details at
     http://www.quantum-espresso.org/quote

     Parallel version (MPI & OpenMP), running on       4 processor cores
     Number of MPI processes:                 4
     Threads/MPI process:                     1

     MPI processes distributed on     1 nodes
     706967 MiB available memory on the printing compute node when the environment starts
 
     Reading input from pw-si-70.in
Warning: card &CELL ignored
Warning: card / ignored

     Current dimensions of program PWSCF are:
     Max number of different atomic species (ntypx) = 10
     Max number of k-points (npk) =  40000
     Max angular momentum in pseudopotentials (lmaxx) =  4

     IMPORTANT: XC functional enforced from input :
     Exchange-correlation= PBE
                           (   1   4   3   4   0   0   0)
     Any further DFT definition will be discarded
     Please, verify this is what you really want


     gamma-point specific algorithms are used
 
     K-points division:     npool     =       2
     R & G space division:  proc/nbgrp/npool/nimage =       2
     Subspace diagonalization in iterative solution of the eigenvalue problem:
     a serial algorithm will be used

     Message from routine divide_et_impera:
     suboptimal parallelization: some nodes have no k-points
 
     Parallelization info
     --------------------
     sticks:   dense  smooth     PW     G-vecs:    dense   smooth      PW
     Min        2084    2084    555               103483   103483   14089
     Max        2085    2085    556               103488   103488   14092
     Sum        4169    4169   1111               206971   206971   28181
 
     Using Slab Decomposition
 


     bravais-lattice index     =            0
     lattice parameter (alat)  =      20.3826  a.u.
     unit-cell volume          =    9314.7951 (a.u.)^3
     number of atoms/cell      =           64
     number of atomic types    =            1
     number of electrons       =       256.00
     number of Kohn-Sham states=          154
     kinetic-energy cutoff     =      30.0000  Ry
     charge density cutoff     =     120.0000  Ry
     scf convergence threshold =      1.0E-06
     mixing beta               =       0.5000
     number of iterations used =            8  plain     mixing
     Exchange-correlation= PBE
                           (   1   4   3   4   0   0   0)

     GPU acceleration is ACTIVE.
     GPU-aware MPI enabled

     Message from routine print_cuda_info:
     High GPU oversubscription detected. Are you sure this is what you want?

     celldm(1)=  20.382578  celldm(2)=   0.000000  celldm(3)=   0.000000
     celldm(4)=   0.000000  celldm(5)=   0.000000  celldm(6)=   0.000000

     crystal axes: (cart. coord. in units of alat)
               a(1) = (   1.000000   0.000000   0.000000 )  
               a(2) = (   0.000000   1.048432   0.000000 )  
               a(3) = (   0.000000   0.000000   1.049194 )  

     reciprocal axes: (cart. coord. in units 2 pi/alat)
               b(1) = (  1.000000  0.000000  0.000000 )  
               b(2) = (  0.000000  0.953806  0.000000 )  
               b(3) = (  0.000000  0.000000  0.953112 )  


     PseudoPot. # 1 for Si read from file:
     /home/ppiaggi/pseudos/Si_ONCV_PBE_sr.upf
     MD5 check sum: 8553c464762ac42b85b1eed164b4d029
     Pseudo is Norm-conserving, Zval =  4.0
     Generated using ONCVPSP code by D. R. Hamann
     Using radial grid of 1510 points,  4 beta functions with: 
                l(1) =   0
                l(2) =   0
                l(3) =   1
                l(4) =   1

     atomic species   valence    mass     pseudopotential
        Si             4.00    28.08500     Si( 1.00)

     No symmetry found



   Cartesian axes

     site n.     atom                  positions (alat units)
         1           Si  tau(   1) = (   0.0089703   0.0123421  -0.0058035  )
         2           Si  tau(   2) = (   0.0080454   0.2595949   0.2391123  )
         3           Si  tau(   3) = (   0.2416348   0.0030459   0.2631691  )
         4           Si  tau(   4) = (   0.2464696   0.2543219  -0.0038257  )
         5           Si  tau(   5) = (   0.1112886   0.1216435   0.1458560  )
         6           Si  tau(   6) = (   0.4824498  -0.0117935   0.0044960  )
         7           Si  tau(   7) = (   0.4940022   0.2562762   0.2420911  )
         8           Si  tau(   8) = (   0.6132073   0.1357328   0.1403621  )
         9           Si  tau(   9) = (   0.7526039   0.0113496   0.2525252  )
        10           Si  tau(  10) = (   0.7266645   0.2543377   0.0174804  )
        11           Si  tau(  11) = (  -0.0068073   0.5182907  -0.0173041  )
        12           Si  tau(  12) = (   0.2617717   0.5177971   0.2420300  )
        13           Si  tau(  13) = (   0.1133678   0.6186646   0.1316011  )
        14           Si  tau(  14) = (   0.3651581   0.3720891   0.1401465  )
        15           Si  tau(  15) = (   0.4810948   0.4862839   0.0110789  )
        16           Si  tau(  16) = (   0.6152268   0.6196354   0.1355136  )
        17           Si  tau(  17) = (   0.8625560   0.3874122   0.1165040  )
        18           Si  tau(  18) = (   0.7375535   0.5077584   0.2520690  )
        19           Si  tau(  19) = (  -0.0143231   0.7650199   0.2397896  )
        20           Si  tau(  20) = (   0.2282078   0.7586080   0.0060338  )
        21           Si  tau(  21) = (   0.3513512   0.8746901   0.1120019  )
        22           Si  tau(  22) = (   0.4936305   0.7650505   0.2741820  )
        23           Si  tau(  23) = (   0.7249494   0.7455781   0.0161679  )
        24           Si  tau(  24) = (   0.8781522   0.8854088   0.1156788  )
        25           Si  tau(  25) = (  -0.0091015  -0.0090981   0.5164677  )
        26           Si  tau(  26) = (   0.2435908   0.2495610   0.5136299  )
        27           Si  tau(  27) = (   0.1225940   0.1276899   0.6444853  )
        28           Si  tau(  28) = (   0.3564297   0.1094457   0.3869467  )
        29           Si  tau(  29) = (   0.4833107  -0.0006688   0.5063796  )
        30           Si  tau(  30) = (   0.6319898   0.1252440   0.6572825  )
        31           Si  tau(  31) = (   0.8789258   0.1151907   0.3758135  )
        32           Si  tau(  32) = (   0.7425646   0.2543042   0.5137299  )
        33           Si  tau(  33) = (   0.1062510   0.3838053   0.4012269  )
        34           Si  tau(  34) = (  -0.0174375   0.4922840   0.5014766  )
        35           Si  tau(  35) = (   0.1096104   0.6169380   0.6502755  )
        36           Si  tau(  36) = (   0.6259487   0.3823588   0.3981768  )
        37           Si  tau(  37) = (   0.3835605   0.6192939   0.3694483  )
        38           Si  tau(  38) = (   0.3753097   0.3875676   0.6430889  )
        39           Si  tau(  39) = (   0.4752517   0.4986496   0.5288098  )
        40           Si  tau(  40) = (   0.6241216   0.6126170   0.6388220  )
        41           Si  tau(  41) = (   0.8482931   0.6115193   0.3935362  )
        42           Si  tau(  42) = (   0.8635725   0.3892439   0.6435907  )
        43           Si  tau(  43) = (   0.1302086   0.8959809   0.3960404  )
        44           Si  tau(  44) = (   0.2374127   0.7661916   0.5254821  )
        45           Si  tau(  45) = (   0.6004800   0.8616788   0.3957173  )
        46           Si  tau(  46) = (   0.3613296   0.8771764   0.6510836  )
        47           Si  tau(  47) = (   0.7506101   0.7655916   0.5018326  )
        48           Si  tau(  48) = (   0.8573967   0.8780496   0.6560680  )
        49           Si  tau(  49) = (   0.0039453   0.2458833   0.7668796  )
        50           Si  tau(  50) = (   0.2516261  -0.0159056   0.7741937  )
        51           Si  tau(  51) = (   0.3809725   0.1417291   0.8801076  )
        52           Si  tau(  52) = (   0.4924760   0.2551872   0.7654998  )
        53           Si  tau(  53) = (   0.7443630   0.0120589   0.7539365  )
        54           Si  tau(  54) = (   0.8723220   0.1111945   0.9121152  )
        55           Si  tau(  55) = (   0.1216568   0.3771523   0.8838333  )
        56           Si  tau(  56) = (   0.2463494   0.5010162   0.7802362  )
        57           Si  tau(  57) = (   0.6142650   0.3777233   0.9115890  )
        58           Si  tau(  58) = (   0.3558601   0.6279631   0.8786683  )
        59           Si  tau(  59) = (   0.7536510   0.5201069   0.7688815  )
        60           Si  tau(  60) = (   0.8771224   0.6417370   0.8989795  )
        61           Si  tau(  61) = (  -0.0069226   0.7405553   0.7740252  )
        62           Si  tau(  62) = (   0.1232172   0.8730169   0.9046549  )
        63           Si  tau(  63) = (   0.5098620   0.7372615   0.7499202  )
        64           Si  tau(  64) = (   0.6287162   0.8870259   0.9039739  )

     number of k points=     1  Fermi-Dirac smearing, width (Ry)=  0.0100
                       cart. coord. in units 2pi/alat
        k(    1) = (   0.0000000   0.0000000   0.0000000), wk =   2.0000000

     Dense  grid:   103486 G-vectors     FFT dimensions: (  72,  75,  75)

     Estimated max dynamical RAM per process >     165.02 MB

     Estimated total dynamical RAM >     634.80 MB

     Initial potential from superposition of free atoms

     starting charge     255.9608, renormalised to     256.0000
     Starting wfcs are  256 randomized atomic wfcs

     total cpu time spent up to now is        5.1 secs

     Self-consistent Calculation

     iteration #  1     ecut=    30.00 Ry     beta= 0.50
     Davidson diagonalization with overlap
     ethr =  1.00E-02,  avg # of iterations =  3.0

     Threshold (ethr) on eigenvalues was too large:
     Diagonalizing with lowered threshold

     Davidson diagonalization with overlap
     ethr =  6.86E-04,  avg # of iterations =  4.0

     total cpu time spent up to now is        5.4 secs

     total energy              =    -502.19043140 Ry
     estimated scf accuracy    <       2.00907557 Ry

     iteration #  2     ecut=    30.00 Ry     beta= 0.50
     Davidson diagonalization with overlap
     ethr =  7.85E-04,  avg # of iterations =  4.0

     total cpu time spent up to now is        5.5 secs

     total energy              =    -501.88375899 Ry
     estimated scf accuracy    <       2.30274122 Ry

     iteration #  3     ecut=    30.00 Ry     beta= 0.50
     Davidson diagonalization with overlap
     ethr =  7.85E-04,  avg # of iterations =  4.0

     total cpu time spent up to now is        5.6 secs

     total energy              =    -502.15602121 Ry
     estimated scf accuracy    <       2.05491115 Ry

     iteration #  4     ecut=    30.00 Ry     beta= 0.50
     Davidson diagonalization with overlap
     ethr =  7.85E-04,  avg # of iterations =  2.0

     total cpu time spent up to now is        5.7 secs

     total energy              =    -502.35777063 Ry
     estimated scf accuracy    <       0.12141001 Ry

     iteration #  5     ecut=    30.00 Ry     beta= 0.50
     Davidson diagonalization with overlap
     ethr =  4.74E-05,  avg # of iterations =  8.0

     total cpu time spent up to now is        5.9 secs

     total energy              =    -502.37997061 Ry
     estimated scf accuracy    <       0.08635023 Ry

     iteration #  6     ecut=    30.00 Ry     beta= 0.50
     Davidson diagonalization with overlap
     ethr =  3.37E-05,  avg # of iterations =  6.0

     total cpu time spent up to now is        6.0 secs

     total energy              =    -502.38890115 Ry
     estimated scf accuracy    <       0.02117431 Ry

     iteration #  7     ecut=    30.00 Ry     beta= 0.50
     Davidson diagonalization with overlap
     ethr =  8.27E-06,  avg # of iterations = 13.0

     total cpu time spent up to now is        6.2 secs

     total energy              =    -502.39089513 Ry
     estimated scf accuracy    <       0.00282947 Ry

     iteration #  8     ecut=    30.00 Ry     beta= 0.50
     Davidson diagonalization with overlap
     ethr =  1.11E-06,  avg # of iterations =  8.0

     total cpu time spent up to now is        6.4 secs

     total energy              =    -502.39136832 Ry
     estimated scf accuracy    <       0.00229403 Ry

     iteration #  9     ecut=    30.00 Ry     beta= 0.50
     Davidson diagonalization with overlap
     ethr =  8.96E-07,  avg # of iterations =  3.0

     total cpu time spent up to now is        6.5 secs

     total energy              =    -502.39155160 Ry
     estimated scf accuracy    <       0.00084091 Ry

     iteration # 10     ecut=    30.00 Ry     beta= 0.50
     Davidson diagonalization with overlap
     ethr =  3.28E-07,  avg # of iterations =  2.0

     total cpu time spent up to now is        6.6 secs

     total energy              =    -502.39160549 Ry
     estimated scf accuracy    <       0.00010735 Ry

     iteration # 11     ecut=    30.00 Ry     beta= 0.50
     Davidson diagonalization with overlap
     ethr =  4.19E-08,  avg # of iterations =  5.0

     total cpu time spent up to now is        6.7 secs

     total energy              =    -502.39162587 Ry
     estimated scf accuracy    <       0.00003796 Ry

     iteration # 12     ecut=    30.00 Ry     beta= 0.50
     Davidson diagonalization with overlap
     ethr =  1.48E-08,  avg # of iterations =  3.0

     total cpu time spent up to now is        6.8 secs

     total energy              =    -502.39163092 Ry
     estimated scf accuracy    <       0.00002118 Ry

     iteration # 13     ecut=    30.00 Ry     beta= 0.50
     Davidson diagonalization with overlap
     ethr =  8.27E-09,  avg # of iterations =  2.0

     total cpu time spent up to now is        6.9 secs

     total energy              =    -502.39163220 Ry
     estimated scf accuracy    <       0.00000407 Ry

     iteration # 14     ecut=    30.00 Ry     beta= 0.50
     Davidson diagonalization with overlap
     ethr =  1.59E-09,  avg # of iterations =  4.0

     total cpu time spent up to now is        7.1 secs

     End of self-consistent calculation

          k = 0.0000 0.0000 0.0000 ( 12956 PWs)   bands (ev):

    -6.3530  -5.6202  -5.4760  -5.3884  -5.3186  -5.1499  -5.1027  -4.8186
    -4.7551  -4.6583  -4.4695  -4.4616  -4.3493  -4.3041  -4.2216  -4.1789
    -4.1521  -4.0512  -4.0000  -3.9268  -3.8658  -3.6098  -3.2959  -2.9127
    -2.6742  -2.5488  -2.5172  -2.4307  -2.4013  -2.3333  -2.2626  -2.2218
    -2.1577  -1.9979  -1.9533  -1.8724  -1.8062  -1.7616  -1.6536  -1.5525
    -1.5151  -1.3681  -1.2578  -1.0608  -0.8842  -0.3530  -0.2608  -0.2467
    -0.2061  -0.0848   0.0169   0.1436   0.2148   0.2566   0.3380   0.3754
     0.5559   1.1740   1.3372   1.3879   1.4097   1.4789   1.4986   1.5264
     1.5905   1.5968   1.6639   1.7217   1.7364   1.7944   1.8027   1.8643
     1.9268   1.9354   1.9717   1.9977   2.0772   2.1102   2.1482   2.2023
     2.2397   2.2561   2.2879   2.3578   2.4576   2.4925   2.6048   2.6256
     2.7081   2.7914   2.9258   2.9358   2.9926   3.2182   3.3421   3.3896
     3.4692   3.5471   3.5664   3.6146   3.6800   3.7159   3.8003   3.8124
     3.9441   3.9548   3.9898   4.0533   4.0542   4.1036   4.1849   4.2271
     4.2760   4.3456   4.4110   4.4282   4.4523   4.4812   4.5939   4.6566
     4.6777   4.7962   4.8504   5.2807   5.3817   5.5098   5.5960   5.6969
     5.7429   5.9611   6.0175   6.1300   6.1344   6.1947   6.2138   6.3120
     6.3377   6.4114   6.5328   6.5535   6.6310   6.6580   6.7649   6.8782
     7.0668   7.1346   7.1989   7.3412   7.3824   7.4381   7.4882   7.5630
     7.6118   7.6576

     the Fermi energy is     5.7351 ev

!    total energy              =    -502.39163266 Ry
     estimated scf accuracy    <       0.00000026 Ry
     smearing contrib. (-TS)   =      -0.09079577 Ry
     internal energy E=F+TS    =    -502.30083688 Ry

     The total energy is F=E-TS. E is the sum of the following terms:
     one-electron contribution =     118.84563387 Ry
     hartree contribution      =      44.86023971 Ry
     xc contribution           =    -151.86997433 Ry
     ewald contribution        =    -514.13673613 Ry

     convergence has been achieved in  14 iterations

     Forces acting on atoms (cartesian axes, Ry/au):

     atom    1 type  1   force =    -0.01961087   -0.10443819   -0.01997044
     atom    2 type  1   force =    -0.09927747    0.08229938    0.09421908
     atom    3 type  1   force =    -0.03715945   -0.12810149   -0.04596932
     atom    4 type  1   force =    -0.01850553   -0.01930770   -0.03520860
     atom    5 type  1   force =     0.08417931   -0.03631705   -0.09968132
     atom    6 type  1   force =     0.01753977   -0.00151051   -0.04051746
     atom    7 type  1   force =    -0.01323515    0.00877184    0.16284159
     atom    8 type  1   force =     0.00681164   -0.13025212   -0.04856048
     atom    9 type  1   force =    -0.02659101   -0.09979317   -0.03389697
     atom   10 type  1   force =     0.04985205    0.01107659   -0.11207241
     atom   11 type  1   force =     0.00337751   -0.06235101   -0.01290601
     atom   12 type  1   force =    -0.08258145   -0.04095552    0.04667555
     atom   13 type  1   force =    -0.01091286    0.04962369   -0.02592974
     atom   14 type  1   force =    -0.04722886   -0.01965914   -0.06598964
     atom   15 type  1   force =     0.03501838    0.06791603   -0.08014300
     atom   16 type  1   force =    -0.09673846    0.01646066   -0.00674152
     atom   17 type  1   force =     0.03560828   -0.00544363    0.00794314
     atom   18 type  1   force =     0.01859939   -0.06271006    0.02747399
     atom   19 type  1   force =     0.05539493   -0.04623620    0.10261867
     atom   20 type  1   force =    -0.02548594   -0.07075746   -0.08411903
     atom   21 type  1   force =     0.09008360    0.10990040    0.09467865
     atom   22 type  1   force =    -0.08562095   -0.07261173   -0.19422837
     atom   23 type  1   force =     0.07815963    0.08057740   -0.09394491
     atom   24 type  1   force =    -0.06392059    0.08242053   -0.03233525
     atom   25 type  1   force =     0.01738520   -0.03982487    0.02110128
     atom   26 type  1   force =     0.00707711    0.02315581    0.01158060
     atom   27 type  1   force =     0.01473607   -0.08272404   -0.01864458
     atom   28 type  1   force =     0.05077050    0.10892823   -0.00487046
     atom   29 type  1   force =     0.05985096   -0.08790420    0.07126578
     atom   30 type  1   force =    -0.15366715    0.10683156   -0.15899748
     atom   31 type  1   force =     0.02103744    0.06850786    0.03691792
     atom   32 type  1   force =     0.04666822   -0.04151260    0.02265403
     atom   33 type  1   force =     0.13054052   -0.08865867   -0.13559172
     atom   34 type  1   force =    -0.04169431    0.09962737    0.11231937
     atom   35 type  1   force =     0.02759651   -0.00277648   -0.05784025
     atom   36 type  1   force =    -0.07298532   -0.00145430   -0.05569840
     atom   37 type  1   force =    -0.03121312    0.04059459    0.10026262
     atom   38 type  1   force =    -0.13054119   -0.13584169    0.08866286
     atom   39 type  1   force =     0.14430658    0.10332046   -0.14867358
     atom   40 type  1   force =     0.01762346    0.02537069   -0.07713056
     atom   41 type  1   force =     0.05126719    0.08140538   -0.04737310
     atom   42 type  1   force =     0.01899573   -0.08012872    0.00921530
     atom   43 type  1   force =    -0.05837829    0.03369847   -0.04991331
     atom   44 type  1   force =    -0.00089126   -0.07456299   -0.02335408
     atom   45 type  1   force =     0.08359492    0.19686731    0.09261193
     atom   46 type  1   force =     0.05325511    0.05493097    0.00814502
     atom   47 type  1   force =    -0.01705347   -0.03717785    0.06158991
     atom   48 type  1   force =     0.02227759    0.06274976   -0.02896689
     atom   49 type  1   force =    -0.08436362    0.02001307    0.02733365
     atom   50 type  1   force =    -0.00625130   -0.00095022    0.00298083
     atom   51 type  1   force =    -0.09469448   -0.12426798    0.13770073
     atom   52 type  1   force =     0.09390575    0.06369732   -0.02888456
     atom   53 type  1   force =     0.13926882   -0.19417339    0.16295592
     atom   54 type  1   force =    -0.02563400    0.06020613   -0.01763259
     atom   55 type  1   force =    -0.02356710   -0.02618744    0.12184501
     atom   56 type  1   force =    -0.04287700   -0.03458644   -0.10695285
     atom   57 type  1   force =     0.01019768    0.00360719    0.00564706
     atom   58 type  1   force =     0.09488569    0.09059554    0.12940452
     atom   59 type  1   force =    -0.01095762   -0.05076271    0.06956592
     atom   60 type  1   force =    -0.09941721   -0.03539031    0.10364314
     atom   61 type  1   force =     0.04218354    0.11579905   -0.03450995
     atom   62 type  1   force =    -0.00571935    0.06673509   -0.00097179
     atom   63 type  1   force =    -0.06658014    0.09532471    0.08917934
     atom   64 type  1   force =    -0.02869458    0.00831681    0.00518719

     Total force =     1.024563     Total SCF correction =     0.000805


     Computing stress (Cartesian axis) and pressure

          total   stress  (Ry/bohr**3)                   (kbar)     P=        4.29
   0.00013975  -0.00000541   0.00011761           20.56       -0.80       17.30
  -0.00000541  -0.00001613  -0.00001291           -0.80       -2.37       -1.90
   0.00011761  -0.00001291  -0.00003624           17.30       -1.90       -5.33

 
     init_run     :      1.13s CPU      5.02s WALL (       1 calls)
     electrons    :      1.82s CPU      1.96s WALL (       1 calls)
     forces       :      0.04s CPU      0.05s WALL (       1 calls)
     stress       :      0.18s CPU      0.18s WALL (       1 calls)

     Called by init_run:
     wfcinit      :      0.56s CPU      4.27s WALL (       1 calls)
                                        4.27s GPU  (       1 calls)
     potinit      :      0.21s CPU      0.31s WALL (       1 calls)
     hinit0       :      0.33s CPU      0.36s WALL (       1 calls)

     Called by electrons:
     c_bands      :      1.13s CPU      1.18s WALL (      15 calls)
     sum_band     :      0.36s CPU      0.40s WALL (      15 calls)
     v_of_rho     :      0.17s CPU      0.28s WALL (      15 calls)
     mix_rho      :      0.15s CPU      0.16s WALL (      15 calls)

     Called by c_bands:
     init_us_2    :      0.05s CPU      0.06s WALL (      31 calls)
     init_us_2:gp :      0.05s CPU      0.06s WALL (      31 calls)
     regterg      :      1.00s CPU      1.05s WALL (      15 calls)

     Called by *egterg:
     rdiaghg      :      0.40s CPU      1.16s WALL (      85 calls)
                                        1.14s GPU  (      85 calls)
     h_psi        :      0.98s CPU      3.97s WALL (      87 calls)
                                        3.97s GPU  (      87 calls)
     g_psi        :      0.00s CPU      0.00s WALL (      71 calls)
                                        0.00s GPU  (      71 calls)

     Called by h_psi:
     h_psi:calbec :      0.50s CPU      3.41s WALL (      87 calls)
                                        3.41s GPU  (      87 calls)
     vloc_psi     :      0.43s CPU      0.50s WALL (      87 calls)
                                        0.49s GPU  (      87 calls)
     add_vuspsi   :      0.03s CPU      0.05s WALL (      87 calls)
                                        0.05s GPU  (      87 calls)

     General routines
     calbec       :      0.51s CPU      3.42s WALL (      92 calls)
     fft          :      0.44s CPU      0.58s WALL (     127 calls)
                                        0.14s GPU  (      81 calls)
     ffts         :      0.05s CPU      0.06s WALL (      15 calls)
     fftw         :      0.48s CPU      0.64s WALL (    1619 calls)
                                        0.57s GPU  (    1619 calls)
 
     Parallel routines
 
     PWSCF        :      3.21s CPU      7.29s WALL

 
   This run was terminated on:  11:41:44  10May2023            

=------------------------------------------------------------------------------=
   JOB DONE.
=------------------------------------------------------------------------------=
