An instance of this daemon is already running

     Program PWSCF v.7.1 starts on 10May2023 at 11:41: 7 

     This program is part of the open-source Quantum ESPRESSO suite
     for quantum simulation of materials; please cite
         "P. Giannozzi et al., J. Phys.:Condens. Matter 21 395502 (2009);
         "P. Giannozzi et al., J. Phys.:Condens. Matter 29 465901 (2017);
         "P. Giannozzi et al., J. Chem. Phys. 152 154105 (2020);
          URL http://www.quantum-espresso.org", 
     in publications or presentations arising from this work. More details at
     http://www.quantum-espresso.org/quote

     Parallel version (MPI & OpenMP), running on       4 processor cores
     Number of MPI processes:                 4
     Threads/MPI process:                     1

     MPI processes distributed on     1 nodes
     706978 MiB available memory on the printing compute node when the environment starts
 
     Reading input from pw-si-67.in
Warning: card &CELL ignored
Warning: card / ignored

     Current dimensions of program PWSCF are:
     Max number of different atomic species (ntypx) = 10
     Max number of k-points (npk) =  40000
     Max angular momentum in pseudopotentials (lmaxx) =  4

     IMPORTANT: XC functional enforced from input :
     Exchange-correlation= PBE
                           (   1   4   3   4   0   0   0)
     Any further DFT definition will be discarded
     Please, verify this is what you really want


     gamma-point specific algorithms are used
 
     K-points division:     npool     =       2
     R & G space division:  proc/nbgrp/npool/nimage =       2
     Subspace diagonalization in iterative solution of the eigenvalue problem:
     a serial algorithm will be used

     Message from routine divide_et_impera:
     suboptimal parallelization: some nodes have no k-points
 
     Parallelization info
     --------------------
     sticks:   dense  smooth     PW     G-vecs:    dense   smooth      PW
     Min        2060    2060    543                98201    98201   13371
     Max        2063    2063    546                98204    98204   13378
     Sum        4123    4123   1089               196405   196405   26749
 
     Using Slab Decomposition
 


     bravais-lattice index     =            0
     lattice parameter (alat)  =      19.8867  a.u.
     unit-cell volume          =    8849.4013 (a.u.)^3
     number of atoms/cell      =           64
     number of atomic types    =            1
     number of electrons       =       256.00
     number of Kohn-Sham states=          154
     kinetic-energy cutoff     =      30.0000  Ry
     charge density cutoff     =     120.0000  Ry
     scf convergence threshold =      1.0E-06
     mixing beta               =       0.5000
     number of iterations used =            8  plain     mixing
     Exchange-correlation= PBE
                           (   1   4   3   4   0   0   0)

     GPU acceleration is ACTIVE.
     GPU-aware MPI enabled

     Message from routine print_cuda_info:
     High GPU oversubscription detected. Are you sure this is what you want?

     celldm(1)=  19.886662  celldm(2)=   0.000000  celldm(3)=   0.000000
     celldm(4)=   0.000000  celldm(5)=   0.000000  celldm(6)=   0.000000

     crystal axes: (cart. coord. in units of alat)
               a(1) = (   1.000000   0.000000   0.000000 )  
               a(2) = (   0.000000   1.092416   0.000000 )  
               a(3) = (   0.000000   0.000000   1.030007 )  

     reciprocal axes: (cart. coord. in units 2 pi/alat)
               b(1) = (  1.000000  0.000000  0.000000 )  
               b(2) = (  0.000000  0.915402  0.000000 )  
               b(3) = (  0.000000  0.000000  0.970867 )  


     PseudoPot. # 1 for Si read from file:
     /home/ppiaggi/pseudos/Si_ONCV_PBE_sr.upf
     MD5 check sum: 8553c464762ac42b85b1eed164b4d029
     Pseudo is Norm-conserving, Zval =  4.0
     Generated using ONCVPSP code by D. R. Hamann
     Using radial grid of 1510 points,  4 beta functions with: 
                l(1) =   0
                l(2) =   0
                l(3) =   1
                l(4) =   1

     atomic species   valence    mass     pseudopotential
        Si             4.00    28.08500     Si( 1.00)

     No symmetry found



   Cartesian axes

     site n.     atom                  positions (alat units)
         1           Si  tau(   1) = (   0.0138911   0.0131063  -0.0011094  )
         2           Si  tau(   2) = (  -0.0025900   0.3063717   0.2813087  )
         3           Si  tau(   3) = (   0.2721686  -0.0051737   0.2735269  )
         4           Si  tau(   4) = (   0.2761813   0.2912796   0.0156196  )
         5           Si  tau(   5) = (   0.1168157   0.1223982   0.1495178  )
         6           Si  tau(   6) = (   0.5164228  -0.0123972   0.0190163  )
         7           Si  tau(   7) = (   0.5069293   0.2877539   0.2628233  )
         8           Si  tau(   8) = (   0.6459970   0.1244159   0.1351025  )
         9           Si  tau(   9) = (   0.7686180  -0.0105640   0.2594049  )
        10           Si  tau(  10) = (   0.7645208   0.2736267   0.0096727  )
        11           Si  tau(  11) = (  -0.0138924   0.5787443   0.0054726  )
        12           Si  tau(  12) = (   0.2744174   0.5809913   0.2800397  )
        13           Si  tau(  13) = (   0.1451244   0.7241880   0.1167864  )
        14           Si  tau(  14) = (   0.3923850   0.4400676   0.1197272  )
        15           Si  tau(  15) = (   0.5102109   0.5627905  -0.0165765  )
        16           Si  tau(  16) = (   0.6640239   0.7148531   0.1509061  )
        17           Si  tau(  17) = (   0.9058320   0.4228638   0.1244963  )
        18           Si  tau(  18) = (   0.7720452   0.5858117   0.2667463  )
        19           Si  tau(  19) = (   0.0123297   0.8448576   0.2664968  )
        20           Si  tau(  20) = (   0.2550193   0.8388842   0.0166789  )
        21           Si  tau(  21) = (   0.3761447   1.0019336   0.1507823  )
        22           Si  tau(  22) = (   0.5109823   0.8550250   0.2798585  )
        23           Si  tau(  23) = (   0.7848785   0.8555263  -0.0121131  )
        24           Si  tau(  24) = (   0.8924520   0.9846370   0.1457530  )
        25           Si  tau(  25) = (  -0.0171007   0.0066462   0.5284066  )
        26           Si  tau(  26) = (   0.2538771   0.2759673   0.5309857  )
        27           Si  tau(  27) = (   0.1278652   0.1277554   0.6458503  )
        28           Si  tau(  28) = (   0.3947957   0.1618040   0.4088489  )
        29           Si  tau(  29) = (   0.5101275  -0.0140610   0.5287643  )
        30           Si  tau(  30) = (   0.6390496   0.1526682   0.6485800  )
        31           Si  tau(  31) = (   0.9127713   0.1323194   0.4050375  )
        32           Si  tau(  32) = (   0.7795653   0.2890614   0.5302117  )
        33           Si  tau(  33) = (   0.1163419   0.4181033   0.3796836  )
        34           Si  tau(  34) = (  -0.0008562   0.5533201   0.5195763  )
        35           Si  tau(  35) = (   0.1381006   0.6952830   0.6789645  )
        36           Si  tau(  36) = (   0.6589967   0.4148923   0.3817682  )
        37           Si  tau(  37) = (   0.3826497   0.7047454   0.4046245  )
        38           Si  tau(  38) = (   0.3871287   0.4342686   0.6658799  )
        39           Si  tau(  39) = (   0.5283025   0.5873271   0.5416603  )
        40           Si  tau(  40) = (   0.6519502   0.7112832   0.6573610  )
        41           Si  tau(  41) = (   0.9183372   0.7218220   0.3900207  )
        42           Si  tau(  42) = (   0.8883337   0.4453998   0.6672216  )
        43           Si  tau(  43) = (   0.1225424   1.0002199   0.3996386  )
        44           Si  tau(  44) = (   0.2571088   0.8744861   0.5248212  )
        45           Si  tau(  45) = (   0.6424091   1.0089140   0.3782619  )
        46           Si  tau(  46) = (   0.3947900   0.9869104   0.6693326  )
        47           Si  tau(  47) = (   0.7756069   0.8586281   0.5270319  )
        48           Si  tau(  48) = (   0.9212408   1.0029828   0.6739619  )
        49           Si  tau(  49) = (   0.0043611   0.3048283   0.8091142  )
        50           Si  tau(  50) = (   0.2646141   0.0056034   0.7910395  )
        51           Si  tau(  51) = (   0.4062190   0.1484721   0.9405229  )
        52           Si  tau(  52) = (   0.5134573   0.2980057   0.8033655  )
        53           Si  tau(  53) = (   0.7874832  -0.0118405   0.7978484  )
        54           Si  tau(  54) = (   0.8888864   0.1551495   0.9238977  )
        55           Si  tau(  55) = (   0.1204253   0.4401780   0.9161821  )
        56           Si  tau(  56) = (   0.2447432   0.5843624   0.7816019  )
        57           Si  tau(  57) = (   0.6519073   0.4355939   0.9400036  )
        58           Si  tau(  58) = (   0.3973302   0.7326799   0.9384767  )
        59           Si  tau(  59) = (   0.7853322   0.5535110   0.8096673  )
        60           Si  tau(  60) = (   0.9029662   0.7184938   0.9182837  )
        61           Si  tau(  61) = (   0.0092848   0.8659493   0.8084235  )
        62           Si  tau(  62) = (   0.1365465   1.0156666   0.9243065  )
        63           Si  tau(  63) = (   0.5232426   0.8427492   0.8023336  )
        64           Si  tau(  64) = (   0.6482594   1.0045530   0.9252869  )

     number of k points=     1  Fermi-Dirac smearing, width (Ry)=  0.0100
                       cart. coord. in units 2pi/alat
        k(    1) = (   0.0000000   0.0000000   0.0000000), wk =   2.0000000

     Dense  grid:    98203 G-vectors     FFT dimensions: (  72,  75,  72)

     Estimated max dynamical RAM per process >     156.88 MB

     Estimated total dynamical RAM >     603.54 MB

     Initial potential from superposition of free atoms

     starting charge     255.9608, renormalised to     256.0000
     Starting wfcs are  256 randomized atomic wfcs

     total cpu time spent up to now is        5.1 secs

     Self-consistent Calculation

     iteration #  1     ecut=    30.00 Ry     beta= 0.50
     Davidson diagonalization with overlap
     ethr =  1.00E-02,  avg # of iterations =  3.0

     Threshold (ethr) on eigenvalues was too large:
     Diagonalizing with lowered threshold

     Davidson diagonalization with overlap
     ethr =  7.32E-04,  avg # of iterations =  4.0

     total cpu time spent up to now is        5.4 secs

     total energy              =    -501.52300280 Ry
     estimated scf accuracy    <       2.18552005 Ry

     iteration #  2     ecut=    30.00 Ry     beta= 0.50
     Davidson diagonalization with overlap
     ethr =  8.54E-04,  avg # of iterations =  5.0

     total cpu time spent up to now is        5.5 secs

     total energy              =    -501.13182263 Ry
     estimated scf accuracy    <       3.11942171 Ry

     iteration #  3     ecut=    30.00 Ry     beta= 0.50
     Davidson diagonalization with overlap
     ethr =  8.54E-04,  avg # of iterations =  4.0

     total cpu time spent up to now is        5.7 secs

     total energy              =    -501.49036411 Ry
     estimated scf accuracy    <       2.47045626 Ry

     iteration #  4     ecut=    30.00 Ry     beta= 0.50
     Davidson diagonalization with overlap
     ethr =  8.54E-04,  avg # of iterations =  2.0

     total cpu time spent up to now is        5.8 secs

     total energy              =    -501.65751008 Ry
     estimated scf accuracy    <       0.88331322 Ry

     iteration #  5     ecut=    30.00 Ry     beta= 0.50
     Davidson diagonalization with overlap
     ethr =  3.45E-04,  avg # of iterations =  2.0

     total cpu time spent up to now is        5.9 secs

     total energy              =    -501.76287071 Ry
     estimated scf accuracy    <       0.10933210 Ry

     iteration #  6     ecut=    30.00 Ry     beta= 0.50
     Davidson diagonalization with overlap
     c_bands:  1 eigenvalues not converged
     ethr =  4.27E-05,  avg # of iterations = 20.0

     total cpu time spent up to now is        6.1 secs

     total energy              =    -501.77888352 Ry
     estimated scf accuracy    <       0.02617665 Ry

     iteration #  7     ecut=    30.00 Ry     beta= 0.50
     Davidson diagonalization with overlap
     ethr =  1.02E-05,  avg # of iterations =  9.0

     total cpu time spent up to now is        6.2 secs

     total energy              =    -501.78100571 Ry
     estimated scf accuracy    <       0.02628777 Ry

     iteration #  8     ecut=    30.00 Ry     beta= 0.50
     Davidson diagonalization with overlap
     ethr =  1.02E-05,  avg # of iterations =  2.0

     total cpu time spent up to now is        6.3 secs

     total energy              =    -501.78368477 Ry
     estimated scf accuracy    <       0.00206849 Ry

     iteration #  9     ecut=    30.00 Ry     beta= 0.50
     Davidson diagonalization with overlap
     ethr =  8.08E-07,  avg # of iterations = 13.0

     total cpu time spent up to now is        6.5 secs

     total energy              =    -501.78407492 Ry
     estimated scf accuracy    <       0.00064068 Ry

     iteration # 10     ecut=    30.00 Ry     beta= 0.50
     Davidson diagonalization with overlap
     ethr =  2.50E-07,  avg # of iterations =  3.0

     total cpu time spent up to now is        6.6 secs

     total energy              =    -501.78414040 Ry
     estimated scf accuracy    <       0.00054543 Ry

     iteration # 11     ecut=    30.00 Ry     beta= 0.50
     Davidson diagonalization with overlap
     ethr =  2.13E-07,  avg # of iterations =  2.0

     total cpu time spent up to now is        6.7 secs

     total energy              =    -501.78419876 Ry
     estimated scf accuracy    <       0.00004494 Ry

     iteration # 12     ecut=    30.00 Ry     beta= 0.50
     Davidson diagonalization with overlap
     ethr =  1.76E-08,  avg # of iterations =  4.0

     total cpu time spent up to now is        6.9 secs

     total energy              =    -501.78420815 Ry
     estimated scf accuracy    <       0.00001560 Ry

     iteration # 13     ecut=    30.00 Ry     beta= 0.50
     Davidson diagonalization with overlap
     ethr =  6.09E-09,  avg # of iterations =  4.0

     total cpu time spent up to now is        7.0 secs

     total energy              =    -501.78420953 Ry
     estimated scf accuracy    <       0.00001408 Ry

     iteration # 14     ecut=    30.00 Ry     beta= 0.50
     Davidson diagonalization with overlap
     ethr =  5.50E-09,  avg # of iterations =  3.0

     total cpu time spent up to now is        7.1 secs

     total energy              =    -501.78421103 Ry
     estimated scf accuracy    <       0.00000658 Ry

     iteration # 15     ecut=    30.00 Ry     beta= 0.50
     Davidson diagonalization with overlap
     ethr =  2.57E-09,  avg # of iterations =  2.0

     total cpu time spent up to now is        7.2 secs

     End of self-consistent calculation

          k = 0.0000 0.0000 0.0000 ( 12263 PWs)   bands (ev):

    -6.3677  -5.5466  -5.4474  -5.2789  -5.1097  -5.0372  -4.9110  -4.7183
    -4.5147  -4.4236  -4.2511  -4.2091  -4.0907  -4.0492  -3.9876  -3.9070
    -3.7104  -3.6541  -3.5390  -3.4994  -3.3959  -3.2758  -3.2155  -2.6835
    -2.5808  -2.3641  -2.2691  -2.1707  -2.1255  -1.9678  -1.8556  -1.7517
    -1.6583  -1.5619  -1.5283  -1.4895  -1.4368  -1.4204  -1.3317  -1.1603
    -1.0922  -1.0130  -0.8927  -0.7157  -0.4625  -0.0655   0.0614   0.1207
     0.1919   0.3124   0.3897   0.4406   0.5769   0.5978   0.6738   0.7545
     0.8218   1.4076   1.5036   1.5716   1.6603   1.7295   1.8057   1.8815
     1.9409   2.0078   2.0480   2.0836   2.1125   2.1468   2.3055   2.3366
     2.3492   2.3715   2.4181   2.4387   2.4849   2.5225   2.5844   2.6508
     2.6758   2.7111   2.7476   2.7639   2.8086   2.8689   2.9500   3.0043
     3.0665   3.0965   3.1884   3.2487   3.3438   3.4250   3.5227   3.7375
     3.7662   3.8968   3.9699   4.0817   4.1318   4.1681   4.2341   4.3206
     4.3686   4.4087   4.5015   4.5461   4.5726   4.6755   4.7285   4.8217
     4.8827   4.9658   4.9964   5.0284   5.1097   5.1508   5.2437   5.2685
     5.2907   5.4930   5.5139   5.5871   5.7134   5.8120   5.9602   6.0977
     6.2590   6.4029   6.4715   6.5612   6.6252   6.6943   6.7713   6.7735
     6.8272   6.9219   6.9322   7.0581   7.1164   7.2240   7.3428   7.3617
     7.4709   7.5510   7.6181   7.6890   7.8177   7.8358   7.8751   8.0773
     8.0980   8.2258

     the Fermi energy is     6.1622 ev

!    total energy              =    -501.78421151 Ry
     estimated scf accuracy    <       0.00000050 Ry
     smearing contrib. (-TS)   =      -0.07616033 Ry
     internal energy E=F+TS    =    -501.70805117 Ry

     The total energy is F=E-TS. E is the sum of the following terms:
     one-electron contribution =     128.19803501 Ry
     hartree contribution      =      44.61279479 Ry
     xc contribution           =    -153.30786255 Ry
     ewald contribution        =    -521.21101842 Ry

     convergence has been achieved in  15 iterations

     Forces acting on atoms (cartesian axes, Ry/au):

     atom    1 type  1   force =    -0.19312485    0.12284013    0.16682252
     atom    2 type  1   force =    -0.09031482   -0.17140104   -0.11969099
     atom    3 type  1   force =    -0.17654655    0.23996511    0.19696774
     atom    4 type  1   force =    -0.08816456   -0.00613795   -0.00125253
     atom    5 type  1   force =     0.07080678    0.08668143    0.03706722
     atom    6 type  1   force =    -0.05656494    0.12527781    0.05299012
     atom    7 type  1   force =     0.04237297    0.00389743   -0.01993354
     atom    8 type  1   force =    -0.02551894    0.06750030    0.02249405
     atom    9 type  1   force =     0.07733820    0.23206270   -0.01586672
     atom   10 type  1   force =    -0.02918890    0.04674592    0.07342889
     atom   11 type  1   force =     0.12736320   -0.03897434    0.05812854
     atom   12 type  1   force =    -0.07847913   -0.08514337   -0.10241269
     atom   13 type  1   force =    -0.15887887   -0.18954846    0.18829907
     atom   14 type  1   force =    -0.00454836    0.00356047    0.08874894
     atom   15 type  1   force =    -0.01236658    0.06378110    0.08937639
     atom   16 type  1   force =    -0.08823784    0.06373989   -0.08294106
     atom   17 type  1   force =    -0.07900308   -0.01025988    0.03719657
     atom   18 type  1   force =     0.05768001   -0.09468904    0.04478045
     atom   19 type  1   force =     0.11094921    0.07704926   -0.08606237
     atom   20 type  1   force =     0.10490152    0.22678157   -0.08642646
     atom   21 type  1   force =     0.14509645   -0.26011860   -0.16818614
     atom   22 type  1   force =     0.00547985   -0.02399060   -0.03284766
     atom   23 type  1   force =    -0.06888586    0.03052466    0.10940426
     atom   24 type  1   force =     0.09162929   -0.11168264   -0.12401945
     atom   25 type  1   force =     0.18745199    0.03592917   -0.05948769
     atom   26 type  1   force =    -0.01271905    0.05550768   -0.00071372
     atom   27 type  1   force =     0.02098116    0.05491585    0.05215215
     atom   28 type  1   force =    -0.00422214   -0.05109125   -0.01263197
     atom   29 type  1   force =     0.04240248    0.15907419   -0.03774308
     atom   30 type  1   force =     0.00027484   -0.01703341    0.03308049
     atom   31 type  1   force =    -0.14834399    0.17580509   -0.15403866
     atom   32 type  1   force =    -0.00820172   -0.00468124   -0.01381749
     atom   33 type  1   force =     0.19311209    0.14172315    0.14801980
     atom   34 type  1   force =     0.06068956    0.04648069   -0.00353561
     atom   35 type  1   force =    -0.17552031    0.20204576   -0.19232344
     atom   36 type  1   force =    -0.01740356    0.03959812    0.02810401
     atom   37 type  1   force =     0.05450157    0.07891536    0.06760632
     atom   38 type  1   force =    -0.00264990   -0.00024148   -0.00783148
     atom   39 type  1   force =    -0.05853568   -0.09248978   -0.05807957
     atom   40 type  1   force =     0.04415360    0.03340028    0.06367018
     atom   41 type  1   force =    -0.12361546   -0.09255124    0.11061851
     atom   42 type  1   force =     0.01379252   -0.09646802   -0.03239136
     atom   43 type  1   force =     0.01185112   -0.08096540   -0.00924188
     atom   44 type  1   force =     0.00528073   -0.07101459    0.02908612
     atom   45 type  1   force =    -0.12124357   -0.17928398    0.16792866
     atom   46 type  1   force =    -0.01840401   -0.11766674    0.03301586
     atom   47 type  1   force =     0.01387567   -0.00208319   -0.00577115
     atom   48 type  1   force =    -0.08653154   -0.22558808    0.09087205
     atom   49 type  1   force =    -0.01404303   -0.05940838   -0.09640854
     atom   50 type  1   force =     0.03761147    0.13384690   -0.02653264
     atom   51 type  1   force =    -0.02846302   -0.00334445   -0.06617578
     atom   52 type  1   force =     0.02178130   -0.00585621   -0.02518987
     atom   53 type  1   force =    -0.06255744    0.17645390    0.00202691
     atom   54 type  1   force =     0.01438111   -0.02275858   -0.07343087
     atom   55 type  1   force =     0.08185939    0.02733643    0.04179126
     atom   56 type  1   force =     0.19090611   -0.17571196    0.16974210
     atom   57 type  1   force =     0.02711595   -0.06667716   -0.07755844
     atom   58 type  1   force =    -0.00051323   -0.06136908   -0.07488815
     atom   59 type  1   force =    -0.05382254    0.09189470    0.00391032
     atom   60 type  1   force =    -0.05698729   -0.01687290   -0.09343763
     atom   61 type  1   force =     0.08864708   -0.03397210   -0.02824041
     atom   62 type  1   force =     0.14295596   -0.24866839   -0.09759494
     atom   63 type  1   force =     0.02697650    0.03657198   -0.04397214
     atom   64 type  1   force =     0.02938108   -0.16216351   -0.07665336

     Total force =     1.351708     Total SCF correction =     0.001219


     Computing stress (Cartesian axis) and pressure

          total   stress  (Ry/bohr**3)                   (kbar)     P=       53.21
   0.00049433  -0.00007399  -0.00032728           72.72      -10.88      -48.15
  -0.00007399   0.00008675  -0.00014068          -10.88       12.76      -20.69
  -0.00032728  -0.00014068   0.00050408          -48.15      -20.69       74.15

 
     init_run     :      1.17s CPU      5.06s WALL (       1 calls)
     electrons    :      1.93s CPU      2.05s WALL (       1 calls)
     forces       :      0.04s CPU      0.05s WALL (       1 calls)
     stress       :      0.16s CPU      0.17s WALL (       1 calls)

     Called by init_run:
     wfcinit      :      0.54s CPU      4.25s WALL (       1 calls)
                                        4.25s GPU  (       1 calls)
     potinit      :      0.20s CPU      0.30s WALL (       1 calls)
     hinit0       :      0.41s CPU      0.44s WALL (       1 calls)

     Called by electrons:
     c_bands      :      1.22s CPU      1.28s WALL (      16 calls)
     sum_band     :      0.35s CPU      0.39s WALL (      16 calls)
     v_of_rho     :      0.17s CPU      0.28s WALL (      16 calls)
     mix_rho      :      0.15s CPU      0.17s WALL (      16 calls)

     Called by c_bands:
     init_us_2    :      0.06s CPU      0.06s WALL (      33 calls)
     init_us_2:gp :      0.06s CPU      0.06s WALL (      33 calls)
     regterg      :      1.08s CPU      1.13s WALL (      16 calls)

     Called by *egterg:
     rdiaghg      :      0.47s CPU      1.23s WALL (      97 calls)
                                        1.21s GPU  (      97 calls)
     h_psi        :      0.96s CPU      3.94s WALL (      99 calls)
                                        3.94s GPU  (      99 calls)
     g_psi        :      0.00s CPU      0.00s WALL (      82 calls)
                                        0.00s GPU  (      82 calls)

     Called by h_psi:
     h_psi:calbec :      0.49s CPU      3.40s WALL (      99 calls)
                                        3.39s GPU  (      99 calls)
     vloc_psi     :      0.41s CPU      0.48s WALL (      99 calls)
                                        0.47s GPU  (      99 calls)
     add_vuspsi   :      0.04s CPU      0.06s WALL (      99 calls)
                                        0.06s GPU  (      99 calls)

     General routines
     calbec       :      0.50s CPU      3.40s WALL (     104 calls)
     fft          :      0.52s CPU      0.66s WALL (     135 calls)
                                        0.14s GPU  (      86 calls)
     ffts         :      0.05s CPU      0.05s WALL (      16 calls)
     fftw         :      0.47s CPU      0.62s WALL (    1738 calls)
                                        0.55s GPU  (    1738 calls)
 
     Parallel routines
 
     PWSCF        :      3.35s CPU      7.41s WALL

 
   This run was terminated on:  11:41:15  10May2023            

=------------------------------------------------------------------------------=
   JOB DONE.
=------------------------------------------------------------------------------=
