An instance of this daemon is already running
An instance of this daemon is already running

     Program PWSCF v.7.1 starts on 10May2023 at 11:32:15 

     This program is part of the open-source Quantum ESPRESSO suite
     for quantum simulation of materials; please cite
         "P. Giannozzi et al., J. Phys.:Condens. Matter 21 395502 (2009);
         "P. Giannozzi et al., J. Phys.:Condens. Matter 29 465901 (2017);
         "P. Giannozzi et al., J. Chem. Phys. 152 154105 (2020);
          URL http://www.quantum-espresso.org", 
     in publications or presentations arising from this work. More details at
     http://www.quantum-espresso.org/quote

     Parallel version (MPI & OpenMP), running on       4 processor cores
     Number of MPI processes:                 4
     Threads/MPI process:                     1

     MPI processes distributed on     1 nodes
     706992 MiB available memory on the printing compute node when the environment starts
 
     Reading input from pw-si-12.in
Warning: card &CELL ignored
Warning: card / ignored

     Current dimensions of program PWSCF are:
     Max number of different atomic species (ntypx) = 10
     Max number of k-points (npk) =  40000
     Max angular momentum in pseudopotentials (lmaxx) =  4

     IMPORTANT: XC functional enforced from input :
     Exchange-correlation= PBE
                           (   1   4   3   4   0   0   0)
     Any further DFT definition will be discarded
     Please, verify this is what you really want


     gamma-point specific algorithms are used
 
     K-points division:     npool     =       2
     R & G space division:  proc/nbgrp/npool/nimage =       2
     Subspace diagonalization in iterative solution of the eigenvalue problem:
     a serial algorithm will be used

     Message from routine divide_et_impera:
     suboptimal parallelization: some nodes have no k-points
 
     Parallelization info
     --------------------
     sticks:   dense  smooth     PW     G-vecs:    dense   smooth      PW
     Min        1938    1938    515                89970    89970   12236
     Max        1941    1941    516                89977    89977   12237
     Sum        3879    3879   1031               179947   179947   24473
 
     Using Slab Decomposition
 


     bravais-lattice index     =            0
     lattice parameter (alat)  =      19.7483  a.u.
     unit-cell volume          =    8109.1904 (a.u.)^3
     number of atoms/cell      =           64
     number of atomic types    =            1
     number of electrons       =       256.00
     number of Kohn-Sham states=          154
     kinetic-energy cutoff     =      30.0000  Ry
     charge density cutoff     =     120.0000  Ry
     scf convergence threshold =      1.0E-06
     mixing beta               =       0.5000
     number of iterations used =            8  plain     mixing
     Exchange-correlation= PBE
                           (   1   4   3   4   0   0   0)

     GPU acceleration is ACTIVE.
     GPU-aware MPI enabled

     Message from routine print_cuda_info:
     High GPU oversubscription detected. Are you sure this is what you want?

     celldm(1)=  19.748303  celldm(2)=   0.000000  celldm(3)=   0.000000
     celldm(4)=   0.000000  celldm(5)=   0.000000  celldm(6)=   0.000000

     crystal axes: (cart. coord. in units of alat)
               a(1) = (   1.000000   0.000000   0.000000 )  
               a(2) = (   0.000000   1.044705   0.000000 )  
               a(3) = (   0.000000   0.000000   1.007847 )  

     reciprocal axes: (cart. coord. in units 2 pi/alat)
               b(1) = (  1.000000  0.000000  0.000000 )  
               b(2) = (  0.000000  0.957208  0.000000 )  
               b(3) = (  0.000000  0.000000  0.992214 )  


     PseudoPot. # 1 for Si read from file:
     /home/ppiaggi/pseudos/Si_ONCV_PBE_sr.upf
     MD5 check sum: 8553c464762ac42b85b1eed164b4d029
     Pseudo is Norm-conserving, Zval =  4.0
     Generated using ONCVPSP code by D. R. Hamann
     Using radial grid of 1510 points,  4 beta functions with: 
                l(1) =   0
                l(2) =   0
                l(3) =   1
                l(4) =   1

     atomic species   valence    mass     pseudopotential
        Si             4.00    28.08500     Si( 1.00)

     No symmetry found



   Cartesian axes

     site n.     atom                  positions (alat units)
         1           Si  tau(   1) = (  -0.0022644   0.0111611  -0.0156436  )
         2           Si  tau(   2) = (  -0.0051348   0.2555461   0.2513273  )
         3           Si  tau(   3) = (   0.2305551  -0.0172461   0.2390686  )
         4           Si  tau(   4) = (   0.2523724   0.2499940   0.0122747  )
         5           Si  tau(   5) = (   0.1177682   0.1284033   0.1382044  )
         6           Si  tau(   6) = (   0.4722534   0.0068349   0.0164562  )
         7           Si  tau(   7) = (   0.4845666   0.2607520   0.2579045  )
         8           Si  tau(   8) = (   0.6032753   0.1299901   0.1134903  )
         9           Si  tau(   9) = (   0.7041376   0.0007288   0.2561158  )
        10           Si  tau(  10) = (   0.7268479   0.2647813  -0.0083672  )
        11           Si  tau(  11) = (  -0.0021554   0.5352435  -0.0104279  )
        12           Si  tau(  12) = (   0.2520728   0.5350682   0.2349078  )
        13           Si  tau(  13) = (   0.1167292   0.6594527   0.1112579  )
        14           Si  tau(  14) = (   0.3445501   0.3756621   0.1310567  )
        15           Si  tau(  15) = (   0.4770407   0.5248555   0.0051834  )
        16           Si  tau(  16) = (   0.5842031   0.6596046   0.1372975  )
        17           Si  tau(  17) = (   0.8333493   0.3739173   0.1042969  )
        18           Si  tau(  18) = (   0.7140717   0.5171132   0.2587403  )
        19           Si  tau(  19) = (  -0.0034012   0.7833072   0.2513844  )
        20           Si  tau(  20) = (   0.2318657   0.7944219  -0.0153397  )
        21           Si  tau(  21) = (   0.3601601   0.8923139   0.1299193  )
        22           Si  tau(  22) = (   0.4862848   0.7636461   0.2350411  )
        23           Si  tau(  23) = (   0.7024605   0.7726387  -0.0069846  )
        24           Si  tau(  24) = (   0.8384326   0.9066219   0.1385326  )
        25           Si  tau(  25) = (   0.0121101  -0.0030495   0.4946873  )
        26           Si  tau(  26) = (   0.2291841   0.2536654   0.4771520  )
        27           Si  tau(  27) = (   0.1364831   0.1407170   0.6016706  )
        28           Si  tau(  28) = (   0.3539809   0.1333916   0.3534343  )
        29           Si  tau(  29) = (   0.4697360  -0.0014246   0.4841264  )
        30           Si  tau(  30) = (   0.5805192   0.1218235   0.6268065  )
        31           Si  tau(  31) = (   0.8490989   0.1422278   0.3634140  )
        32           Si  tau(  32) = (   0.7149911   0.2715374   0.5005917  )
        33           Si  tau(  33) = (   0.1032778   0.3948385   0.3544694  )
        34           Si  tau(  34) = (   0.0062033   0.5251201   0.5047987  )
        35           Si  tau(  35) = (   0.1253615   0.6324239   0.6152376  )
        36           Si  tau(  36) = (   0.5876842   0.3851233   0.3695868  )
        37           Si  tau(  37) = (   0.3534489   0.6590903   0.3802975  )
        38           Si  tau(  38) = (   0.3599827   0.4017019   0.5976379  )
        39           Si  tau(  39) = (   0.4665997   0.5169623   0.4751286  )
        40           Si  tau(  40) = (   0.5907691   0.6670894   0.6237934  )
        41           Si  tau(  41) = (   0.8503253   0.6458347   0.3742699  )
        42           Si  tau(  42) = (   0.8448176   0.4082619   0.6218179  )
        43           Si  tau(  43) = (   0.1285032   0.8977476   0.3519178  )
        44           Si  tau(  44) = (   0.2544837   0.7750869   0.4717473  )
        45           Si  tau(  45) = (   0.5943464   0.9050982   0.3811549  )
        46           Si  tau(  46) = (   0.3741211   0.8990222   0.6072308  )
        47           Si  tau(  47) = (   0.7172880   0.7858257   0.4795116  )
        48           Si  tau(  48) = (   0.8383839   0.9102636   0.6073047  )
        49           Si  tau(  49) = (  -0.0113545   0.2547918   0.7152625  )
        50           Si  tau(  50) = (   0.2235897   0.0077745   0.7343179  )
        51           Si  tau(  51) = (   0.3418694   0.1145445   0.8567895  )
        52           Si  tau(  52) = (   0.4774635   0.2731783   0.7191589  )
        53           Si  tau(  53) = (   0.7164754  -0.0063473   0.7439313  )
        54           Si  tau(  54) = (   0.8322446   0.1298190   0.8634293  )
        55           Si  tau(  55) = (   0.1266215   0.3717555   0.8658499  )
        56           Si  tau(  56) = (   0.2471992   0.5149334   0.7243913  )
        57           Si  tau(  57) = (   0.6130965   0.4078832   0.8498526  )
        58           Si  tau(  58) = (   0.3646123   0.6657225   0.8483597  )
        59           Si  tau(  59) = (   0.7085902   0.5347294   0.7205233  )
        60           Si  tau(  60) = (   0.8196251   0.6660231   0.8526936  )
        61           Si  tau(  61) = (   0.0019682   0.7821410   0.7333241  )
        62           Si  tau(  62) = (   0.1152944   0.9144991   0.8505128  )
        63           Si  tau(  63) = (   0.4909812   0.7623654   0.7325561  )
        64           Si  tau(  64) = (   0.6134348   0.9159558   0.8407751  )

     number of k points=     1  Fermi-Dirac smearing, width (Ry)=  0.0100
                       cart. coord. in units 2pi/alat
        k(    1) = (   0.0000000   0.0000000   0.0000000), wk =   2.0000000

     Dense  grid:    89974 G-vectors     FFT dimensions: (  72,  72,  72)

     Estimated max dynamical RAM per process >     144.58 MB

     Estimated total dynamical RAM >     556.35 MB

     Initial potential from superposition of free atoms

     starting charge     255.9608, renormalised to     256.0000
     Starting wfcs are  256 randomized atomic wfcs

     total cpu time spent up to now is        5.2 secs

     Self-consistent Calculation

     iteration #  1     ecut=    30.00 Ry     beta= 0.50
     Davidson diagonalization with overlap
     ethr =  1.00E-02,  avg # of iterations =  4.0

     Threshold (ethr) on eigenvalues was too large:
     Diagonalizing with lowered threshold

     Davidson diagonalization with overlap
     ethr =  8.91E-04,  avg # of iterations =  8.0

     total cpu time spent up to now is        5.5 secs

     total energy              =    -501.42655349 Ry
     estimated scf accuracy    <       2.64074749 Ry

     iteration #  2     ecut=    30.00 Ry     beta= 0.50
     Davidson diagonalization with overlap
     ethr =  1.03E-03,  avg # of iterations =  4.0

     total cpu time spent up to now is        5.6 secs

     total energy              =    -501.05846449 Ry
     estimated scf accuracy    <       3.41419034 Ry

     iteration #  3     ecut=    30.00 Ry     beta= 0.50
     Davidson diagonalization with overlap
     ethr =  1.03E-03,  avg # of iterations =  4.0

     total cpu time spent up to now is        5.7 secs

     total energy              =    -501.55768787 Ry
     estimated scf accuracy    <       1.75980238 Ry

     iteration #  4     ecut=    30.00 Ry     beta= 0.50
     Davidson diagonalization with overlap
     ethr =  6.87E-04,  avg # of iterations =  2.0

     total cpu time spent up to now is        5.8 secs

     total energy              =    -501.73899016 Ry
     estimated scf accuracy    <       0.16583550 Ry

     iteration #  5     ecut=    30.00 Ry     beta= 0.50
     Davidson diagonalization with overlap
     ethr =  6.48E-05,  avg # of iterations =  9.0

     total cpu time spent up to now is        6.0 secs

     total energy              =    -501.76910493 Ry
     estimated scf accuracy    <       0.02698947 Ry

     iteration #  6     ecut=    30.00 Ry     beta= 0.50
     Davidson diagonalization with overlap
     ethr =  1.05E-05,  avg # of iterations =  9.0

     total cpu time spent up to now is        6.1 secs

     total energy              =    -501.77081082 Ry
     estimated scf accuracy    <       0.03063843 Ry

     iteration #  7     ecut=    30.00 Ry     beta= 0.50
     Davidson diagonalization with overlap
     ethr =  1.05E-05,  avg # of iterations =  3.0

     total cpu time spent up to now is        6.2 secs

     total energy              =    -501.77466056 Ry
     estimated scf accuracy    <       0.00218826 Ry

     iteration #  8     ecut=    30.00 Ry     beta= 0.50
     Davidson diagonalization with overlap
     ethr =  8.55E-07,  avg # of iterations =  9.0

     total cpu time spent up to now is        6.3 secs

     total energy              =    -501.77492194 Ry
     estimated scf accuracy    <       0.00117917 Ry

     iteration #  9     ecut=    30.00 Ry     beta= 0.50
     Davidson diagonalization with overlap
     ethr =  4.61E-07,  avg # of iterations =  3.0

     total cpu time spent up to now is        6.5 secs

     total energy              =    -501.77505244 Ry
     estimated scf accuracy    <       0.00051301 Ry

     iteration # 10     ecut=    30.00 Ry     beta= 0.50
     Davidson diagonalization with overlap
     ethr =  2.00E-07,  avg # of iterations =  2.0

     total cpu time spent up to now is        6.5 secs

     total energy              =    -501.77510611 Ry
     estimated scf accuracy    <       0.00006455 Ry

     iteration # 11     ecut=    30.00 Ry     beta= 0.50
     Davidson diagonalization with overlap
     ethr =  2.52E-08,  avg # of iterations =  4.0

     total cpu time spent up to now is        6.7 secs

     total energy              =    -501.77511701 Ry
     estimated scf accuracy    <       0.00002087 Ry

     iteration # 12     ecut=    30.00 Ry     beta= 0.50
     Davidson diagonalization with overlap
     ethr =  8.15E-09,  avg # of iterations =  3.0

     total cpu time spent up to now is        6.8 secs

     total energy              =    -501.77512021 Ry
     estimated scf accuracy    <       0.00001433 Ry

     iteration # 13     ecut=    30.00 Ry     beta= 0.50
     Davidson diagonalization with overlap
     ethr =  5.60E-09,  avg # of iterations =  2.0

     total cpu time spent up to now is        6.8 secs

     total energy              =    -501.77512174 Ry
     estimated scf accuracy    <       0.00000154 Ry

     iteration # 14     ecut=    30.00 Ry     beta= 0.50
     Davidson diagonalization with overlap
     ethr =  6.03E-10,  avg # of iterations =  4.0

     total cpu time spent up to now is        6.9 secs

     End of self-consistent calculation

          k = 0.0000 0.0000 0.0000 ( 11254 PWs)   bands (ev):

    -5.9448  -5.1037  -4.9591  -4.7725  -4.7319  -4.4161  -4.2306  -4.2262
    -4.0454  -3.8825  -3.7851  -3.7381  -3.6878  -3.5613  -3.4439  -3.4262
    -3.3095  -3.2217  -3.0368  -2.9716  -2.8566  -2.6253  -2.3120  -1.7969
    -1.7332  -1.6009  -1.5233  -1.4296  -1.3168  -1.2478  -1.2153  -1.0876
    -1.0623  -1.0078  -0.9130  -0.8568  -0.7205  -0.6578  -0.6051  -0.5370
    -0.4568  -0.4071  -0.3193  -0.2443  -0.0563   0.7746   0.8296   0.9684
     0.9779   1.0914   1.1740   1.2196   1.3263   1.3814   1.4533   1.4871
     1.5940   2.1403   2.2291   2.2610   2.3726   2.4041   2.4816   2.4920
     2.5470   2.5618   2.6457   2.6746   2.7138   2.7745   2.8358   2.8588
     2.8854   2.9962   3.0057   3.0587   3.0860   3.0991   3.1735   3.2310
     3.3217   3.3973   3.4493   3.5012   3.5388   3.6318   3.6345   3.7168
     3.8029   3.8843   3.9343   4.1877   4.2375   4.3797   4.4105   4.5403
     4.5754   4.7838   4.8457   4.8957   4.9290   4.9592   4.9869   5.0527
     5.1087   5.1695   5.1837   5.2733   5.3266   5.3983   5.4302   5.4763
     5.5730   5.6294   5.6999   5.7354   5.8112   5.8610   5.9422   6.0219
     6.0546   6.1929   6.2593   6.5324   6.6825   6.7635   6.8349   7.0140
     7.0762   7.1973   7.3261   7.3651   7.4814   7.5834   7.6051   7.8054
     7.8753   7.9234   8.0675   8.1217   8.1907   8.2513   8.3182   8.4213
     8.5891   8.7436   8.8039   8.8462   8.9724   8.9929   9.0345   9.1062
     9.1956   9.2267

     the Fermi energy is     7.0295 ev

!    total energy              =    -501.77512191 Ry
     estimated scf accuracy    <       0.00000026 Ry
     smearing contrib. (-TS)   =      -0.08357930 Ry
     internal energy E=F+TS    =    -501.69154261 Ry

     The total energy is F=E-TS. E is the sum of the following terms:
     one-electron contribution =     148.37851614 Ry
     hartree contribution      =      42.98059854 Ry
     xc contribution           =    -156.41301864 Ry
     ewald contribution        =    -536.63763865 Ry

     convergence has been achieved in  14 iterations

     Forces acting on atoms (cartesian axes, Ry/au):

     atom    1 type  1   force =    -0.07092613   -0.02261669    0.00250519
     atom    2 type  1   force =    -0.10864508    0.00973117   -0.06425055
     atom    3 type  1   force =     0.09347447    0.06611707   -0.02827887
     atom    4 type  1   force =    -0.09632818   -0.09125566   -0.14519193
     atom    5 type  1   force =    -0.02012979   -0.01617904   -0.09154496
     atom    6 type  1   force =    -0.04541767   -0.07085044   -0.12042349
     atom    7 type  1   force =    -0.02247464   -0.06117774   -0.15042679
     atom    8 type  1   force =     0.01631096    0.06577488    0.04769422
     atom    9 type  1   force =     0.07814553    0.00360829   -0.01296178
     atom   10 type  1   force =    -0.13572405   -0.10371726   -0.16866351
     atom   11 type  1   force =    -0.08866663   -0.08908367   -0.07072762
     atom   12 type  1   force =    -0.07513709   -0.01413546    0.02128576
     atom   13 type  1   force =     0.00358172    0.01763160    0.02643898
     atom   14 type  1   force =     0.12832558    0.09677600    0.04089520
     atom   15 type  1   force =    -0.01929794   -0.02762411   -0.07754394
     atom   16 type  1   force =     0.30463097   -0.32618455   -0.27280328
     atom   17 type  1   force =     0.18681568    0.18577669    0.17811337
     atom   18 type  1   force =     0.04803500   -0.00685288   -0.07817029
     atom   19 type  1   force =    -0.12518802   -0.07355209   -0.06357146
     atom   20 type  1   force =     0.03548584   -0.02901251   -0.04698822
     atom   21 type  1   force =    -0.01193465    0.06043900   -0.06279287
     atom   22 type  1   force =    -0.24805602    0.30208561    0.34436574
     atom   23 type  1   force =     0.04421464    0.07119632    0.00640168
     atom   24 type  1   force =     0.03010933    0.00727239   -0.05460759
     atom   25 type  1   force =    -0.07973601   -0.02687784   -0.03863580
     atom   26 type  1   force =     0.09343546    0.16584761   -0.10003099
     atom   27 type  1   force =    -0.14370907   -0.08145624    0.08862771
     atom   28 type  1   force =    -0.03778543   -0.08102595    0.01810147
     atom   29 type  1   force =     0.00294329    0.03524368    0.01411566
     atom   30 type  1   force =     0.07680995   -0.01420241   -0.06475758
     atom   31 type  1   force =    -0.01610178   -0.04011797    0.05619833
     atom   32 type  1   force =     0.03516498   -0.04995040    0.01892961
     atom   33 type  1   force =     0.07211301    0.06827681    0.04184530
     atom   34 type  1   force =    -0.17101349   -0.08967965   -0.11585161
     atom   35 type  1   force =     0.03370397    0.19784897    0.02458983
     atom   36 type  1   force =     0.09521446    0.05332476    0.05487467
     atom   37 type  1   force =     0.19400509   -0.21552480   -0.26558949
     atom   38 type  1   force =    -0.05970060   -0.12498251   -0.00583569
     atom   39 type  1   force =     0.10360377    0.08153573    0.04146390
     atom   40 type  1   force =     0.18798459   -0.20803806   -0.37891217
     atom   41 type  1   force =     0.06166989    0.00126390   -0.00031384
     atom   42 type  1   force =     0.06743321   -0.05541197   -0.03679368
     atom   43 type  1   force =    -0.04757615    0.03371407    0.13920016
     atom   44 type  1   force =    -0.23877694    0.22344933    0.26415145
     atom   45 type  1   force =    -0.08033858    0.05158835   -0.11536557
     atom   46 type  1   force =    -0.07660797    0.02521013    0.04714090
     atom   47 type  1   force =     0.07867511   -0.09504608    0.08688938
     atom   48 type  1   force =     0.09653369    0.02277168    0.01754098
     atom   49 type  1   force =    -0.04794215    0.02437867    0.08600314
     atom   50 type  1   force =     0.04426467   -0.10563717   -0.06012381
     atom   51 type  1   force =     0.11510004    0.09821406    0.09716132
     atom   52 type  1   force =    -0.02452251    0.00752849    0.12502153
     atom   53 type  1   force =     0.14030724    0.15135311   -0.14465938
     atom   54 type  1   force =     0.11459477    0.01116139    0.00335916
     atom   55 type  1   force =    -0.02533562    0.03745274    0.00100229
     atom   56 type  1   force =     0.00744676   -0.01974748    0.16215820
     atom   57 type  1   force =    -0.08841828   -0.08308716    0.10622159
     atom   58 type  1   force =    -0.11292192   -0.10695624    0.15174976
     atom   59 type  1   force =     0.08747729   -0.00049619    0.03249169
     atom   60 type  1   force =     0.10467844    0.00219896    0.01998038
     atom   61 type  1   force =    -0.10523909   -0.03865785   -0.02801219
     atom   62 type  1   force =    -0.03552590    0.02870273    0.08243904
     atom   63 type  1   force =    -0.15237767    0.33927834    0.20586044
     atom   64 type  1   force =    -0.17073431   -0.17761445    0.20901096

     Total force =     1.574356     Total SCF correction =     0.000876


     Computing stress (Cartesian axis) and pressure

          total   stress  (Ry/bohr**3)                   (kbar)     P=      147.82
   0.00098663   0.00000684  -0.00009865          145.14        1.01      -14.51
   0.00000684   0.00101864   0.00025215            1.01      149.85       37.09
  -0.00009865   0.00025215   0.00100922          -14.51       37.09      148.46

 
     init_run     :      1.28s CPU      5.14s WALL (       1 calls)
     electrons    :      1.60s CPU      1.73s WALL (       1 calls)
     forces       :      0.04s CPU      0.04s WALL (       1 calls)
     stress       :      0.15s CPU      0.15s WALL (       1 calls)

     Called by init_run:
     wfcinit      :      0.56s CPU      4.24s WALL (       1 calls)
                                        4.24s GPU  (       1 calls)
     potinit      :      0.19s CPU      0.28s WALL (       1 calls)
     hinit0       :      0.51s CPU      0.54s WALL (       1 calls)

     Called by electrons:
     c_bands      :      1.03s CPU      1.09s WALL (      15 calls)
     sum_band     :      0.29s CPU      0.33s WALL (      15 calls)
     v_of_rho     :      0.14s CPU      0.25s WALL (      15 calls)
     mix_rho      :      0.13s CPU      0.14s WALL (      15 calls)

     Called by c_bands:
     init_us_2    :      0.05s CPU      0.06s WALL (      31 calls)
     init_us_2:gp :      0.05s CPU      0.06s WALL (      31 calls)
     regterg      :      0.90s CPU      0.95s WALL (      15 calls)

     Called by *egterg:
     rdiaghg      :      0.42s CPU      1.18s WALL (      84 calls)
                                        1.16s GPU  (      84 calls)
     h_psi        :      0.88s CPU      3.84s WALL (      86 calls)
                                        3.83s GPU  (      86 calls)
     g_psi        :      0.00s CPU      0.00s WALL (      70 calls)
                                        0.00s GPU  (      70 calls)

     Called by h_psi:
     h_psi:calbec :      0.51s CPU      3.40s WALL (      86 calls)
                                        3.40s GPU  (      86 calls)
     vloc_psi     :      0.32s CPU      0.38s WALL (      86 calls)
                                        0.38s GPU  (      86 calls)
     add_vuspsi   :      0.03s CPU      0.05s WALL (      86 calls)
                                        0.05s GPU  (      86 calls)

     General routines
     calbec       :      0.52s CPU      3.40s WALL (      91 calls)
     fft          :      0.59s CPU      0.72s WALL (     127 calls)
                                        0.13s GPU  (      81 calls)
     ffts         :      0.04s CPU      0.04s WALL (      15 calls)
     fftw         :      0.37s CPU      0.50s WALL (    1621 calls)
                                        0.44s GPU  (    1621 calls)
 
     Parallel routines
 
     PWSCF        :      3.12s CPU      7.15s WALL

 
   This run was terminated on:  11:32:22  10May2023            

=------------------------------------------------------------------------------=
   JOB DONE.
=------------------------------------------------------------------------------=
