An instance of this daemon is already running

     Program PWSCF v.7.1 starts on 10May2023 at 11:38:33 

     This program is part of the open-source Quantum ESPRESSO suite
     for quantum simulation of materials; please cite
         "P. Giannozzi et al., J. Phys.:Condens. Matter 21 395502 (2009);
         "P. Giannozzi et al., J. Phys.:Condens. Matter 29 465901 (2017);
         "P. Giannozzi et al., J. Chem. Phys. 152 154105 (2020);
          URL http://www.quantum-espresso.org", 
     in publications or presentations arising from this work. More details at
     http://www.quantum-espresso.org/quote

     Parallel version (MPI & OpenMP), running on       4 processor cores
     Number of MPI processes:                 4
     Threads/MPI process:                     1

     MPI processes distributed on     1 nodes
     706976 MiB available memory on the printing compute node when the environment starts
 
     Reading input from pw-si-51.in
Warning: card &CELL ignored
Warning: card / ignored

     Current dimensions of program PWSCF are:
     Max number of different atomic species (ntypx) = 10
     Max number of k-points (npk) =  40000
     Max angular momentum in pseudopotentials (lmaxx) =  4

     IMPORTANT: XC functional enforced from input :
     Exchange-correlation= PBE
                           (   1   4   3   4   0   0   0)
     Any further DFT definition will be discarded
     Please, verify this is what you really want


     gamma-point specific algorithms are used
 
     K-points division:     npool     =       2
     R & G space division:  proc/nbgrp/npool/nimage =       2
     Subspace diagonalization in iterative solution of the eigenvalue problem:
     a serial algorithm will be used

     Message from routine divide_et_impera:
     suboptimal parallelization: some nodes have no k-points
 
     Parallelization info
     --------------------
     sticks:   dense  smooth     PW     G-vecs:    dense   smooth      PW
     Min        1998    1998    523                96914    96914   13179
     Max        1999    1999    524                96915    96915   13180
     Sum        3997    3997   1047               193829   193829   26359
 
     Using Slab Decomposition
 


     bravais-lattice index     =            0
     lattice parameter (alat)  =      19.7755  a.u.
     unit-cell volume          =    8729.7424 (a.u.)^3
     number of atoms/cell      =           64
     number of atomic types    =            1
     number of electrons       =       256.00
     number of Kohn-Sham states=          154
     kinetic-energy cutoff     =      30.0000  Ry
     charge density cutoff     =     120.0000  Ry
     scf convergence threshold =      1.0E-06
     mixing beta               =       0.5000
     number of iterations used =            8  plain     mixing
     Exchange-correlation= PBE
                           (   1   4   3   4   0   0   0)

     GPU acceleration is ACTIVE.
     GPU-aware MPI enabled

     Message from routine print_cuda_info:
     High GPU oversubscription detected. Are you sure this is what you want?

     celldm(1)=  19.775519  celldm(2)=   0.000000  celldm(3)=   0.000000
     celldm(4)=   0.000000  celldm(5)=   0.000000  celldm(6)=   0.000000

     crystal axes: (cart. coord. in units of alat)
               a(1) = (   1.000000   0.000000   0.000000 )  
               a(2) = (   0.000000   1.069759   0.000000 )  
               a(3) = (   0.000000   0.000000   1.055193 )  

     reciprocal axes: (cart. coord. in units 2 pi/alat)
               b(1) = (  1.000000  0.000000  0.000000 )  
               b(2) = (  0.000000  0.934790  0.000000 )  
               b(3) = (  0.000000  0.000000  0.947694 )  


     PseudoPot. # 1 for Si read from file:
     /home/ppiaggi/pseudos/Si_ONCV_PBE_sr.upf
     MD5 check sum: 8553c464762ac42b85b1eed164b4d029
     Pseudo is Norm-conserving, Zval =  4.0
     Generated using ONCVPSP code by D. R. Hamann
     Using radial grid of 1510 points,  4 beta functions with: 
                l(1) =   0
                l(2) =   0
                l(3) =   1
                l(4) =   1

     atomic species   valence    mass     pseudopotential
        Si             4.00    28.08500     Si( 1.00)

     No symmetry found



   Cartesian axes

     site n.     atom                  positions (alat units)
         1           Si  tau(   1) = (   0.0019166  -0.0174643  -0.0001323  )
         2           Si  tau(   2) = (   0.0029119   0.2652370   0.2590654  )
         3           Si  tau(   3) = (   0.2442820   0.0062440   0.2502797  )
         4           Si  tau(   4) = (   0.2515033   0.2461294   0.0114220  )
         5           Si  tau(   5) = (   0.1063892   0.1265924   0.1441884  )
         6           Si  tau(   6) = (   0.5020126  -0.0142987   0.0181240  )
         7           Si  tau(   7) = (   0.4741737   0.2594792   0.2676755  )
         8           Si  tau(   8) = (   0.6029186   0.1130590   0.1269689  )
         9           Si  tau(   9) = (   0.7388374   0.0126402   0.2652901  )
        10           Si  tau(  10) = (   0.7497178   0.2756652  -0.0062593  )
        11           Si  tau(  11) = (  -0.0123377   0.5410575   0.0172668  )
        12           Si  tau(  12) = (   0.2332814   0.5330098   0.2679415  )
        13           Si  tau(  13) = (   0.1280333   0.6482768   0.1442076  )
        14           Si  tau(  14) = (   0.3515974   0.3898469   0.1382549  )
        15           Si  tau(  15) = (   0.4989582   0.5076984   0.0070802  )
        16           Si  tau(  16) = (   0.6081034   0.6617953   0.1269363  )
        17           Si  tau(  17) = (   0.8635914   0.3911970   0.1333513  )
        18           Si  tau(  18) = (   0.7434581   0.5182231   0.2715420  )
        19           Si  tau(  19) = (   0.0116086   0.7783679   0.2437869  )
        20           Si  tau(  20) = (   0.2503424   0.7682203  -0.0124047  )
        21           Si  tau(  21) = (   0.3576090   0.9027405   0.1409935  )
        22           Si  tau(  22) = (   0.5016872   0.7905643   0.2571875  )
        23           Si  tau(  23) = (   0.7321773   0.7838040  -0.0144199  )
        24           Si  tau(  24) = (   0.8648604   0.9025396   0.1118518  )
        25           Si  tau(  25) = (  -0.0164536  -0.0137687   0.5212067  )
        26           Si  tau(  26) = (   0.2626962   0.2495273   0.5036771  )
        27           Si  tau(  27) = (   0.1104941   0.1317285   0.6346699  )
        28           Si  tau(  28) = (   0.3635311   0.1462370   0.3751168  )
        29           Si  tau(  29) = (   0.5030303   0.0000178   0.5229407  )
        30           Si  tau(  30) = (   0.5953366   0.1463206   0.6528060  )
        31           Si  tau(  31) = (   0.8440802   0.1462404   0.3995757  )
        32           Si  tau(  32) = (   0.7491911   0.2682775   0.4968642  )
        33           Si  tau(  33) = (   0.1362931   0.4016701   0.3814788  )
        34           Si  tau(  34) = (  -0.0143834   0.5407305   0.4956009  )
        35           Si  tau(  35) = (   0.1071281   0.6629656   0.6606683  )
        36           Si  tau(  36) = (   0.6056096   0.3935012   0.4039105  )
        37           Si  tau(  37) = (   0.3825230   0.6476923   0.3968106  )
        38           Si  tau(  38) = (   0.3724574   0.4100608   0.6258177  )
        39           Si  tau(  39) = (   0.4816589   0.5410004   0.5199670  )
        40           Si  tau(  40) = (   0.5992626   0.6653124   0.6249726  )
        41           Si  tau(  41) = (   0.8615292   0.6510719   0.3783813  )
        42           Si  tau(  42) = (   0.8470929   0.3817594   0.6326315  )
        43           Si  tau(  43) = (   0.1193625   0.8988281   0.3920293  )
        44           Si  tau(  44) = (   0.2427011   0.7895381   0.5287997  )
        45           Si  tau(  45) = (   0.5993016   0.9117233   0.3760084  )
        46           Si  tau(  46) = (   0.3612861   0.9042370   0.6355746  )
        47           Si  tau(  47) = (   0.7474614   0.7889897   0.4961887  )
        48           Si  tau(  48) = (   0.8566250   0.9085248   0.6262755  )
        49           Si  tau(  49) = (   0.0150166   0.2658693   0.7720163  )
        50           Si  tau(  50) = (   0.2548639  -0.0121460   0.7592237  )
        51           Si  tau(  51) = (   0.3597720   0.1437216   0.8995492  )
        52           Si  tau(  52) = (   0.5053141   0.2709965   0.7690292  )
        53           Si  tau(  53) = (   0.7213325   0.0171121   0.7548978  )
        54           Si  tau(  54) = (   0.8410120   0.1403733   0.9164925  )
        55           Si  tau(  55) = (   0.1254075   0.3970860   0.8870948  )
        56           Si  tau(  56) = (   0.2463134   0.5074383   0.7677511  )
        57           Si  tau(  57) = (   0.6164799   0.3993817   0.8985762  )
        58           Si  tau(  58) = (   0.3592511   0.6613510   0.9067897  )
        59           Si  tau(  59) = (   0.7465346   0.5035630   0.7741802  )
        60           Si  tau(  60) = (   0.8735050   0.6540013   0.8904726  )
        61           Si  tau(  61) = (   0.0121814   0.7925484   0.7772530  )
        62           Si  tau(  62) = (   0.1236283   0.9270986   0.8828420  )
        63           Si  tau(  63) = (   0.4826969   0.7993259   0.7675262  )
        64           Si  tau(  64) = (   0.6085726   0.9281720   0.9135080  )

     number of k points=     1  Fermi-Dirac smearing, width (Ry)=  0.0100
                       cart. coord. in units 2pi/alat
        k(    1) = (   0.0000000   0.0000000   0.0000000), wk =   2.0000000

     Dense  grid:    96915 G-vectors     FFT dimensions: (  72,  75,  75)

     Estimated max dynamical RAM per process >     155.73 MB

     Estimated total dynamical RAM >     599.26 MB

     Initial potential from superposition of free atoms

     starting charge     255.9608, renormalised to     256.0000
     Starting wfcs are  256 randomized atomic wfcs

     total cpu time spent up to now is        5.0 secs

     Self-consistent Calculation

     iteration #  1     ecut=    30.00 Ry     beta= 0.50
     Davidson diagonalization with overlap
     ethr =  1.00E-02,  avg # of iterations =  3.0

     Threshold (ethr) on eigenvalues was too large:
     Diagonalizing with lowered threshold

     Davidson diagonalization with overlap
     ethr =  7.54E-04,  avg # of iterations =  4.0

     total cpu time spent up to now is        5.3 secs

     total energy              =    -501.99853061 Ry
     estimated scf accuracy    <       2.22408346 Ry

     iteration #  2     ecut=    30.00 Ry     beta= 0.50
     Davidson diagonalization with overlap
     ethr =  8.69E-04,  avg # of iterations =  4.0

     total cpu time spent up to now is        5.5 secs

     total energy              =    -501.79134696 Ry
     estimated scf accuracy    <       1.64963888 Ry

     iteration #  3     ecut=    30.00 Ry     beta= 0.50
     Davidson diagonalization with overlap
     ethr =  6.44E-04,  avg # of iterations =  8.0

     total cpu time spent up to now is        5.6 secs

     total energy              =    -501.86138014 Ry
     estimated scf accuracy    <       2.62722842 Ry

     iteration #  4     ecut=    30.00 Ry     beta= 0.50
     Davidson diagonalization with overlap
     ethr =  6.44E-04,  avg # of iterations =  3.0

     total cpu time spent up to now is        5.7 secs

     total energy              =    -502.16714428 Ry
     estimated scf accuracy    <       0.27736404 Ry

     iteration #  5     ecut=    30.00 Ry     beta= 0.50
     Davidson diagonalization with overlap
     ethr =  1.08E-04,  avg # of iterations = 15.0

     total cpu time spent up to now is        5.9 secs

     total energy              =    -502.19804505 Ry
     estimated scf accuracy    <       0.11755448 Ry

     iteration #  6     ecut=    30.00 Ry     beta= 0.50
     Davidson diagonalization with overlap
     ethr =  4.59E-05,  avg # of iterations =  3.0

     total cpu time spent up to now is        6.0 secs

     total energy              =    -502.20883705 Ry
     estimated scf accuracy    <       0.02909531 Ry

     iteration #  7     ecut=    30.00 Ry     beta= 0.50
     Davidson diagonalization with overlap
     ethr =  1.14E-05,  avg # of iterations = 11.0

     total cpu time spent up to now is        6.2 secs

     total energy              =    -502.21145304 Ry
     estimated scf accuracy    <       0.00421805 Ry

     iteration #  8     ecut=    30.00 Ry     beta= 0.50
     Davidson diagonalization with overlap
     ethr =  1.65E-06,  avg # of iterations =  9.0

     total cpu time spent up to now is        6.4 secs

     total energy              =    -502.21219010 Ry
     estimated scf accuracy    <       0.00326816 Ry

     iteration #  9     ecut=    30.00 Ry     beta= 0.50
     Davidson diagonalization with overlap
     ethr =  1.28E-06,  avg # of iterations =  3.0

     total cpu time spent up to now is        6.5 secs

     total energy              =    -502.21250985 Ry
     estimated scf accuracy    <       0.00085869 Ry

     iteration # 10     ecut=    30.00 Ry     beta= 0.50
     Davidson diagonalization with overlap
     ethr =  3.35E-07,  avg # of iterations =  2.0

     total cpu time spent up to now is        6.6 secs

     total energy              =    -502.21255691 Ry
     estimated scf accuracy    <       0.00015588 Ry

     iteration # 11     ecut=    30.00 Ry     beta= 0.50
     Davidson diagonalization with overlap
     ethr =  6.09E-08,  avg # of iterations =  5.0

     total cpu time spent up to now is        6.7 secs

     total energy              =    -502.21257922 Ry
     estimated scf accuracy    <       0.00003781 Ry

     iteration # 12     ecut=    30.00 Ry     beta= 0.50
     Davidson diagonalization with overlap
     ethr =  1.48E-08,  avg # of iterations =  4.0

     total cpu time spent up to now is        6.8 secs

     total energy              =    -502.21258634 Ry
     estimated scf accuracy    <       0.00001893 Ry

     iteration # 13     ecut=    30.00 Ry     beta= 0.50
     Davidson diagonalization with overlap
     ethr =  7.39E-09,  avg # of iterations =  2.0

     total cpu time spent up to now is        6.9 secs

     total energy              =    -502.21258776 Ry
     estimated scf accuracy    <       0.00000424 Ry

     iteration # 14     ecut=    30.00 Ry     beta= 0.50
     Davidson diagonalization with overlap
     ethr =  1.66E-09,  avg # of iterations =  4.0

     total cpu time spent up to now is        7.0 secs

     End of self-consistent calculation

          k = 0.0000 0.0000 0.0000 ( 12088 PWs)   bands (ev):

    -6.1830  -5.3675  -5.2758  -5.1449  -5.0374  -4.9217  -4.7948  -4.5020
    -4.4063  -4.2363  -4.1686  -3.9938  -3.9817  -3.8686  -3.8515  -3.8244
    -3.8030  -3.6872  -3.6292  -3.5112  -3.4435  -3.2520  -2.9856  -2.3800
    -2.2292  -2.0724  -2.0546  -2.0413  -1.9101  -1.7815  -1.7578  -1.7380
    -1.6619  -1.6012  -1.5378  -1.4040  -1.3651  -1.3446  -1.3121  -1.1576
    -1.0800  -0.8906  -0.8033  -0.6483  -0.5143   0.1443   0.1899   0.2570
     0.3255   0.4177   0.5108   0.6305   0.7248   0.7806   0.8260   1.0255
     1.1456   1.7081   1.8028   1.8206   1.8601   1.9209   1.9635   1.9933
     2.0095   2.1121   2.1422   2.1661   2.2338   2.2506   2.2539   2.2884
     2.3363   2.3926   2.4319   2.4917   2.5252   2.5537   2.5940   2.6414
     2.6681   2.7329   2.8311   2.8912   2.9243   2.9695   3.0524   3.0891
     3.2069   3.3167   3.3280   3.4189   3.4813   3.7409   3.8796   3.9421
     4.0601   4.1111   4.1177   4.1937   4.2213   4.2655   4.3169   4.3678
     4.4036   4.4597   4.5302   4.6335   4.6695   4.7042   4.7461   4.7842
     4.8295   4.8642   4.9248   5.0205   5.0457   5.1052   5.1757   5.2043
     5.2856   5.4210   5.5447   5.6812   5.9431   6.0134   6.1201   6.3737
     6.5541   6.5772   6.6156   6.6589   6.7272   6.8157   6.8655   6.9736
     7.0571   7.1058   7.2121   7.2604   7.3256   7.3574   7.4155   7.5655
     7.7596   7.8165   7.9346   8.0598   8.1267   8.2229   8.2856   8.3246
     8.3536   8.4284

     the Fermi energy is     6.3669 ev

!    total energy              =    -502.21258784 Ry
     estimated scf accuracy    <       0.00000070 Ry
     smearing contrib. (-TS)   =      -0.07980707 Ry
     internal energy E=F+TS    =    -502.13278077 Ry

     The total energy is F=E-TS. E is the sum of the following terms:
     one-electron contribution =     134.09576015 Ry
     hartree contribution      =      43.03815842 Ry
     xc contribution           =    -153.96489496 Ry
     ewald contribution        =    -525.30180438 Ry

     convergence has been achieved in  14 iterations

     Forces acting on atoms (cartesian axes, Ry/au):

     atom    1 type  1   force =    -0.04295979    0.00207986   -0.05043024
     atom    2 type  1   force =    -0.06864562    0.04099736    0.06173893
     atom    3 type  1   force =     0.01586834   -0.09167847    0.04827362
     atom    4 type  1   force =    -0.05147271    0.00942751   -0.04797340
     atom    5 type  1   force =     0.01942798   -0.03817137   -0.10589941
     atom    6 type  1   force =    -0.12561077   -0.11544447   -0.12630327
     atom    7 type  1   force =     0.17087824    0.10874963   -0.12932457
     atom    8 type  1   force =     0.09035339    0.16861883    0.07652784
     atom    9 type  1   force =    -0.00982072   -0.09764184   -0.03429100
     atom   10 type  1   force =    -0.09108822   -0.02147889    0.00198360
     atom   11 type  1   force =    -0.00719974   -0.03648643   -0.08819822
     atom   12 type  1   force =     0.17571859   -0.00113495   -0.00388491
     atom   13 type  1   force =     0.00563795    0.02905487   -0.16699566
     atom   14 type  1   force =     0.02581827    0.02740339   -0.01476222
     atom   15 type  1   force =    -0.04151807    0.03571593   -0.04194643
     atom   16 type  1   force =     0.05440939   -0.06339644   -0.01611253
     atom   17 type  1   force =     0.03140518    0.02177504    0.01624856
     atom   18 type  1   force =    -0.07922394   -0.02095942   -0.06578868
     atom   19 type  1   force =    -0.12290534    0.07978618    0.06068688
     atom   20 type  1   force =    -0.06840968    0.08879426    0.05259250
     atom   21 type  1   force =    -0.01194209    0.06567805   -0.05368368
     atom   22 type  1   force =    -0.11166827   -0.09371270   -0.04428451
     atom   23 type  1   force =     0.01365173   -0.01578171   -0.04578556
     atom   24 type  1   force =     0.03014776    0.06156539    0.04662292
     atom   25 type  1   force =     0.00383887    0.00484148   -0.04360864
     atom   26 type  1   force =    -0.13477088    0.13019101    0.14069631
     atom   27 type  1   force =     0.06005296   -0.04270087   -0.00510201
     atom   28 type  1   force =     0.00333488   -0.26908144    0.02329660
     atom   29 type  1   force =    -0.06816748   -0.04920835   -0.05457147
     atom   30 type  1   force =     0.10074574   -0.07333769   -0.15981183
     atom   31 type  1   force =     0.24201834   -0.23122973   -0.18042995
     atom   32 type  1   force =    -0.22795976    0.11607680    0.17309126
     atom   33 type  1   force =    -0.10336572   -0.10210843    0.09328798
     atom   34 type  1   force =     0.07252355   -0.09124294    0.12277404
     atom   35 type  1   force =     0.07925252   -0.12010436   -0.11884875
     atom   36 type  1   force =    -0.02268031    0.01974700   -0.06434718
     atom   37 type  1   force =    -0.15475751    0.15768193   -0.15350248
     atom   38 type  1   force =    -0.04372232   -0.14332813    0.07724493
     atom   39 type  1   force =     0.12671878   -0.12338556    0.01460548
     atom   40 type  1   force =     0.12319360    0.06111981    0.10872297
     atom   41 type  1   force =     0.02523995    0.09127951   -0.05734564
     atom   42 type  1   force =     0.14251702    0.05025545    0.05176288
     atom   43 type  1   force =    -0.01677514    0.10730636   -0.02432007
     atom   44 type  1   force =    -0.05754328   -0.13208944   -0.08605642
     atom   45 type  1   force =     0.13445895    0.16635827    0.11152206
     atom   46 type  1   force =     0.08012717    0.17662752    0.04219892
     atom   47 type  1   force =    -0.09150116   -0.02415050   -0.00914213
     atom   48 type  1   force =     0.03637031    0.07441821    0.10730654
     atom   49 type  1   force =    -0.13239575   -0.03220838   -0.01279095
     atom   50 type  1   force =    -0.02100711    0.03922893    0.00902001
     atom   51 type  1   force =     0.03003657   -0.04070409    0.00871045
     atom   52 type  1   force =    -0.15859910    0.10972016    0.09894786
     atom   53 type  1   force =     0.07177049   -0.09516427    0.08785627
     atom   54 type  1   force =     0.09862981   -0.06392636   -0.05820283
     atom   55 type  1   force =    -0.02784579   -0.02510836    0.17079481
     atom   56 type  1   force =     0.02981382    0.12567012   -0.01666369
     atom   57 type  1   force =    -0.00564817   -0.02244544    0.10721878
     atom   58 type  1   force =     0.07763954   -0.09222895   -0.05517993
     atom   59 type  1   force =    -0.00010531    0.11845683   -0.03925104
     atom   60 type  1   force =    -0.01389220   -0.00076243    0.06918768
     atom   61 type  1   force =    -0.16525043    0.04126475    0.00957323
     atom   62 type  1   force =     0.05263554    0.06124219    0.13279695
     atom   63 type  1   force =     0.05151265   -0.04549417    0.07356687
     atom   64 type  1   force =     0.00270448    0.02476397   -0.02401837

     Total force =     1.243812     Total SCF correction =     0.001601


     Computing stress (Cartesian axis) and pressure

          total   stress  (Ry/bohr**3)                   (kbar)     P=       63.94
   0.00047665   0.00001386   0.00004443           70.12        2.04        6.54
   0.00001386   0.00039909   0.00031097            2.04       58.71       45.74
   0.00004443   0.00031097   0.00042824            6.54       45.74       63.00

 
     init_run     :      1.09s CPU      4.98s WALL (       1 calls)
     electrons    :      1.86s CPU      1.99s WALL (       1 calls)
     forces       :      0.04s CPU      0.04s WALL (       1 calls)
     stress       :      0.16s CPU      0.17s WALL (       1 calls)

     Called by init_run:
     wfcinit      :      0.54s CPU      4.25s WALL (       1 calls)
                                        4.25s GPU  (       1 calls)
     potinit      :      0.20s CPU      0.30s WALL (       1 calls)
     hinit0       :      0.32s CPU      0.35s WALL (       1 calls)

     Called by electrons:
     c_bands      :      1.19s CPU      1.25s WALL (      15 calls)
     sum_band     :      0.35s CPU      0.39s WALL (      15 calls)
     v_of_rho     :      0.16s CPU      0.27s WALL (      15 calls)
     mix_rho      :      0.14s CPU      0.16s WALL (      15 calls)

     Called by c_bands:
     init_us_2    :      0.05s CPU      0.06s WALL (      31 calls)
     init_us_2:gp :      0.05s CPU      0.06s WALL (      31 calls)
     regterg      :      1.05s CPU      1.10s WALL (      15 calls)

     Called by *egterg:
     rdiaghg      :      0.45s CPU      1.20s WALL (      94 calls)
                                        1.18s GPU  (      94 calls)
     h_psi        :      0.97s CPU      3.96s WALL (      96 calls)
                                        3.96s GPU  (      96 calls)
     g_psi        :      0.00s CPU      0.00s WALL (      80 calls)
                                        0.00s GPU  (      80 calls)

     Called by h_psi:
     h_psi:calbec :      0.49s CPU      3.39s WALL (      96 calls)
                                        3.39s GPU  (      96 calls)
     vloc_psi     :      0.42s CPU      0.50s WALL (      96 calls)
                                        0.49s GPU  (      96 calls)
     add_vuspsi   :      0.04s CPU      0.06s WALL (      96 calls)
                                        0.06s GPU  (      96 calls)

     General routines
     calbec       :      0.49s CPU      3.40s WALL (     101 calls)
     fft          :      0.43s CPU      0.56s WALL (     127 calls)
                                        0.14s GPU  (      81 calls)
     ffts         :      0.04s CPU      0.05s WALL (      15 calls)
     fftw         :      0.48s CPU      0.64s WALL (    1639 calls)
                                        0.57s GPU  (    1639 calls)
 
     Parallel routines
 
     PWSCF        :      3.19s CPU      7.27s WALL

 
   This run was terminated on:  11:38:40  10May2023            

=------------------------------------------------------------------------------=
   JOB DONE.
=------------------------------------------------------------------------------=
