
     Program PWSCF v.7.0 starts on  8Jul2023 at 21:38:29 

     This program is part of the open-source Quantum ESPRESSO suite
     for quantum simulation of materials; please cite
         "P. Giannozzi et al., J. Phys.:Condens. Matter 21 395502 (2009);
         "P. Giannozzi et al., J. Phys.:Condens. Matter 29 465901 (2017);
         "P. Giannozzi et al., J. Chem. Phys. 152 154105 (2020);
          URL http://www.quantum-espresso.org", 
     in publications or presentations arising from this work. More details at
     http://www.quantum-espresso.org/quote

     Parallel version (MPI & OpenMP), running on      36 processor cores
     Number of MPI processes:                 6
     Threads/MPI process:                     6

     MPI processes distributed on     1 nodes
     R & G space division:  proc/nbgrp/npool/nimage =       6
     107954 MiB available memory on the printing compute node when the environment starts
 
     Reading input from pw-si-333.in
Warning: card &CELL ignored
Warning: card / ignored

     Current dimensions of program PWSCF are:
     Max number of different atomic species (ntypx) = 10
     Max number of k-points (npk) =  40000
     Max angular momentum in pseudopotentials (lmaxx) =  4

     IMPORTANT: XC functional enforced from input :
     Exchange-correlation= PBE
                           (   1   4   3   4   0   0   0)
     Any further DFT definition will be discarded
     Please, verify this is what you really want

     Found identity + (  0.0000  0.5000 -0.5000) symmetry
     This is a supercell, fractional translations are disabled
     Message from routine setup:
     using ibrav=0 with symmetry is DISCOURAGED, use correct ibrav instead

     Subspace diagonalization in iterative solution of the eigenvalue problem:
     a serial algorithm will be used

 
     Parallelization info
     --------------------
     sticks:   dense  smooth     PW     G-vecs:    dense   smooth      PW
     Min         225     225     66                 6197     6197     981
     Max         226     226     67                 6200     6200     982
     Sum        1353    1353    401                37193    37193    5887
 
     Using Slab Decomposition
 


     bravais-lattice index     =            0
     lattice parameter (alat)  =      10.2871  a.u.
     unit-cell volume          =    1088.6285 (a.u.)^3
     number of atoms/cell      =            8
     number of atomic types    =            1
     number of electrons       =        32.00
     number of Kohn-Sham states=           16
     kinetic-energy cutoff     =      40.0000  Ry
     charge density cutoff     =     160.0000  Ry
     scf convergence threshold =      1.0E-06
     mixing beta               =       0.5000
     number of iterations used =            8  plain     mixing
     Exchange-correlation= PBE
                           (   1   4   3   4   0   0   0)

     GPU acceleration is ACTIVE.

     Message from routine print_cuda_info:
     High GPU oversubscription detected. Are you sure this is what you want?

     celldm(1)=  10.287107  celldm(2)=   0.000000  celldm(3)=   0.000000
     celldm(4)=   0.000000  celldm(5)=   0.000000  celldm(6)=   0.000000

     crystal axes: (cart. coord. in units of alat)
               a(1) = (   1.000000   0.000000   0.000000 )  
               a(2) = (   0.000000   1.000000   0.000000 )  
               a(3) = (   0.000000   0.000000   1.000000 )  

     reciprocal axes: (cart. coord. in units 2 pi/alat)
               b(1) = (  1.000000  0.000000  0.000000 )  
               b(2) = (  0.000000  1.000000  0.000000 )  
               b(3) = (  0.000000  0.000000  1.000000 )  


     PseudoPot. # 1 for Si read from file:
     ./Si_ONCV_PBE-1.0.upf
     MD5 check sum: 2de5a83d12544a9ea852f39b88f19b1f
     Pseudo is Norm-conserving, Zval =  4.0
     Generated using ONCVPSP code by D. R. Hamann
     Using radial grid of  602 points,  4 beta functions with: 
                l(1) =   0
                l(2) =   0
                l(3) =   1
                l(4) =   1

     atomic species   valence    mass     pseudopotential
        Si             4.00    28.08500     Si( 1.00)

     24 Sym. Ops. (no inversion) found



   Cartesian axes

     site n.     atom                  positions (alat units)
         1           Si  tau(   1) = (   0.7500000   0.7500000   0.2500000  )
         2           Si  tau(   2) = (   0.0000000   0.5000000   0.5000000  )
         3           Si  tau(   3) = (   0.7500000   0.2500000   0.7500000  )
         4           Si  tau(   4) = (   0.0000000   0.0000000   0.0000000  )
         5           Si  tau(   5) = (   0.2500000   0.7500000   0.7500000  )
         6           Si  tau(   6) = (   0.5000000   0.5000000   0.0000000  )
         7           Si  tau(   7) = (   0.2500000   0.2500000   0.2500000  )
         8           Si  tau(   8) = (   0.5000000   0.0000000   0.5000000  )

     number of k points=     4
                       cart. coord. in units 2pi/alat
        k(    1) = (   0.1666667   0.1666667   0.1666667), wk =   0.5925926
        k(    2) = (   0.1666667   0.1666667  -0.5000000), wk =   0.8888889
        k(    3) = (   0.1666667  -0.5000000  -0.5000000), wk =   0.4444444
        k(    4) = (  -0.5000000  -0.5000000  -0.5000000), wk =   0.0740741

     Dense  grid:    37193 G-vectors     FFT dimensions: (  45,  45,  45)

     Estimated max dynamical RAM per process >       6.50 MB

     Estimated total dynamical RAM >      39.01 MB

     Initial potential from superposition of free atoms

     starting charge      31.6302, renormalised to      32.0000
     Starting wfcs are random

     total cpu time spent up to now is        1.5 secs

     Self-consistent Calculation

     iteration #  1     ecut=    40.00 Ry     beta= 0.50
     Davidson diagonalization with overlap
     ethr =  1.00E-02,  avg # of iterations =  9.5

     Threshold (ethr) on eigenvalues was too large:
     Diagonalizing with lowered threshold

     Davidson diagonalization with overlap
     ethr =  6.14E-04,  avg # of iterations =  4.3

     total cpu time spent up to now is        3.2 secs

     total energy              =     -63.04787239 Ry
     estimated scf accuracy    <       0.21098362 Ry

     iteration #  2     ecut=    40.00 Ry     beta= 0.50
     Davidson diagonalization with overlap
     ethr =  6.59E-04,  avg # of iterations =  1.0

     total cpu time spent up to now is        3.5 secs

     total energy              =     -63.04732265 Ry
     estimated scf accuracy    <       0.03911687 Ry

     iteration #  3     ecut=    40.00 Ry     beta= 0.50
     Davidson diagonalization with overlap
     ethr =  1.22E-04,  avg # of iterations =  2.5

     total cpu time spent up to now is        4.0 secs

     total energy              =     -63.05059393 Ry
     estimated scf accuracy    <       0.00055970 Ry

     iteration #  4     ecut=    40.00 Ry     beta= 0.50
     Davidson diagonalization with overlap
     ethr =  1.75E-06,  avg # of iterations =  6.0

     total cpu time spent up to now is        4.9 secs

     total energy              =     -63.05129463 Ry
     estimated scf accuracy    <       0.00000272 Ry

     iteration #  5     ecut=    40.00 Ry     beta= 0.50
     Davidson diagonalization with overlap
     ethr =  8.49E-09,  avg # of iterations =  6.3

     total cpu time spent up to now is        5.7 secs

     End of self-consistent calculation

          k = 0.1667 0.1667 0.1667 (  4638 PWs)   bands (ev):

    -5.3955  -2.7080  -2.7080  -2.7078  -0.3950  -0.3950  -0.3949   2.5565
     2.5565   2.5566   3.6259   3.6260   3.6260   3.7796   5.7098   5.7098

          k = 0.1667 0.1667-0.5000 (  4656 PWs)   bands (ev):

    -4.4640  -4.4638  -2.5057  -2.5056  -0.6668  -0.6668   1.7295   1.7296
     2.1786   2.1787   3.4210   3.4210   4.1755   4.1756   4.4270   4.4272

          k = 0.1667-0.5000-0.5000 (  4664 PWs)   bands (ev):

    -3.6644  -3.6644  -3.6644  -3.6640   0.1721   0.1722   0.1722   0.1722
     3.1296   3.1297   3.1297   3.1298   4.8712   4.8713   4.8714   4.8714

          k =-0.5000-0.5000-0.5000 (  4680 PWs)   bands (ev):

    -3.4428  -3.4428  -3.4428  -3.4425  -0.7785  -0.7784  -0.7784  -0.7784
     4.9685   4.9685   4.9686   4.9686   4.9686   4.9688   4.9688   4.9688

     highest occupied level (ev):     5.7098

!    total energy              =     -63.05130315 Ry
     estimated scf accuracy    <       0.00000017 Ry

     The total energy is the sum of the following terms:
     one-electron contribution =      18.77641834 Ry
     hartree contribution      =       4.43890377 Ry
     xc contribution           =     -19.23998914 Ry
     ewald contribution        =     -67.02663612 Ry

     convergence has been achieved in   5 iterations

     Forces acting on atoms (cartesian axes, Ry/au):

     atom    1 type  1   force =     0.00000194    0.00000194   -0.00000194
     atom    2 type  1   force =     0.00000000    0.00000000    0.00000000
     atom    3 type  1   force =     0.00000194   -0.00000194    0.00000194
     atom    4 type  1   force =     0.00000000    0.00000000    0.00000000
     atom    5 type  1   force =    -0.00000194    0.00000194    0.00000194
     atom    6 type  1   force =     0.00000000    0.00000000    0.00000000
     atom    7 type  1   force =    -0.00000194   -0.00000194   -0.00000194
     atom    8 type  1   force =     0.00000000    0.00000000    0.00000000

     Total force =     0.000007     Total SCF correction =     0.000190
     SCF correction compared to forces is large: reduce conv_thr to get better values


     Computing stress (Cartesian axis) and pressure

          total   stress  (Ry/bohr**3)                   (kbar)     P=       15.95
   0.00010839   0.00000000   0.00000000           15.95        0.00        0.00
   0.00000000   0.00010839   0.00000000            0.00       15.95        0.00
   0.00000000   0.00000000   0.00010839            0.00        0.00       15.95

 
     init_run     :      0.99s CPU      1.43s WALL (       1 calls)
     electrons    :      4.14s CPU      4.24s WALL (       1 calls)
     forces       :      0.10s CPU      0.11s WALL (       1 calls)
     stress       :      0.31s CPU      0.34s WALL (       1 calls)

     Called by init_run:
     wfcinit      :      0.64s CPU      0.99s WALL (       1 calls)
                                        0.99s GPU  (       1 calls)
     potinit      :      0.21s CPU      0.30s WALL (       1 calls)
     hinit0       :      0.08s CPU      0.08s WALL (       1 calls)

     Called by electrons:
     c_bands      :      3.47s CPU      3.51s WALL (       6 calls)
     sum_band     :      0.18s CPU      0.18s WALL (       6 calls)
     v_of_rho     :      0.64s CPU      0.76s WALL (       6 calls)
     mix_rho      :      0.01s CPU      0.01s WALL (       6 calls)

     Called by c_bands:
     init_us_2    :      0.03s CPU      0.03s WALL (      60 calls)
     init_us_2:gp :      0.02s CPU      0.02s WALL (      60 calls)
     cegterg      :      3.16s CPU      3.19s WALL (      24 calls)

     Called by *egterg:
     cdiaghg      :      0.24s CPU      0.31s WALL (     138 calls)
                                        0.28s GPU  (     138 calls)
     h_psi        :      2.12s CPU      2.50s WALL (     146 calls)
                                        2.44s GPU  (     146 calls)
     g_psi        :      0.00s CPU      0.08s WALL (     118 calls)
                                        0.00s GPU  (     118 calls)

     Called by h_psi:
     h_psi:calbec :      0.73s CPU      1.09s WALL (     146 calls)
                                        1.01s GPU  (     146 calls)
     vloc_psi     :      0.88s CPU      1.02s WALL (     146 calls)
                                        0.96s GPU  (     146 calls)
     add_vuspsi   :      0.11s CPU      0.23s WALL (     146 calls)
                                        0.13s GPU  (     146 calls)

     General routines
     calbec       :      0.68s CPU      0.96s WALL (     166 calls)
     fft          :      0.15s CPU      0.18s WALL (      68 calls)
                                        0.14s GPU  (      46 calls)
     ffts         :      0.00s CPU      0.00s WALL (       6 calls)
     fftw         :      0.67s CPU      0.98s WALL (     316 calls)
                                        0.69s GPU  (     316 calls)
 
     Parallel routines
 
     PWSCF        :      5.62s CPU      6.21s WALL

 
   This run was terminated on:  21:38:36   8Jul2023            

=------------------------------------------------------------------------------=
   JOB DONE.
=------------------------------------------------------------------------------=
