
     Program PWSCF v.7.0 starts on  8Jul2023 at 21:38:17 

     This program is part of the open-source Quantum ESPRESSO suite
     for quantum simulation of materials; please cite
         "P. Giannozzi et al., J. Phys.:Condens. Matter 21 395502 (2009);
         "P. Giannozzi et al., J. Phys.:Condens. Matter 29 465901 (2017);
         "P. Giannozzi et al., J. Chem. Phys. 152 154105 (2020);
          URL http://www.quantum-espresso.org", 
     in publications or presentations arising from this work. More details at
     http://www.quantum-espresso.org/quote

     Parallel version (MPI & OpenMP), running on      36 processor cores
     Number of MPI processes:                 6
     Threads/MPI process:                     6

     MPI processes distributed on     1 nodes
     R & G space division:  proc/nbgrp/npool/nimage =       6
     107954 MiB available memory on the printing compute node when the environment starts
 
     Reading input from pw-si-111.in
Warning: card &CELL ignored
Warning: card / ignored

     Current dimensions of program PWSCF are:
     Max number of different atomic species (ntypx) = 10
     Max number of k-points (npk) =  40000
     Max angular momentum in pseudopotentials (lmaxx) =  4

     IMPORTANT: XC functional enforced from input :
     Exchange-correlation= PBE
                           (   1   4   3   4   0   0   0)
     Any further DFT definition will be discarded
     Please, verify this is what you really want

     Found identity + (  0.0000  0.5000 -0.5000) symmetry
     This is a supercell, fractional translations are disabled
     Message from routine setup:
     using ibrav=0 with symmetry is DISCOURAGED, use correct ibrav instead

     Subspace diagonalization in iterative solution of the eigenvalue problem:
     a serial algorithm will be used

 
     Parallelization info
     --------------------
     sticks:   dense  smooth     PW     G-vecs:    dense   smooth      PW
     Min         225     225     66                 6197     6197     981
     Max         226     226     67                 6200     6200     982
     Sum        1353    1353    401                37193    37193    5887
 
     Using Slab Decomposition
 


     bravais-lattice index     =            0
     lattice parameter (alat)  =      10.2871  a.u.
     unit-cell volume          =    1088.6285 (a.u.)^3
     number of atoms/cell      =            8
     number of atomic types    =            1
     number of electrons       =        32.00
     number of Kohn-Sham states=           16
     kinetic-energy cutoff     =      40.0000  Ry
     charge density cutoff     =     160.0000  Ry
     scf convergence threshold =      1.0E-06
     mixing beta               =       0.5000
     number of iterations used =            8  plain     mixing
     Exchange-correlation= PBE
                           (   1   4   3   4   0   0   0)

     GPU acceleration is ACTIVE.

     Message from routine print_cuda_info:
     High GPU oversubscription detected. Are you sure this is what you want?

     celldm(1)=  10.287107  celldm(2)=   0.000000  celldm(3)=   0.000000
     celldm(4)=   0.000000  celldm(5)=   0.000000  celldm(6)=   0.000000

     crystal axes: (cart. coord. in units of alat)
               a(1) = (   1.000000   0.000000   0.000000 )  
               a(2) = (   0.000000   1.000000   0.000000 )  
               a(3) = (   0.000000   0.000000   1.000000 )  

     reciprocal axes: (cart. coord. in units 2 pi/alat)
               b(1) = (  1.000000  0.000000  0.000000 )  
               b(2) = (  0.000000  1.000000  0.000000 )  
               b(3) = (  0.000000  0.000000  1.000000 )  


     PseudoPot. # 1 for Si read from file:
     ./Si_ONCV_PBE-1.0.upf
     MD5 check sum: 2de5a83d12544a9ea852f39b88f19b1f
     Pseudo is Norm-conserving, Zval =  4.0
     Generated using ONCVPSP code by D. R. Hamann
     Using radial grid of  602 points,  4 beta functions with: 
                l(1) =   0
                l(2) =   0
                l(3) =   1
                l(4) =   1

     atomic species   valence    mass     pseudopotential
        Si             4.00    28.08500     Si( 1.00)

     24 Sym. Ops. (no inversion) found



   Cartesian axes

     site n.     atom                  positions (alat units)
         1           Si  tau(   1) = (   0.7500000   0.7500000   0.2500000  )
         2           Si  tau(   2) = (   0.0000000   0.5000000   0.5000000  )
         3           Si  tau(   3) = (   0.7500000   0.2500000   0.7500000  )
         4           Si  tau(   4) = (   0.0000000   0.0000000   0.0000000  )
         5           Si  tau(   5) = (   0.2500000   0.7500000   0.7500000  )
         6           Si  tau(   6) = (   0.5000000   0.5000000   0.0000000  )
         7           Si  tau(   7) = (   0.2500000   0.2500000   0.2500000  )
         8           Si  tau(   8) = (   0.5000000   0.0000000   0.5000000  )

     number of k points=     1
                       cart. coord. in units 2pi/alat
        k(    1) = (  -0.5000000  -0.5000000  -0.5000000), wk =   2.0000000

     Dense  grid:    37193 G-vectors     FFT dimensions: (  45,  45,  45)

     Estimated max dynamical RAM per process >       5.75 MB

     Estimated total dynamical RAM >      34.47 MB

     Initial potential from superposition of free atoms

     starting charge      31.6302, renormalised to      32.0000
     Starting wfcs are random

     total cpu time spent up to now is        1.5 secs

     Self-consistent Calculation

     iteration #  1     ecut=    40.00 Ry     beta= 0.50
     Davidson diagonalization with overlap
     ethr =  1.00E-02,  avg # of iterations = 11.0

     total cpu time spent up to now is        1.8 secs

     total energy              =     -62.22355886 Ry
     estimated scf accuracy    <       0.37213333 Ry

     iteration #  2     ecut=    40.00 Ry     beta= 0.50
     Davidson diagonalization with overlap
     ethr =  1.16E-03,  avg # of iterations =  3.0

     total cpu time spent up to now is        2.1 secs

     total energy              =     -62.29126316 Ry
     estimated scf accuracy    <       0.07533881 Ry

     iteration #  3     ecut=    40.00 Ry     beta= 0.50
     Davidson diagonalization with overlap
     ethr =  2.35E-04,  avg # of iterations =  4.0

     total cpu time spent up to now is        2.3 secs

     total energy              =     -62.30641383 Ry
     estimated scf accuracy    <       0.00111961 Ry

     iteration #  4     ecut=    40.00 Ry     beta= 0.50
     Davidson diagonalization with overlap
     ethr =  3.50E-06,  avg # of iterations =  6.0

     total cpu time spent up to now is        2.6 secs

     total energy              =     -62.30944733 Ry
     estimated scf accuracy    <       0.00029116 Ry

     iteration #  5     ecut=    40.00 Ry     beta= 0.50
     Davidson diagonalization with overlap
     ethr =  9.10E-07,  avg # of iterations =  2.0

     total cpu time spent up to now is        2.8 secs

     total energy              =     -62.30950990 Ry
     estimated scf accuracy    <       0.00002349 Ry

     iteration #  6     ecut=    40.00 Ry     beta= 0.50
     Davidson diagonalization with overlap
     ethr =  7.34E-08,  avg # of iterations =  4.0

     total cpu time spent up to now is        3.0 secs

     total energy              =     -62.30951377 Ry
     estimated scf accuracy    <       0.00000598 Ry

     iteration #  7     ecut=    40.00 Ry     beta= 0.50
     Davidson diagonalization with overlap
     ethr =  1.87E-08,  avg # of iterations =  3.0

     total cpu time spent up to now is        3.2 secs

     End of self-consistent calculation

          k =-0.5000-0.5000-0.5000 (  4680 PWs)   bands (ev):

    -3.2068  -3.2042  -3.2042  -3.2042  -0.5743  -0.5743  -0.5743  -0.5736
     5.2097   5.2097   5.2097   5.2113   5.2113   5.2113   5.2119   5.2119

     highest occupied level (ev):     5.2119

!    total energy              =     -62.30951574 Ry
     estimated scf accuracy    <       0.00000092 Ry

     The total energy is the sum of the following terms:
     one-electron contribution =      19.18820440 Ry
     hartree contribution      =       5.04473262 Ry
     xc contribution           =     -19.51581664 Ry
     ewald contribution        =     -67.02663612 Ry

     convergence has been achieved in   7 iterations

     Forces acting on atoms (cartesian axes, Ry/au):

     atom    1 type  1   force =    -0.00002482   -0.00002482    0.00002482
     atom    2 type  1   force =     0.00000000    0.00000000    0.00000000
     atom    3 type  1   force =    -0.00002482    0.00002482   -0.00002482
     atom    4 type  1   force =     0.00000000    0.00000000    0.00000000
     atom    5 type  1   force =     0.00002482   -0.00002482   -0.00002482
     atom    6 type  1   force =     0.00000000    0.00000000    0.00000000
     atom    7 type  1   force =     0.00002482    0.00002482    0.00002482
     atom    8 type  1   force =     0.00000000    0.00000000    0.00000000

     Total force =     0.000086     Total SCF correction =     0.001196
     SCF correction compared to forces is large: reduce conv_thr to get better values


     Computing stress (Cartesian axis) and pressure

          total   stress  (Ry/bohr**3)                   (kbar)     P=       81.02
   0.00055079   0.00000000   0.00000000           81.02        0.00        0.00
   0.00000000   0.00055079   0.00000000            0.00       81.02        0.00
   0.00000000   0.00000000   0.00055079            0.00        0.00       81.02

 
     init_run     :      0.90s CPU      1.41s WALL (       1 calls)
     electrons    :      1.57s CPU      1.77s WALL (       1 calls)
     forces       :      0.06s CPU      0.09s WALL (       1 calls)
     stress       :      0.14s CPU      0.17s WALL (       1 calls)

     Called by init_run:
     wfcinit      :      0.61s CPU      0.96s WALL (       1 calls)
                                        0.96s GPU  (       1 calls)
     potinit      :      0.15s CPU      0.28s WALL (       1 calls)
     hinit0       :      0.09s CPU      0.11s WALL (       1 calls)

     Called by electrons:
     c_bands      :      0.98s CPU      0.98s WALL (       7 calls)
     sum_band     :      0.06s CPU      0.07s WALL (       7 calls)
     v_of_rho     :      0.63s CPU      0.89s WALL (       8 calls)
     mix_rho      :      0.01s CPU      0.01s WALL (       7 calls)

     Called by c_bands:
     init_us_2    :      0.01s CPU      0.01s WALL (      15 calls)
     init_us_2:gp :      0.00s CPU      0.00s WALL (      15 calls)
     cegterg      :      0.89s CPU      0.90s WALL (       7 calls)

     Called by *egterg:
     cdiaghg      :      0.14s CPU      0.20s WALL (      40 calls)
                                        0.19s GPU  (      40 calls)
     h_psi        :      0.96s CPU      1.28s WALL (      41 calls)
                                        1.26s GPU  (      41 calls)
     g_psi        :      0.00s CPU      0.02s WALL (      33 calls)
                                        0.00s GPU  (      33 calls)

     Called by h_psi:
     h_psi:calbec :      0.57s CPU      0.87s WALL (      41 calls)
                                        0.85s GPU  (      41 calls)
     vloc_psi     :      0.25s CPU      0.29s WALL (      41 calls)
                                        0.27s GPU  (      41 calls)
     add_vuspsi   :      0.03s CPU      0.06s WALL (      41 calls)
                                        0.03s GPU  (      41 calls)

     General routines
     calbec       :      0.55s CPU      0.84s WALL (      46 calls)
     fft          :      0.19s CPU      0.26s WALL (      87 calls)
                                        0.16s GPU  (      60 calls)
     ffts         :      0.00s CPU      0.00s WALL (       7 calls)
     fftw         :      0.19s CPU      0.28s WALL (      89 calls)
                                        0.19s GPU  (      89 calls)
 
     Parallel routines
 
     PWSCF        :      2.76s CPU      3.54s WALL

 
   This run was terminated on:  21:38:21   8Jul2023            

=------------------------------------------------------------------------------=
   JOB DONE.
=------------------------------------------------------------------------------=
