
     Program PWSCF v.7.0 starts on  8Jul2023 at 21:38:23 

     This program is part of the open-source Quantum ESPRESSO suite
     for quantum simulation of materials; please cite
         "P. Giannozzi et al., J. Phys.:Condens. Matter 21 395502 (2009);
         "P. Giannozzi et al., J. Phys.:Condens. Matter 29 465901 (2017);
         "P. Giannozzi et al., J. Chem. Phys. 152 154105 (2020);
          URL http://www.quantum-espresso.org", 
     in publications or presentations arising from this work. More details at
     http://www.quantum-espresso.org/quote

     Parallel version (MPI & OpenMP), running on      36 processor cores
     Number of MPI processes:                 6
     Threads/MPI process:                     6

     MPI processes distributed on     1 nodes
     R & G space division:  proc/nbgrp/npool/nimage =       6
     107967 MiB available memory on the printing compute node when the environment starts
 
     Reading input from pw-si-222.in
Warning: card &CELL ignored
Warning: card / ignored

     Current dimensions of program PWSCF are:
     Max number of different atomic species (ntypx) = 10
     Max number of k-points (npk) =  40000
     Max angular momentum in pseudopotentials (lmaxx) =  4

     IMPORTANT: XC functional enforced from input :
     Exchange-correlation= PBE
                           (   1   4   3   4   0   0   0)
     Any further DFT definition will be discarded
     Please, verify this is what you really want

     Found identity + (  0.0000  0.5000 -0.5000) symmetry
     This is a supercell, fractional translations are disabled
     Message from routine setup:
     using ibrav=0 with symmetry is DISCOURAGED, use correct ibrav instead

     Subspace diagonalization in iterative solution of the eigenvalue problem:
     a serial algorithm will be used

 
     Parallelization info
     --------------------
     sticks:   dense  smooth     PW     G-vecs:    dense   smooth      PW
     Min         225     225     60                 6197     6197     876
     Max         226     226     62                 6200     6200     877
     Sum        1353    1353    365                37193    37193    5257
 
     Using Slab Decomposition
 


     bravais-lattice index     =            0
     lattice parameter (alat)  =      10.2871  a.u.
     unit-cell volume          =    1088.6285 (a.u.)^3
     number of atoms/cell      =            8
     number of atomic types    =            1
     number of electrons       =        32.00
     number of Kohn-Sham states=           16
     kinetic-energy cutoff     =      40.0000  Ry
     charge density cutoff     =     160.0000  Ry
     scf convergence threshold =      1.0E-06
     mixing beta               =       0.5000
     number of iterations used =            8  plain     mixing
     Exchange-correlation= PBE
                           (   1   4   3   4   0   0   0)

     GPU acceleration is ACTIVE.

     Message from routine print_cuda_info:
     High GPU oversubscription detected. Are you sure this is what you want?

     celldm(1)=  10.287107  celldm(2)=   0.000000  celldm(3)=   0.000000
     celldm(4)=   0.000000  celldm(5)=   0.000000  celldm(6)=   0.000000

     crystal axes: (cart. coord. in units of alat)
               a(1) = (   1.000000   0.000000   0.000000 )  
               a(2) = (   0.000000   1.000000   0.000000 )  
               a(3) = (   0.000000   0.000000   1.000000 )  

     reciprocal axes: (cart. coord. in units 2 pi/alat)
               b(1) = (  1.000000  0.000000  0.000000 )  
               b(2) = (  0.000000  1.000000  0.000000 )  
               b(3) = (  0.000000  0.000000  1.000000 )  


     PseudoPot. # 1 for Si read from file:
     ./Si_ONCV_PBE-1.0.upf
     MD5 check sum: 2de5a83d12544a9ea852f39b88f19b1f
     Pseudo is Norm-conserving, Zval =  4.0
     Generated using ONCVPSP code by D. R. Hamann
     Using radial grid of  602 points,  4 beta functions with: 
                l(1) =   0
                l(2) =   0
                l(3) =   1
                l(4) =   1

     atomic species   valence    mass     pseudopotential
        Si             4.00    28.08500     Si( 1.00)

     24 Sym. Ops. (no inversion) found



   Cartesian axes

     site n.     atom                  positions (alat units)
         1           Si  tau(   1) = (   0.7500000   0.7500000   0.2500000  )
         2           Si  tau(   2) = (   0.0000000   0.5000000   0.5000000  )
         3           Si  tau(   3) = (   0.7500000   0.2500000   0.7500000  )
         4           Si  tau(   4) = (   0.0000000   0.0000000   0.0000000  )
         5           Si  tau(   5) = (   0.2500000   0.7500000   0.7500000  )
         6           Si  tau(   6) = (   0.5000000   0.5000000   0.0000000  )
         7           Si  tau(   7) = (   0.2500000   0.2500000   0.2500000  )
         8           Si  tau(   8) = (   0.5000000   0.0000000   0.5000000  )

     number of k points=     1
                       cart. coord. in units 2pi/alat
        k(    1) = (   0.2500000   0.2500000   0.2500000), wk =   2.0000000

     Dense  grid:    37193 G-vectors     FFT dimensions: (  45,  45,  45)

     Estimated max dynamical RAM per process >       5.75 MB

     Estimated total dynamical RAM >      34.47 MB

     Initial potential from superposition of free atoms

     starting charge      31.6302, renormalised to      32.0000
     Starting wfcs are random

     total cpu time spent up to now is        1.4 secs

     Self-consistent Calculation

     iteration #  1     ecut=    40.00 Ry     beta= 0.50
     Davidson diagonalization with overlap
     ethr =  1.00E-02,  avg # of iterations = 11.0

     Threshold (ethr) on eigenvalues was too large:
     Diagonalizing with lowered threshold

     Davidson diagonalization with overlap
     ethr =  6.68E-04,  avg # of iterations =  4.0

     total cpu time spent up to now is        2.0 secs

     total energy              =     -63.00435350 Ry
     estimated scf accuracy    <       0.22803946 Ry

     iteration #  2     ecut=    40.00 Ry     beta= 0.50
     Davidson diagonalization with overlap
     ethr =  7.13E-04,  avg # of iterations =  1.0

     total cpu time spent up to now is        2.1 secs

     total energy              =     -63.00408813 Ry
     estimated scf accuracy    <       0.04246803 Ry

     iteration #  3     ecut=    40.00 Ry     beta= 0.50
     Davidson diagonalization with overlap
     ethr =  1.33E-04,  avg # of iterations =  2.0

     total cpu time spent up to now is        2.3 secs

     total energy              =     -63.00789646 Ry
     estimated scf accuracy    <       0.00059016 Ry

     iteration #  4     ecut=    40.00 Ry     beta= 0.50
     Davidson diagonalization with overlap
     ethr =  1.84E-06,  avg # of iterations =  6.0

     total cpu time spent up to now is        2.6 secs

     total energy              =     -63.00869749 Ry
     estimated scf accuracy    <       0.00000860 Ry

     iteration #  5     ecut=    40.00 Ry     beta= 0.50
     Davidson diagonalization with overlap
     ethr =  2.69E-08,  avg # of iterations =  5.0

     total cpu time spent up to now is        2.9 secs

     total energy              =     -63.00870860 Ry
     estimated scf accuracy    <       0.00000109 Ry

     iteration #  6     ecut=    40.00 Ry     beta= 0.50
     Davidson diagonalization with overlap
     ethr =  3.39E-09,  avg # of iterations =  4.0

     total cpu time spent up to now is        3.1 secs

     End of self-consistent calculation

          k = 0.2500 0.2500 0.2500 (  4680 PWs)   bands (ev):

    -4.9351  -3.0302  -3.0301  -3.0301  -0.1811  -0.1811  -0.1811   2.2680
     2.6719   2.6720   2.6720   3.9966   3.9966   3.9967   5.4312   5.4312

     highest occupied level (ev):     5.4312

!    total energy              =     -63.00870892 Ry
     estimated scf accuracy    <       0.00000016 Ry

     The total energy is the sum of the following terms:
     one-electron contribution =      18.78176660 Ry
     hartree contribution      =       4.50706821 Ry
     xc contribution           =     -19.27090761 Ry
     ewald contribution        =     -67.02663612 Ry

     convergence has been achieved in   6 iterations

     Forces acting on atoms (cartesian axes, Ry/au):

     atom    1 type  1   force =     0.00001638    0.00001638   -0.00001638
     atom    2 type  1   force =     0.00000000    0.00000000    0.00000000
     atom    3 type  1   force =     0.00001638   -0.00001638    0.00001638
     atom    4 type  1   force =     0.00000000    0.00000000    0.00000000
     atom    5 type  1   force =    -0.00001638    0.00001638    0.00001638
     atom    6 type  1   force =     0.00000000    0.00000000    0.00000000
     atom    7 type  1   force =    -0.00001638   -0.00001638   -0.00001638
     atom    8 type  1   force =     0.00000000    0.00000000    0.00000000

     Total force =     0.000057     Total SCF correction =     0.000188
     SCF correction compared to forces is large: reduce conv_thr to get better values


     Computing stress (Cartesian axis) and pressure

          total   stress  (Ry/bohr**3)                   (kbar)     P=       19.68
   0.00013381   0.00000000   0.00000000           19.68        0.00        0.00
   0.00000000   0.00013381   0.00000000            0.00       19.68        0.00
   0.00000000   0.00000000   0.00013381            0.00        0.00       19.68

 
     init_run     :      0.93s CPU      1.40s WALL (       1 calls)
     electrons    :      1.64s CPU      1.67s WALL (       1 calls)
     forces       :      0.09s CPU      0.10s WALL (       1 calls)
     stress       :      0.15s CPU      0.15s WALL (       1 calls)

     Called by init_run:
     wfcinit      :      0.61s CPU      0.94s WALL (       1 calls)
                                        0.94s GPU  (       1 calls)
     potinit      :      0.22s CPU      0.30s WALL (       1 calls)
     hinit0       :      0.03s CPU      0.09s WALL (       1 calls)

     Called by electrons:
     c_bands      :      0.96s CPU      0.98s WALL (       7 calls)
     sum_band     :      0.07s CPU      0.07s WALL (       7 calls)
     v_of_rho     :      0.74s CPU      0.81s WALL (       7 calls)
     mix_rho      :      0.01s CPU      0.01s WALL (       7 calls)

     Called by c_bands:
     init_us_2    :      0.01s CPU      0.01s WALL (      15 calls)
     init_us_2:gp :      0.00s CPU      0.00s WALL (      15 calls)
     cegterg      :      0.88s CPU      0.89s WALL (       7 calls)

     Called by *egterg:
     cdiaghg      :      0.14s CPU      0.20s WALL (      39 calls)
                                        0.19s GPU  (      39 calls)
     h_psi        :      0.96s CPU      1.26s WALL (      41 calls)
                                        1.24s GPU  (      41 calls)
     g_psi        :      0.00s CPU      0.02s WALL (      33 calls)
                                        0.00s GPU  (      33 calls)

     Called by h_psi:
     h_psi:calbec :      0.57s CPU      0.86s WALL (      41 calls)
                                        0.84s GPU  (      41 calls)
     vloc_psi     :      0.25s CPU      0.29s WALL (      41 calls)
                                        0.27s GPU  (      41 calls)
     add_vuspsi   :      0.03s CPU      0.06s WALL (      41 calls)
                                        0.04s GPU  (      41 calls)

     General routines
     calbec       :      0.57s CPU      0.83s WALL (      46 calls)
     fft          :      0.16s CPU      0.23s WALL (      78 calls)
                                        0.15s GPU  (      53 calls)
     ffts         :      0.00s CPU      0.00s WALL (       7 calls)
     fftw         :      0.19s CPU      0.28s WALL (      89 calls)
                                        0.20s GPU  (      89 calls)
 
     Parallel routines
 
     PWSCF        :      2.87s CPU      3.41s WALL

 
   This run was terminated on:  21:38:27   8Jul2023            

=------------------------------------------------------------------------------=
   JOB DONE.
=------------------------------------------------------------------------------=
