10.654897892668009 0.0 0.0 0.0 10.654897892668009 0.0 0.0 0.0 10.654897892668009
10.653264322625821 0.0 0.0 0.0 10.653264322625821 0.0 0.0 0.0 10.653264322625821
10.64852130730735 0.0 0.0 0.0 10.64852130730735 0.0 0.0 0.0 10.64852130730735
10.641560510308667 0.0 0.0 0.0 10.641560510308667 0.0 0.0 0.0 10.641560510308667
10.633531304526318 0.0 0.0 0.0 10.633531304526318 0.0 0.0 0.0 10.633531304526318
10.625304186468044 0.0 0.0 0.0 10.625304186468044 0.0 0.0 0.0 10.625304186468044
10.617317844039574 0.0 0.0 0.0 10.617317844039574 0.0 0.0 0.0 10.617317844039574
10.60997233521042 0.0 0.0 0.0 10.60997233521042 0.0 0.0 0.0 10.60997233521042
10.604258808891826 0.0 0.0 0.0 10.604258808891826 0.0 0.0 0.0 10.604258808891826
10.601703412152686 0.0 0.0 0.0 10.601703412152686 0.0 0.0 0.0 10.601703412152686
10.603471922383005 0.0 0.0 0.0 10.603471922383005 0.0 0.0 0.0 10.603471922383005
10.609794531668413 0.0 0.0 0.0 10.609794531668413 0.0 0.0 0.0 10.609794531668413
10.62030557855794 0.0 0.0 0.0 10.62030557855794 0.0 0.0 0.0 10.62030557855794
10.634607650968109 0.0 0.0 0.0 10.634607650968109 0.0 0.0 0.0 10.634607650968109
10.65229434080291 0.0 0.0 0.0 10.65229434080291 0.0 0.0 0.0 10.65229434080291
10.673360885467465 0.0 0.0 0.0 10.673360885467465 0.0 0.0 0.0 10.673360885467465
10.698382500587254 0.0 0.0 0.0 10.698382500587254 0.0 0.0 0.0 10.698382500587254
10.727712676537456 0.0 0.0 0.0 10.727712676537456 0.0 0.0 0.0 10.727712676537456
10.76110852097944 0.0 0.0 0.0 10.76110852097944 0.0 0.0 0.0 10.76110852097944
10.797766742910923 0.0 0.0 0.0 10.797766742910923 0.0 0.0 0.0 10.797766742910923
10.836242688553101 0.0 0.0 0.0 10.836242688553101 0.0 0.0 0.0 10.836242688553101
10.87545419051489 0.0 0.0 0.0 10.87545419051489 0.0 0.0 0.0 10.87545419051489
10.914902234688814 0.0 0.0 0.0 10.914902234688814 0.0 0.0 0.0 10.914902234688814
10.954175121206772 0.0 0.0 0.0 10.954175121206772 0.0 0.0 0.0 10.954175121206772
10.992615082798782 0.0 0.0 0.0 10.992615082798782 0.0 0.0 0.0 10.992615082798782
11.029756443521492 0.0 0.0 0.0 11.029756443521492 0.0 0.0 0.0 11.029756443521492
11.065633599893445 0.0 0.0 0.0 11.065633599893445 0.0 0.0 0.0 11.065633599893445
11.100287827736892 0.0 0.0 0.0 11.100287827736892 0.0 0.0 0.0 11.100287827736892
11.133820199898633 0.0 0.0 0.0 11.133820199898633 0.0 0.0 0.0 11.133820199898633
11.166930288648105 0.0 0.0 0.0 11.166930288648105 0.0 0.0 0.0 11.166930288648105
11.200541508213888 0.0 0.0 0.0 11.200541508213888 0.0 0.0 0.0 11.200541508213888
11.235141230804876 0.0 0.0 0.0 11.235141230804876 0.0 0.0 0.0 11.235141230804876
11.270390253830515 0.0 0.0 0.0 11.270390253830515 0.0 0.0 0.0 11.270390253830515
11.304831752436204 0.0 0.0 0.0 11.304831752436204 0.0 0.0 0.0 11.304831752436204
11.33670039145488 0.0 0.0 0.0 11.33670039145488 0.0 0.0 0.0 11.33670039145488
11.364544108626816 0.0 0.0 0.0 11.364544108626816 0.0 0.0 0.0 11.364544108626816
11.387647456366325 0.0 0.0 0.0 11.387647456366325 0.0 0.0 0.0 11.387647456366325
11.40648669416092 0.0 0.0 0.0 11.40648669416092 0.0 0.0 0.0 11.40648669416092
11.421526439599536 0.0 0.0 0.0 11.421526439599536 0.0 0.0 0.0 11.421526439599536
11.433188446917232 0.0 0.0 0.0 11.433188446917232 0.0 0.0 0.0 11.433188446917232
11.442592455086881 0.0 0.0 0.0 11.442592455086881 0.0 0.0 0.0 11.442592455086881
11.450241182456423 0.0 0.0 0.0 11.450241182456423 0.0 0.0 0.0 11.450241182456423
11.455948887825725 0.0 0.0 0.0 11.455948887825725 0.0 0.0 0.0 11.455948887825725
11.459110721645636 0.0 0.0 0.0 11.459110721645636 0.0 0.0 0.0 11.459110721645636
11.459118130126555 0.0 0.0 0.0 11.459118130126555 0.0 0.0 0.0 11.459118130126555
11.456417209655118 0.0 0.0 0.0 11.456417209655118 0.0 0.0 0.0 11.456417209655118
11.452356832935422 0.0 0.0 0.0 11.452356832935422 0.0 0.0 0.0 11.452356832935422
11.447849301474665 0.0 0.0 0.0 11.447849301474665 0.0 0.0 0.0 11.447849301474665
11.443346003431577 0.0 0.0 0.0 11.443346003431577 0.0 0.0 0.0 11.443346003431577
11.439373470128468 0.0 0.0 0.0 11.439373470128468 0.0 0.0 0.0 11.439373470128468
11.435661821189074 0.0 0.0 0.0 11.435661821189074 0.0 0.0 0.0 11.435661821189074
11.431824757251302 0.0 0.0 0.0 11.431824757251302 0.0 0.0 0.0 11.431824757251302
11.427971288820073 0.0 0.0 0.0 11.427971288820073 0.0 0.0 0.0 11.427971288820073
11.425135957337716 0.0 0.0 0.0 11.425135957337716 0.0 0.0 0.0 11.425135957337716
11.424969795694292 0.0 0.0 0.0 11.424969795694292 0.0 0.0 0.0 11.424969795694292
11.428001451920949 0.0 0.0 0.0 11.428001451920949 0.0 0.0 0.0 11.428001451920949
11.433582154760245 0.0 0.0 0.0 11.433582154760245 0.0 0.0 0.0 11.433582154760245
11.441467953519131 0.0 0.0 0.0 11.441467953519131 0.0 0.0 0.0 11.441467953519131
11.451376267568342 0.0 0.0 0.0 11.451376267568342 0.0 0.0 0.0 11.451376267568342
11.462421254261097 0.0 0.0 0.0 11.462421254261097 0.0 0.0 0.0 11.462421254261097
11.473454599055268 0.0 0.0 0.0 11.473454599055268 0.0 0.0 0.0 11.473454599055268
11.483740745631245 0.0 0.0 0.0 11.483740745631245 0.0 0.0 0.0 11.483740745631245
11.49258065089679 0.0 0.0 0.0 11.49258065089679 0.0 0.0 0.0 11.49258065089679
11.499286384481048 0.0 0.0 0.0 11.499286384481048 0.0 0.0 0.0 11.499286384481048
11.503632516893253 0.0 0.0 0.0 11.503632516893253 0.0 0.0 0.0 11.503632516893253
11.50627628622619 0.0 0.0 0.0 11.50627628622619 0.0 0.0 0.0 11.50627628622619
11.508889892458248 0.0 0.0 0.0 11.508889892458248 0.0 0.0 0.0 11.508889892458248
11.512308906401419 0.0 0.0 0.0 11.512308906401419 0.0 0.0 0.0 11.512308906401419
11.516334886602573 0.0 0.0 0.0 11.516334886602573 0.0 0.0 0.0 11.516334886602573
11.52020899294493 0.0 0.0 0.0 11.52020899294493 0.0 0.0 0.0 11.52020899294493
11.523764534607855 0.0 0.0 0.0 11.523764534607855 0.0 0.0 0.0 11.523764534607855
11.528034994679269 0.0 0.0 0.0 11.528034994679269 0.0 0.0 0.0 11.528034994679269
11.533641627201776 0.0 0.0 0.0 11.533641627201776 0.0 0.0 0.0 11.533641627201776
11.53978907883122 0.0 0.0 0.0 11.53978907883122 0.0 0.0 0.0 11.53978907883122
11.545102018003089 0.0 0.0 0.0 11.545102018003089 0.0 0.0 0.0 11.545102018003089
11.54799079638349 0.0 0.0 0.0 11.54799079638349 0.0 0.0 0.0 11.54799079638349
11.547073203104205 0.0 0.0 0.0 11.547073203104205 0.0 0.0 0.0 11.547073203104205
11.541907904373465 0.0 0.0 0.0 11.541907904373465 0.0 0.0 0.0 11.541907904373465
11.533511978785729 0.0 0.0 0.0 11.533511978785729 0.0 0.0 0.0 11.533511978785729
11.523932283782905 0.0 0.0 0.0 11.523932283782905 0.0 0.0 0.0 11.523932283782905
11.515047398454648 0.0 0.0 0.0 11.515047398454648 0.0 0.0 0.0 11.515047398454648
11.507120323873512 0.0 0.0 0.0 11.507120323873512 0.0 0.0 0.0 11.507120323873512
11.49999812782628 0.0 0.0 0.0 11.49999812782628 0.0 0.0 0.0 11.49999812782628
11.493577620757328 0.0 0.0 0.0 11.493577620757328 0.0 0.0 0.0 11.493577620757328
11.486947559513867 0.0 0.0 0.0 11.486947559513867 0.0 0.0 0.0 11.486947559513867
11.479788850239261 0.0 0.0 0.0 11.479788850239261 0.0 0.0 0.0 11.479788850239261
11.473152438869297 0.0 0.0 0.0 11.473152438869297 0.0 0.0 0.0 11.473152438869297
11.468218919755818 0.0 0.0 0.0 11.468218919755818 0.0 0.0 0.0 11.468218919755818
11.465274048591331 0.0 0.0 0.0 11.465274048591331 0.0 0.0 0.0 11.465274048591331
11.46355157677814 0.0 0.0 0.0 11.46355157677814 0.0 0.0 0.0 11.46355157677814
11.461749728383696 0.0 0.0 0.0 11.461749728383696 0.0 0.0 0.0 11.461749728383696
11.45997751391292 0.0 0.0 0.0 11.45997751391292 0.0 0.0 0.0 11.45997751391292
11.460022493975629 0.0 0.0 0.0 11.460022493975629 0.0 0.0 0.0 11.460022493975629
11.463652120447728 0.0 0.0 0.0 11.463652120447728 0.0 0.0 0.0 11.463652120447728
11.471431025410524 0.0 0.0 0.0 11.471431025410524 0.0 0.0 0.0 11.471431025410524
11.483089328487761 0.0 0.0 0.0 11.483089328487761 0.0 0.0 0.0 11.483089328487761
11.497731661842904 0.0 0.0 0.0 11.497731661842904 0.0 0.0 0.0 11.497731661842904
11.51291904772265 0.0 0.0 0.0 11.51291904772265 0.0 0.0 0.0 11.51291904772265
11.526210391664867 0.0 0.0 0.0 11.526210391664867 0.0 0.0 0.0 11.526210391664867
11.536872783235982 0.0 0.0 0.0 11.536872783235982 0.0 0.0 0.0 11.536872783235982
11.54487976357558 0.0 0.0 0.0 11.54487976357558 0.0 0.0 0.0 11.54487976357558
