0.7634926908459652 2.2705267762338748 6.677541713211861 1.44040368141611 1.1431959595980288 2.9140186795636662 9.468400428034178 0.9706420192058488 6.715537079097114 3.988053696940387 8.47504429750074 0.16707625738555923 7.704194399659887 0.421653732735076 9.020276732464346 3.8492097225010307 3.9332129374868243 3.5934388985875345 2.271315238677932 10.211824618699303 9.366283886630848 4.632174239245846 1.1832477207765677 0.728983607551192 5.689704819786824 7.8080796541134 8.685158883944153 1.47115371673435 3.678507603362596 4.699747601681146 4.48099189304678 7.102341837294641 6.441493105297694 8.815042089255776 5.433337321591339 2.92677259234119 6.684552636025235 5.270477207301909 8.844833183763676 5.6589867491622625 1.1009066698620293 3.357965655159572 2.3732293370213013 0.13054700545033626 6.842085301368333 4.840562732230647 9.535441045574846 7.004892141168299 5.7528350898008815 6.130774972951709 1.5764027981181246 2.5306234886917935 3.854153595123228 8.860133617137546 7.305520085209928 5.401202149547053 6.488385310923325 0.899369276222214 2.726716229508455 1.074855444514456 6.075571946969796 9.60822465307966 4.972427748550306 0.0312305712131992 0.2632377763566773 9.133101446249809 6.3609101125354455 9.716403831383918 0.15890714717125068 7.899157721299926 7.177117910705386 0.10602156148099301 9.766556435764707 5.1644183536782915 6.164295281722042 0.46534840350311824 4.7945655380279995 2.706439958818708 7.720464428741991 7.733569953149972 2.3153945512599 3.220027347041092 3.148042856878227 1.4000429281986835 3.137984633267548 1.1789751067216079 4.666461700664452 1.7713767746560565 5.204651248121006 6.675368114041756 5.96185222176135 3.2722896212046284 9.879114777102851 0.2899911594753774 5.760890192607739 9.331964460518563 2.3229701836615866 7.8663512906884 8.042263654896349 9.326242780350201 7.3104213382405545 4.851643826039022 9.208985629041388 3.121128584801347 4.4303171986692504 2.2769197149694755 7.937504698815639 5.477842830089013 0.8493328102284557 7.147838251296333 1.4994744353330616 7.761240722977231 3.1741793214089413 0.6888913577606609 5.354160775350923 2.8348954078127138 5.603677174201422 0.2099196018119773 8.769098169542591 3.6897485206393608 8.457282582713662 9.437522533941225 5.875132007812925 6.533988273903944 6.766297012657785 4.79332956987245 6.117626828952157 4.69121302846912 3.6557700512596423 9.14113523926088 1.0698050229133313 0.5737907577853254 9.785191852178983 0.5836539967645682 3.841133309898388 7.739728484131934 10.306376182598838 2.5755871577988523 2.7339295953817917 6.411084026712019 3.7189003212737006 4.345759928993037 7.679943852056175 2.339655753761505 4.342211847994779 4.510250242660046 7.12505807960181 9.261152009123892 3.943111337629113 8.733777183028396 5.556284188374835 1.2586630880608718 7.603015489271112 7.819096818534418 2.7504659969112124 6.736452643660423 0.27389800169829165 9.611836663465274 1.1703872590201174 3.466890676316317 1.6497298054154659 9.104684833570062 2.2974836679023247 6.457922957848188 10.419754951074719 3.992475479565844 4.72595865049711 0.10754627736943381 9.775730302850294 8.265217393300427 9.851507936662948 10.520305222487828 7.681829768983176 7.4759877965947235 3.891903898356951 9.469391333538196 3.9273101240542863 0.44468855648923494 2.6786519851146298 9.318294226522271 2.7571679276857006 10.243075434218499 1.4584743882420752 7.351080428598976 2.972546033688092 2.856780568084254 8.022903705425373 8.904862878490967 8.158721688863212 8.994289436504129 5.156533729237717 0.637263050021738
0.7985207539345797 2.301712329753567 6.658354121227074 1.495558511931826 1.228864692879211 2.976362252776815 9.469931681461514 0.9271184382258605 6.715881748569254 4.03667099754344 8.462814685457758 0.28996480963895865 7.681642772472575 0.32653213942637177 9.069795073503688 3.8478099276319297 3.9728579442509115 3.5737014366107673 2.3172660956646007 10.310175945115656 9.446792791352769 4.631751689340996 1.2218228851619555 0.6845595894961546 5.612235524538186 7.808075713453499 8.705954137093046 1.5491444314746337 3.5645609358219548 4.614706466424795 4.499917543348501 7.09447745606673 6.483278375349041 8.700947102861413 5.408023100737772 2.949697132177283 6.774954099238214 5.296398197165298 8.853874712212708 5.672021643916763 1.1964255030168156 3.2596112445867904 2.238794150664139 0.08436426549730615 6.897370759569506 4.857984410496278 9.57240543098085 7.047954650769823 5.681609581807126 6.050883683022305 1.4889641413161205 2.5227249513907624 3.783251145836817 8.801066480965451 7.376842226937927 5.4710478124704265 6.57459815712259 0.8441593382927088 2.6940614014915534 1.1561987769345803 6.175750594147802 9.60462090229247 4.920519072070092 0.0544509646058051 0.24155531123051469 9.03503347201896 6.4492625023668975 9.718717363187793 0.1600013768615172 7.883767156465755 7.232895319410607 0.18989337122437303 9.7060080188509 5.083460749884654 6.151088287240922 0.39387994582114766 4.826205723021885 2.82436147742159 7.7652176310835745 7.753019643434167 2.3062932334122963 3.2514614973799816 3.0403990246201187 1.455928368651658 3.132262122874121 1.0066770161872303 4.655295403494 1.7989315200472416 5.22475499459564 6.6027014684056775 5.880932157283455 3.3020005833265187 9.852085579242747 0.1872662762424135 5.677401542399688 9.247182577739729 2.304844389464419 7.839769174813309 8.122155252213153 9.232821977432831 7.129345590194684 4.695564742633525 9.207286102851496 2.9672963248382604 4.484971013503857 2.217445008961597 8.012373363368493 5.475106706177346 0.9226472631896545 7.166163271693678 1.6439265241530359 7.840355104351054 3.0162587276650488 0.554583372801526 5.272652070990166 2.9398854757361446 5.655189486287013 0.2322390315803784 8.780367188386588 3.8115568691420343 8.410336705404504 9.54043498474865 5.853478695124048 6.536363591468685 6.880187044217111 4.766600709136794 6.107356637196545 4.720514687677115 3.738773767289855 9.286152218631894 1.1259861193156135 0.5438906914009064 9.83169523132924 0.571270646036487 3.7958965705877743 7.632445997830689 10.269001078508708 2.60105840395503 2.815434041919229 6.4905012885597815 3.597287763821061 4.3140180809186806 7.612471127225764 2.379523772366026 4.3936299252016635 4.550563161938265 7.066267612140416 9.232449113181538 3.9755958331818264 8.58449627055079 5.4681820843676405 1.2492337342640718 7.645134035638936 7.804698628663226 2.7328073238329433 6.733044157393004 0.17767514237275342 9.666026317848086 1.1739258087674298 3.492310497185906 1.6659468215079032 9.173153043961802 2.4326942146002515 6.466627323212777 10.295389214235852 3.99179944821654 4.7740260343696646 0.07366945344382207 9.847142464597049 8.276766077327421 9.838364174795204 10.545677006231623 7.67659312518365 7.53881445769913 3.8006585797399883 9.586883217195298 3.928007701452657 0.5467649421151508 2.7784778679840403 9.238489514052468 2.7236881295727757 10.258454346829309 1.4936622308823986 7.334378315347942 3.1082603183552457 2.8789274972820795 7.983811961719534 8.800555124277965 8.168283886730121 8.97316996609747 5.023909002321175 0.5903101600338839
0.852830487833069 2.3293853330160976 6.64284575009493 1.5307568834893535 1.3147409802493164 3.0320812540853095 9.470762905155235 0.8748761214955875 6.726191726367224 4.089415528773086 8.462773878205521 0.3692960431980726 7.648811557996255 0.245264196714818 9.123887323569697 3.81747359162707 4.029954185793081 3.568638945717912 2.364642587064592 10.384256954023904 9.524048105777002 4.632820219606287 1.252947611103012 0.6516863094508176 5.544876718098469 7.8142895791118105 8.720127341160525 1.6310127115976523 3.4499292301840496 4.538602103079231 4.51808240252005 7.0770392064003875 6.533112738023128 8.590162138604839 5.386522557737502 2.980808623990624 6.86213074937631 5.3412237480962155 8.860602634246524 5.693253213994489 1.2797179936695826 3.155827720197528 2.1152009754409176 0.04852318189313813 6.94774486068706 4.871357745411278 9.610716420697175 7.088624797582737 5.6370396700132135 5.9503937065233465 1.3871828707029283 2.564100039671766 3.74411592834103 8.704772173435389 7.444051141778043 5.530639645110599 6.6504594428296535 0.7858906883389429 2.6688388952504414 1.236942883578129 6.265440857921342 9.596713615178068 4.857152617987331 0.0497520212520014 0.23787518777967742 8.930403691415924 6.525094401478725 9.716871529609723 0.17164032039609498 7.85174042854961 7.261620674741253 0.21421736799123267 9.656739329787356 4.998788599895826 6.134581179575842 0.328782679032291 4.85680121678419 2.916310530432264 7.798348742714772 7.785197818900247 2.3711701306259716 3.269734952621795 2.9266608931429663 1.526167370805904 3.1210496496078624 0.8615537564880152 4.669376593254273 1.829501148765861 5.23099025552297 6.53603043286133 5.79010151528445 3.326353140412748 9.831268594014125 0.08294346216687841 5.603848229098336 9.165789254913953 2.2846934890893285 7.810658433346019 8.202800879008919 9.128870831541517 6.957520203247169 4.536355265083389 9.198299190465162 2.8160972964091946 4.54339393766752 2.1612238845310996 8.087605175506468 5.463042831851811 1.0074960004131854 7.175559325535594 1.8068091498599892 7.901969503556179 2.8470631963708444 0.42321483083762335 5.199268310548501 3.0196437811983743 5.694190283869532 0.2583565536621524 8.784465706899276 3.9196461535706844 8.368278900124476 9.630299051381314 5.839404168937283 6.530418662132378 6.998389228024615 4.754490224063581 6.065046335439126 4.79027990417744 3.824192808571981 9.45168075497254 1.1610721692635642 0.4997436237689798 9.878132736287585 0.5448954838162244 3.7453831023765995 7.515257803760006 10.220685018222355 2.618812142148711 2.853122204994702 6.5230711824303365 3.486837005035177 4.291971701080686 7.595387926597494 2.443239322833828 4.402939941624136 4.631361372187185 7.027853686481934 9.185680692716003 4.024246578372364 8.420488600094204 5.392123679945144 1.2448973289946876 7.69300292142158 7.780810628121636 2.7217407491051437 6.723380516742095 0.08517326252862857 9.69841764218416 1.172977216085134 3.5531666442583947 1.6719349789816345 9.229382224161192 2.5459975534493435 6.503829304428032 10.16094681368836 4.012341531550795 4.818019302182976 0.03133966305953626 9.917202160964095 8.293057745609657 9.816861144685339 10.563247948678432 7.654998348875801 7.61505574545209 3.725097669286179 9.655695774699241 3.9031302970230506 0.623009841570239 2.849448465143681 9.171741778324737 2.685290860670231 10.270307127514407 1.5180851431336577 7.342560085198095 3.200146865878541 2.89619547368276 7.948556784275649 8.678374489114574 8.175285099950838 8.967045253234367 4.912333255401798 0.5213217873461073
0.9192477932498915 2.352668122300571 6.630607372126186 1.5476021450141895 1.4004612878381515 3.09008569942292 9.480725882041646 0.834833614501868 6.751793463217581 4.146920356822695 8.47696068690678 0.39790603813330855 7.6151645505399435 0.17832914271965056 9.168012984885715 3.7657609424644587 4.111398827839285 3.574915196272583 2.3954791202335426 10.429240095006989 9.602667523929274 4.652788218801238 1.2674630645803138 0.6411008129435456 5.485596744337993 7.828687462179286 8.728186647434148 1.7119291224143758 3.334277588452973 4.473201243629268 4.5341986684743585 7.062846276933903 6.589477740753843 8.472597647097555 5.335423042416519 2.9705809748921537 6.940745011638621 5.397005753089674 8.892864796331175 5.722137351361135 1.3541598580577985 3.0393041726677272 1.9951755385172614 0.017294664141353645 6.993569718011793 4.884157027416369 9.63771018268972 7.121906937766116 5.6120929741240335 5.856540260606334 1.2877352373524518 2.6748945745527175 3.748617388482352 8.568446182613904 7.495500202601523 5.602260172212508 6.693711825952317 0.725786351484582 2.655750407194672 1.3010903957928892 6.327599578155657 9.586502993514113 4.780178339670143 0.03262915283670843 0.24842190933290068 8.82167275651721 6.581347588523967 9.695749253712941 0.21133819926657704 7.8062763357445775 7.265333890324056 0.18738085408971913 9.631612568517312 4.90387583904197 6.101455775751088 0.26776188140433566 4.887072814996193 2.9869796196385394 7.82878323622388 7.82362207937638 2.4989682961962947 3.268459536696714 2.8373273541820687 1.599543601865006 3.0830622694861165 0.8009817463625251 4.747753504795232 1.8624433542721817 5.223835638905421 6.475464061446396 5.708047925245486 3.3504634019891526 9.817361007224749 10.632185295499085 5.546626093864614 9.099002464976364 2.26609902754921 7.793410689087614 8.263842154566829 9.03237565462132 6.821474401439082 4.3905056769036594 9.17544079412191 2.664157239997816 4.608125589339473 2.115659286614976 8.160257204559484 5.444797001341471 1.1037320145687046 7.177615507037582 1.9912700858099783 7.923620823491751 2.6851317557636345 0.3042432791457758 5.14826991772172 3.0636839877968445 5.712751494991043 0.27577178400044494 8.775754422915227 4.014230738819656 8.340333691514928 9.702091623777086 5.847665199140736 6.514199341703919 7.117501331714848 4.766099555115004 5.9964874228774026 4.890584529964595 3.9135935010736667 9.658950737468295 1.1720827577264172 0.43717765304055173 9.924425747518965 0.4938567326305577 3.6884925715991073 7.382454905300514 10.161998585911606 2.634030982193132 2.800528837937421 6.476964521478349 3.4266782583639834 4.34983363263326 7.644439483503803 2.4915724116416302 4.358517146009673 4.760012582503108 7.021439964988292 9.12339292166599 4.065842307294653 8.247879813801365 5.335380476174477 1.2531820903754796 7.738766275867179 7.748535228415642 2.7063935936632313 6.705662298405393 10.640443146455084 9.709923812312674 1.1686880999236287 3.6434574875194814 1.681536825596934 9.267096554797199 2.637521414040513 6.567790240433834 10.039226902304176 4.037993343439175 4.826309504482331 10.629759019702734 9.974504931280478 8.31657108689541 9.803069391459406 10.573709920494938 7.616026516941278 7.696774678093501 3.68548100997469 9.611680925681505 3.8222569872136876 0.6404718967173864 2.8940681548230347 9.121041136793213 2.641841887607699 10.273309308849436 1.5305011572741234 7.380752255618865 3.258286204848859 2.892940149408942 7.92082209307754 8.549153033408714 8.174335989114622 8.969781995699686 4.829118876457052 0.44003597619362056
0.9899679408607044 2.3726385729163484 6.623913754934666 1.55131524848604 1.4563152798114019 3.1395394841300908 9.501506828909054 0.8287763665216509 6.789254533188746 4.202818179863591 8.501891085095755 0.37026275008299775 7.591012160018726 0.13604220945071835 9.183532342309805 3.7101028733370596 4.211654644377653 3.583276745467974 2.3999135807124583 10.445094496278807 9.673897638418035 4.702743020614592 1.259977757804628 0.6700687850953346 5.437860306759104 7.852586396578768 8.732893919155284 1.7777456640846234 3.240760068617877 4.440254300362359 4.549481933922453 7.078188845795335 6.64189505637062 8.349937922754073 5.228879516031249 2.8762319819674103 7.000712936710556 5.458808363429021 8.965683186473974 5.762597719268035 1.4220008742916956 2.9060377702139975 1.881847935555936 10.623705921600935 7.0321350217154315 4.897421711737859 9.64134839909488 7.143074653815554 5.617322414585596 5.799400371112999 1.216156975298675 2.8181197333881736 3.778540280812991 8.416599530502149 7.52347860270368 5.697265302933024 6.694275831576716 0.6790700693446162 2.6683889790891393 1.341802781192958 6.349664349059628 9.579854687560806 4.701956139298057 0.019917667486508247 0.2646111731006156 8.728481003663907 6.606708701283942 9.64597398521235 0.2901178246407829 7.750855402588365 7.251515406059114 0.14235427363308517 9.639976673556598 4.806951627398949 6.026830338654208 0.2165242178352867 4.915147808422505 3.038191297266651 7.853628482646612 7.85468120224576 2.632245606185054 3.2420360923744203 2.784443339746739 1.6739730320837511 3.018700034385454 0.8099752198221178 4.887713297656827 1.8929706093004708 5.205453846567378 6.4239289316904395 5.6575490635106185 3.370350914626139 9.805795960719381 10.559851566117256 5.5087965940916 9.064691996450419 2.2460144821420487 7.820345529663445 8.25615017664815 8.978815597635064 6.764095598122236 4.310737889073229 9.136478966287276 2.520965701083186 4.673926150779325 2.0959647219038784 8.225823345367642 5.4330752176720685 1.1690291645570143 7.186331859162368 2.1748761577147677 7.906923741544898 2.5471348216236254 0.1984663549739401 5.127095354384323 3.083032898777838 5.721339617806473 0.26871358947790186 8.753289032197365 4.080404967485884 8.329181269647638 9.739666029536531 5.884691925706606 6.482019913207067 7.222049890814271 4.804101841009337 5.922483495962892 4.989242254552444 3.995995995990554 9.88183634307805 1.1657540369152204 0.3544358020893408 9.972742402200444 0.417286352217874 3.628288483480034 7.240562868815452 10.104491855063525 2.6381791166529793 2.7095407452376556 6.367018272148615 3.421721504358306 4.473409650969872 7.718093492639119 2.529089718999844 4.271393823246481 4.896890035172633 7.0353038140441795 9.049124506620592 4.07724680868844 8.097423454865487 5.3190412279623285 1.274683931598788 7.761754772175505 7.704939814415421 2.674588327839678 6.678899745310372 10.565125797644301 9.698588698107146 1.1674554019239445 3.733762480489631 1.7035661497042478 9.281637302125365 2.7283408285840585 6.624923940408595 9.98553454035979 4.036818122668631 4.799263584265777 10.571527183489625 10.005259740929684 8.352692007361945 9.814398487544743 10.574706609349679 7.560610894019085 7.762445951710299 3.671779626515547 9.48479091769834 3.700181788629936 0.6158080015545977 2.930675662246585 9.080110616841983 2.596368071563582 10.26354821631663 1.5328235375474688 7.423193768970691 3.282985821428151 2.8816657164640236 7.905435047162264 8.429976512883243 8.164074429082257 8.97384973851585 4.773232699632296 0.3520017867737347
1.0645704770506064 2.392329738800026 6.625822812335421 1.541933518236056 1.4444569776293985 3.1568735015373344 9.52369389902341 0.8662257987409699 6.820308380164533 4.257059998220981 8.531492368786838 0.2987091765941761 7.57170864162318 0.11856883194721556 9.1786052696553 3.667908131689701 4.313023475371109 3.5844038660882487 2.38624143950118 10.445173404594852 9.73223674429122 4.773322278033091 1.23573350219042 0.7374141735579992 5.402499665434796 7.88760956039106 8.742872170272433 1.828561723970218 3.1956983630346887 4.4689073130907815 4.568498289230546 7.152264133558168 6.6801181167282735 8.249592423415654 5.133891975600884 2.7140639495662784 7.046478605077691 5.527686999359762 9.071194069634297 5.820860392472789 1.487149449850627 2.7555345118060632 1.7734907723717543 10.589465035447088 7.065349145312858 4.913342536602367 9.622657982216174 7.151839121390708 5.657018201917452 5.784298720767152 1.174733630855907 2.9410098216850495 3.7989393829172253 8.282934627952791 7.538408938302789 5.819287847453191 6.666475226152848 0.6609438593279888 2.723222961775014 1.372141157336297 6.33434946789223 9.589252025853918 4.648379326104413 0.024404198655479804 0.275677767239588 8.670014459465822 6.6043065713578235 9.571784025771365 0.3971260566213364 7.689936401306009 7.2278844234532595 0.09766779608201427 9.676273267141092 4.718123822784389 5.891752422004904 0.17492757041307935 4.94094707687881 3.0768649610132295 7.861418185571417 7.8803843535442635 2.7294600153324704 3.196750268149149 2.7605602806862626 1.7487975654424026 2.9427629968758167 0.8267368557319615 5.055944744088954 1.9134791550284707 5.174703768981107 6.376160039865981 5.6542237469164105 3.379027361468008 9.792822228762459 10.508308962070846 5.4764624078768005 9.067007699784828 2.2239930445738127 7.900901815928332 8.169743262454347 8.977818896443615 6.750957019739455 4.299975601830126 9.083986935874803 2.380950038016319 4.735421817999959 2.110472294645588 8.288661666909297 5.4381794368929555 1.1504335601814546 7.227873798149075 2.3298848260961535 7.874115424074246 2.418319232840127 0.09040327560972607 5.132755068052932 3.1035450998254515 5.738631163373713 0.2287383609350281 8.71770082465469 4.115669075411652 8.32370392011627 9.73514807763831 5.950478478243513 6.432208519449601 7.2977670490876605 4.866091808885143 5.8560407746341845 5.069863892573228 4.069427751592142 10.089066334785375 1.154981190373263 0.2401680006484118 10.031094675144006 0.32065467986090723 3.563387014407415 7.09217803838369 10.060558643653081 2.6138142045669523 2.6679926306137527 6.2273101535177515 3.4701074689544122 4.625258664194659 7.744624841953761 2.5569582018651618 4.171876934558067 5.007036468918642 7.034068249787897 8.965472292978939 4.057739916987027 7.988974962329967 5.36178349979225 1.3029279258656439 7.7422766497285505 7.639147447294692 2.6166830366972986 6.645182116563166 10.514227256502707 9.66671049337327 1.1829363656878604 3.8000231639442448 1.73448528070323 9.288980929544332 2.8381462518558522 6.673732308912206 10.008430901314268 3.9934143254421497 4.7534423339002085 10.506449533838213 10.003107623916849 8.404774991059021 9.851983922472714 10.56274239541812 7.490127556079479 7.806432236406445 3.644925598734371 9.375566533359859 3.5921284622318113 0.5766650090513429 2.9803871990001 9.035790556084985 2.548426082603428 10.241263191952344 1.5304263138021112 7.4347378453554205 3.234884484874383 2.879893072004485 7.905746954637362 8.322216377530163 8.144380661361247 8.973685653115078 4.733381759596157 0.2553334973137576
1.1397690705576482 2.4123289353906996 6.6420347834634965 1.5254006719710096 1.365015468618948 3.1373112497352533 9.532026231339694 0.942399502227659 6.8209047371820315 4.309134002864058 8.561295478176998 0.2135535459196588 7.5470868084429625 0.12076986701238134 9.175103857376614 3.668347019022737 4.350594629045032 3.5723346137590872 2.367959164120458 10.44131456613893 9.768845505850996 4.829775417982226 1.2033986563969774 0.8035717010261352 5.386037934467147 7.93254853277082 8.768354410771458 1.8682126305193594 3.201779603684262 4.557186399654354 4.591406015065694 7.282174110916331 6.694526802884429 8.192609116042725 5.126508217087444 2.5190966836303614 7.080572479693707 5.590442537600597 9.180348812391571 5.8967733920368275 1.5406896096664264 2.620173549505618 1.6801374622300425 10.551108249964143 7.0887371971157735 4.933485378682805 9.59544347082214 7.147419112839781 5.719676530398247 5.800346911377259 1.1531999776303583 2.9936270873518662 3.766875728615424 8.211667201572777 7.5558567129821395 5.958449391392852 6.633891300677118 0.6740595345009716 2.820819622122278 1.4033121340823986 6.290782057229135 9.624290723404398 4.650597562046214 0.05055966757331645 0.26739184124321463 8.662998765805053 6.581229404170682 9.486063862392847 0.48553525366685174 7.6334374544685355 7.2094773356381925 0.06629134742282988 9.726206357389334 4.643982973029377 5.711437491751272 0.14431589279510793 4.963967698213042 3.108325972021026 7.842322565732172 7.902310411550994 2.772606381792494 3.147111034105302 2.755597438606343 1.8154020915631066 2.862152840489124 0.8333819443368451 5.2225418569867825 1.9060421339976723 5.130319834193454 6.322379195132997 5.703389564825491 3.375107317488208 9.780864309650449 10.467613662438616 5.432605490531104 9.097193979037051 2.21018582095803 8.009885075946803 8.045060249964108 9.022288801647354 6.73232445440921 4.336378040451863 9.023998189820244 2.2451698832541407 4.775786356745285 2.1542219386020975 8.35295185012341 5.457949028224827 1.0512609855461656 7.301317134989134 2.4475147267258466 7.844467263936666 2.2916843527288777 10.588385652914566 5.163392779277637 3.140655704856126 5.776489798181703 0.15885737131430452 8.669209896743817 4.134086283569377 8.310164059211932 9.689077596888726 6.038535819890444 6.3688618126542025 7.331480934984051 4.9417456519654674 5.811091637035427 5.121549929654278 4.1288837978257975 10.25759249816567 1.151809108992789 0.10292958783904164 10.09939446228948 0.21851395681639407 3.495518319157461 6.95131725226037 10.044757744664052 2.5622348460306945 2.6597018238389776 6.13038623655923 3.55362689971789 4.793496042909143 7.6872141693485965 2.5541763017870682 4.113923996983546 5.1002409727412905 6.9806104321920746 8.881864155842086 4.025853345467238 7.918830958116319 5.462769290526021 1.3308383224789846 7.676373887829833 7.540949998729108 2.53315401245587 6.613569754323627 10.491693739308898 9.62708307799738 1.2281582416092778 3.8381922525738386 1.761317474465569 9.30393439209619 2.9559780782769023 6.741529668979991 10.062594838642038 3.923194499233219 4.703960201530357 10.450541015345399 9.965096008880224 8.464582329935643 9.893673311743369 10.534704493895102 7.41340415946866 7.838574652533225 3.5791509318149606 9.334968812154319 3.534674987366279 0.532835404662048 3.0487522015981194 8.984278803765692 2.500166005914439 10.209241232703913 1.530337724768488 7.412682181855266 3.099736561885198 2.908210765296568 7.921251706584761 8.224567242753285 8.116843935907658 8.961419718447473 4.700626363727329 0.15590681868544592
1.2140566944287876 2.428696937336012 6.680940429896974 1.5175125131881406 1.2595204258851642 3.1019739518114595 9.522556270574704 1.0377985290101044 6.793204547175835 4.359276893478564 8.59877780926494 0.1434882048641522 7.508030213315966 0.13135357950437204 9.184618041725917 3.7281320791462376 4.275649091532436 3.544537117857756 2.3544589609065443 10.441050965661535 9.78274462215107 4.833436557139119 1.1625346687690057 0.8167864392842703 5.39647595905173 7.983346363961059 8.810775666494779 1.902601459094603 3.2305243766248686 4.665682284547106 4.609353941419474 7.43206281139586 6.685619427696801 8.1503261085726 5.173496780454948 2.3049103901011114 7.099917627442098 5.620219055656648 9.260967402650092 5.974443592039981 1.5610876695688498 2.534340431877702 1.6095858531130969 10.49750662845719 7.098315521619481 4.963928606889872 9.590120574405324 7.129657379897693 5.797002414705923 5.828386712873476 1.1409858149561933 2.9774977563747704 3.6811405116735907 8.203429020110327 7.587286706659988 6.110569537100731 6.611232911654641 0.7067472332041025 2.9444158626335843 1.4376724713656825 6.235417081569153 9.680347779143954 4.713671189419263 0.08481399685320506 0.22545766813428736 8.685917512054022 6.544188496468447 9.391544332179526 0.5035227620982485 7.591032026894318 7.225730679393022 0.06503913041483987 9.782903771736096 4.578988200596102 5.509196305141005 0.12380034019893574 4.986708217493567 3.135151335303662 7.799231514028151 7.913023467323283 2.78005678118884 3.1044036354762223 2.7604601622857063 1.86689890218662 2.776905619405283 0.8394249372559087 5.3731446298866015 1.8595992412199953 5.0743147590654 6.252286937582138 5.792461346546453 3.3684327970379337 9.77598606977354 10.435448900268543 5.37255047143583 9.136554867047414 2.205537389209531 8.1264006209567 7.9182860136015485 9.093786068564182 6.699815570681313 4.398194272004116 8.95814818223085 2.112562201636082 4.781415862779582 2.2095055188628994 8.425495741086282 5.478713854621946 0.9193201509345102 7.37358064388418 2.534754220798775 7.828058808862918 2.1668109901860126 10.446196802244112 5.218811972298631 3.200126805884491 5.838020567753847 0.06580517041744206 8.610332069137984 4.17249894048952 8.28399054005158 9.6140991118829 6.144616938324422 6.298196287876593 7.333358238761398 5.016119060806772 5.790615211360127 5.143841907778034 4.176053281221815 10.39715751011077 1.1777387591253623 10.59254015066367 10.16772746833418 0.12278814883815668 3.4253552986163376 6.825416423185534 10.058975251898273 2.52541744514379 2.612822397241253 6.140489659086025 3.6506792810992015 4.964788014649024 7.578077250673026 2.533438584229209 4.111852338621458 5.191852032594862 6.8790073934506815 8.803242586136777 3.9984953941920693 7.862604878786364 5.598373122618449 1.3549146871510411 7.582140870077412 7.41039724788736 2.4316252897005297 6.5911164041070816 10.497209549231805 9.595680199908974 1.3056738055433295 3.8691916613428603 1.771292441474039 9.323141840534424 3.066324444765152 6.840779663126919 10.104343493603633 3.8499027316374472 4.6513163820052315 10.410292655861761 9.893618833054019 8.525897909294379 9.9168758924128 10.49500267498608 7.340880709147061 7.876928341438897 3.487932915449409 9.332510446106415 3.5138955177536686 0.4850433732820125 3.1304298976144933 8.92717767298437 2.452601205007241 10.17051789105834 1.536578633474514 7.425155719405638 2.9694447873723457 2.9810839270240717 7.9503705699432246 8.129647272491274 8.08357877261179 8.926297045280549 4.663199551020667 0.06289909899482793