-6822.627513189008
-6821.97042425626
-6819.639332349407
-6818.142958486329
-6816.969140340236
-6816.153864286004
-6816.857608360901
-6817.354378024182
-6816.413520753126
-6815.695493286781
-6816.061257279921
-6816.284962338794
-6815.576310282645
-6816.535482311669
-6816.410499065005
-6814.733858355404
-6814.684515816983
-6815.320670487896
-6816.2372530276325
-6817.392735735107
-6817.242635020566
-6815.560275566531
-6815.241992989213
-6816.727386514673
-6816.458475183785
-6813.727089534292
-6812.3278473862065
-6812.335385347708
-6812.179986032501
-6811.334503437382
-6810.277455462016
-6809.219763257139
-6809.510492131383
-6809.134891631147
-6808.539490905622
-6809.358652745471
-6806.757104581409
-6805.937189258342
-6807.004025576654
-6805.889921587942
-6806.044083601524
-6806.4327263819905
-6806.086944116194
-6805.615940640182
-6804.859290968261
-6804.019556914041
-6806.878810761114
-6808.208265913852
-6807.443001253857
-6807.700101075408
-6807.207273797422
-6806.258662642534
-6805.960445059392
-6805.750826517606
-6804.192915878656
-6803.946225091718
-6803.659928407678
-6803.2023043609415
-6803.988187766778
-6804.886079079051
-6803.899633352093
-6803.475148961311
-6805.526238993554
-6807.761301110405
-6807.859449578755
-6805.84239472911
-6805.739775566447
-6804.688042654636
-6804.918707297045
-6806.998665750374
-6806.8114823143005
-6806.830511779265
-6807.472832549761
-6807.249338651227
-6808.2853787579625
-6809.07121440782
-6807.81452018257
-6807.44425406597
-6806.327369618054
-6805.12198830753
-6806.399323728011
-6805.86562753654
-6805.258469588389
-6806.760243006368
-6807.664685731421
-6807.215897084969
-6806.953782069314
-6806.465974339253
-6805.250637879999
-6807.765211794436
-6808.462562282581
-6808.095696908679
-6807.618686655736
-6807.49741286492
-6807.1027877977685
-6805.995843804435
-6806.89054240504
-6807.857232667312
-6807.061124447931
-6806.498655619446
-6806.664637169725
