An instance of this daemon is already running
An instance of this daemon is already running

     Program PWSCF v.7.1 starts on 10May2023 at 14: 3:19 

     This program is part of the open-source Quantum ESPRESSO suite
     for quantum simulation of materials; please cite
         "P. Giannozzi et al., J. Phys.:Condens. Matter 21 395502 (2009);
         "P. Giannozzi et al., J. Phys.:Condens. Matter 29 465901 (2017);
         "P. Giannozzi et al., J. Chem. Phys. 152 154105 (2020);
          URL http://www.quantum-espresso.org", 
     in publications or presentations arising from this work. More details at
     http://www.quantum-espresso.org/quote

     Parallel version (MPI & OpenMP), running on       4 processor cores
     Number of MPI processes:                 4
     Threads/MPI process:                     1

     MPI processes distributed on     1 nodes
     752379 MiB available memory on the printing compute node when the environment starts
 
     Reading input from pw-si-36.in
Warning: card &CELL ignored
Warning: card / ignored

     Current dimensions of program PWSCF are:
     Max number of different atomic species (ntypx) = 10
     Max number of k-points (npk) =  40000
     Max angular momentum in pseudopotentials (lmaxx) =  4

     IMPORTANT: XC functional enforced from input :
     Exchange-correlation= PBE
                           (   1   4   3   4   0   0   0)
     Any further DFT definition will be discarded
     Please, verify this is what you really want


     gamma-point specific algorithms are used
 
     K-points division:     npool     =       2
     R & G space division:  proc/nbgrp/npool/nimage =       2
     Subspace diagonalization in iterative solution of the eigenvalue problem:
     a serial algorithm will be used

     Message from routine divide_et_impera:
     suboptimal parallelization: some nodes have no k-points
 
     Parallelization info
     --------------------
     sticks:   dense  smooth     PW     G-vecs:    dense   smooth      PW
     Min        2210    2210    588               110558   110558   14927
     Max        2211    2211    589               110561   110561   14928
     Sum        4421    4421   1177               221119   221119   29855
 
     Using Slab Decomposition
 


     bravais-lattice index     =            0
     lattice parameter (alat)  =      21.5195  a.u.
     unit-cell volume          =    9965.4898 (a.u.)^3
     number of atoms/cell      =           64
     number of atomic types    =            1
     number of electrons       =       256.00
     number of Kohn-Sham states=          154
     kinetic-energy cutoff     =      30.0000  Ry
     charge density cutoff     =     120.0000  Ry
     scf convergence threshold =      1.0E-06
     mixing beta               =       0.5000
     number of iterations used =            8  plain     mixing
     Exchange-correlation= PBE
                           (   1   4   3   4   0   0   0)

     GPU acceleration is ACTIVE.
     GPU-aware MPI enabled

     Message from routine print_cuda_info:
     High GPU oversubscription detected. Are you sure this is what you want?

     celldm(1)=  21.519535  celldm(2)=   0.000000  celldm(3)=   0.000000
     celldm(4)=   0.000000  celldm(5)=   0.000000  celldm(6)=   0.000000

     crystal axes: (cart. coord. in units of alat)
               a(1) = (   1.000000   0.000000   0.000000 )  
               a(2) = (   0.000000   1.000000   0.000000 )  
               a(3) = (   0.000000   0.000000   1.000000 )  

     reciprocal axes: (cart. coord. in units 2 pi/alat)
               b(1) = (  1.000000  0.000000  0.000000 )  
               b(2) = (  0.000000  1.000000  0.000000 )  
               b(3) = (  0.000000  0.000000  1.000000 )  


     PseudoPot. # 1 for Si read from file:
     /home/ppiaggi/pseudos/Si_ONCV_PBE_sr.upf
     MD5 check sum: 8553c464762ac42b85b1eed164b4d029
     Pseudo is Norm-conserving, Zval =  4.0
     Generated using ONCVPSP code by D. R. Hamann
     Using radial grid of 1510 points,  4 beta functions with: 
                l(1) =   0
                l(2) =   0
                l(3) =   1
                l(4) =   1

     atomic species   valence    mass     pseudopotential
        Si             4.00    28.08500     Si( 1.00)

     No symmetry found



   Cartesian axes

     site n.     atom                  positions (alat units)
         1           Si  tau(   1) = (   0.2026610   0.1940870   0.6087210  )
         2           Si  tau(   2) = (   0.0912110   0.1399540   0.2898200  )
         3           Si  tau(   3) = (   0.8300320   0.1210900   0.5643520  )
         4           Si  tau(   4) = (   0.3300160   0.8269490   0.9902970  )
         5           Si  tau(   5) = (   0.5935190   0.9710210   0.7050710  )
         6           Si  tau(   6) = (   0.5103400   0.2963410   0.3073710  )
         7           Si  tau(   7) = (   0.3283950   0.0363645   0.9011780  )
         8           Si  tau(   8) = (   0.5790330   0.2495340   0.9979950  )
         9           Si  tau(   9) = (   0.5516050   0.8308900   0.8655670  )
        10           Si  tau(  10) = (   0.3350750   0.3039900   0.4686070  )
        11           Si  tau(  11) = (   0.3161020   0.6690880   0.6520800  )
        12           Si  tau(  12) = (   0.8389590   0.4141950   0.2164880  )
        13           Si  tau(  13) = (   0.5580760   0.5441320   0.7716620  )
        14           Si  tau(  14) = (   0.7206320   0.0645527   0.3089190  )
        15           Si  tau(  15) = (   0.0154579   0.0867820   0.6638800  )
        16           Si  tau(  16) = (   0.5002880   0.7745950   0.6831090  )
        17           Si  tau(  17) = (   0.6658670   0.5692190   0.1578240  )
        18           Si  tau(  18) = (   0.3024710   0.2384480   0.8279060  )
        19           Si  tau(  19) = (   0.6429430   0.5965510   0.5693010  )
        20           Si  tau(  20) = (   0.1407390   0.2338290   0.1018310  )
        21           Si  tau(  21) = (   0.6525380   0.8254900   0.4911510  )
        22           Si  tau(  22) = (   0.1241300   0.0301917   0.0316084  )
        23           Si  tau(  23) = (   0.5636450   0.0672163   0.1752400  )
        24           Si  tau(  24) = (   0.6552420   0.9493710   0.0106193  )
        25           Si  tau(  25) = (   0.1248080   0.3242640   0.3980000  )
        26           Si  tau(  26) = (   0.0435239   0.4145440   0.2307740  )
        27           Si  tau(  27) = (   0.8294170   0.5934240   0.3096650  )
        28           Si  tau(  28) = (   0.3431150   0.3179890   0.1319700  )
        29           Si  tau(  29) = (   0.1767380   0.0107017   0.5414640  )
        30           Si  tau(  30) = (   0.0589296   0.4950680   0.5252170  )
        31           Si  tau(  31) = (   0.4718400   0.4466160   0.0440508  )
        32           Si  tau(  32) = (   0.9270970   0.4772080   0.8553960  )
        33           Si  tau(  33) = (   0.1750320   0.6020760   0.7765380  )
        34           Si  tau(  34) = (   0.8467960   0.5638650   0.5520150  )
        35           Si  tau(  35) = (   0.9313700   0.2301760   0.3992720  )
        36           Si  tau(  36) = (   0.1819220   0.7968930   0.3470610  )
        37           Si  tau(  37) = (   0.7871830   0.8248560   0.1643050  )
        38           Si  tau(  38) = (   0.7624850   0.0999890   0.9811540  )
        39           Si  tau(  39) = (   0.4053910   0.4816340   0.6074670  )
        40           Si  tau(  40) = (   0.9871830   0.8954360   0.5326090  )
        41           Si  tau(  41) = (   0.7989890   0.9204630   0.5962830  )
        42           Si  tau(  42) = (   0.4082830   0.6825180   0.4632440  )
        43           Si  tau(  43) = (   0.6037950   0.4079470   0.4679020  )
        44           Si  tau(  44) = (   0.9785480   0.1509870   0.9774810  )
        45           Si  tau(  45) = (   0.9613260   0.8945850   0.3025070  )
        46           Si  tau(  46) = (   0.5555320   0.9508990   0.3611270  )
        47           Si  tau(  47) = (   0.0972706   0.5965990   0.3190780  )
        48           Si  tau(  48) = (   0.5579420   0.7660880   0.0473482  )
        49           Si  tau(  49) = (   0.2681370   0.5143990   0.4358330  )
        50           Si  tau(  50) = (   0.8894200   0.3838110   0.6822190  )
        51           Si  tau(  51) = (   0.5472410   0.3457490   0.7463610  )
        52           Si  tau(  52) = (   0.7152560   0.3019270   0.6076580  )
        53           Si  tau(  53) = (   0.0270676   0.8571590   0.1243720  )
        54           Si  tau(  54) = (   0.4756580   0.1335730   0.8105640  )
        55           Si  tau(  55) = (   0.3474830   0.6004410   0.9029840  )
        56           Si  tau(  56) = (   0.2754770   0.4042030   0.9540070  )
        57           Si  tau(  57) = (   0.8880000   0.9297810   0.0118616  )
        58           Si  tau(  58) = (   0.0187056   0.6250870   0.9298720  )
        59           Si  tau(  59) = (   0.3739670   0.8137050   0.3027570  )
        60           Si  tau(  60) = (   0.1125750   0.4269000   0.7376740  )
        61           Si  tau(  61) = (   0.2181010   0.8451240   0.1748380  )
        62           Si  tau(  62) = (   0.6976620   0.2625340   0.3842940  )
        63           Si  tau(  63) = (   0.8180020   0.6301100   0.8376570  )
        64           Si  tau(  64) = (   0.6959840   0.4057100   0.0824170  )

     number of k points=     1  Fermi-Dirac smearing, width (Ry)=  0.0100
                       cart. coord. in units 2pi/alat
        k(    1) = (   0.0000000   0.0000000   0.0000000), wk =   2.0000000

     Dense  grid:   110560 G-vectors     FFT dimensions: (  75,  75,  75)

     Estimated max dynamical RAM per process >     175.92 MB

     Estimated total dynamical RAM >     676.68 MB

     Initial potential from superposition of free atoms

     starting charge     255.9608, renormalised to     256.0000
     Starting wfcs are  256 randomized atomic wfcs

     total cpu time spent up to now is        4.5 secs

     Self-consistent Calculation

     iteration #  1     ecut=    30.00 Ry     beta= 0.50
     Davidson diagonalization with overlap
     ethr =  1.00E-02,  avg # of iterations =  3.0

     Threshold (ethr) on eigenvalues was too large:
     Diagonalizing with lowered threshold

     Davidson diagonalization with overlap
     ethr =  6.28E-04,  avg # of iterations =  4.0

     total cpu time spent up to now is        4.8 secs

     total energy              =    -499.75909721 Ry
     estimated scf accuracy    <       2.15861183 Ry

     iteration #  2     ecut=    30.00 Ry     beta= 0.50
     Davidson diagonalization with overlap
     ethr =  8.43E-04,  avg # of iterations =  3.0

     total cpu time spent up to now is        5.0 secs

     total energy              =    -499.58399478 Ry
     estimated scf accuracy    <       3.04147353 Ry

     iteration #  3     ecut=    30.00 Ry     beta= 0.50
     Davidson diagonalization with overlap
     ethr =  8.43E-04,  avg # of iterations =  3.0

     total cpu time spent up to now is        5.1 secs

     total energy              =    -499.73802754 Ry
     estimated scf accuracy    <       6.00245991 Ry

     iteration #  4     ecut=    30.00 Ry     beta= 0.50
     Davidson diagonalization with overlap
     ethr =  8.43E-04,  avg # of iterations =  2.0

     total cpu time spent up to now is        5.2 secs

     total energy              =    -500.15238890 Ry
     estimated scf accuracy    <       0.94267856 Ry

     iteration #  5     ecut=    30.00 Ry     beta= 0.50
     Davidson diagonalization with overlap
     ethr =  3.68E-04,  avg # of iterations =  2.0

     total cpu time spent up to now is        5.3 secs

     total energy              =    -500.22261534 Ry
     estimated scf accuracy    <       0.45725175 Ry

     iteration #  6     ecut=    30.00 Ry     beta= 0.50
     Davidson diagonalization with overlap
     ethr =  1.79E-04,  avg # of iterations =  2.0

     total cpu time spent up to now is        5.5 secs

     total energy              =    -500.26057339 Ry
     estimated scf accuracy    <       0.24325370 Ry

     iteration #  7     ecut=    30.00 Ry     beta= 0.50
     Davidson diagonalization with overlap
     ethr =  9.50E-05,  avg # of iterations =  2.0

     total cpu time spent up to now is        5.6 secs

     total energy              =    -500.28001634 Ry
     estimated scf accuracy    <       0.03127430 Ry

     iteration #  8     ecut=    30.00 Ry     beta= 0.50
     Davidson diagonalization with overlap
     ethr =  1.22E-05,  avg # of iterations = 18.0

     total cpu time spent up to now is        5.8 secs

     total energy              =    -500.28189455 Ry
     estimated scf accuracy    <       0.05893971 Ry

     iteration #  9     ecut=    30.00 Ry     beta= 0.50
     Davidson diagonalization with overlap
     ethr =  1.22E-05,  avg # of iterations =  2.0

     total cpu time spent up to now is        5.9 secs

     total energy              =    -500.28618922 Ry
     estimated scf accuracy    <       0.00636377 Ry

     iteration # 10     ecut=    30.00 Ry     beta= 0.50
     Davidson diagonalization with overlap
     ethr =  2.49E-06,  avg # of iterations =  7.0

     total cpu time spent up to now is        6.1 secs

     total energy              =    -500.28678049 Ry
     estimated scf accuracy    <       0.00596377 Ry

     iteration # 11     ecut=    30.00 Ry     beta= 0.50
     Davidson diagonalization with overlap
     ethr =  2.33E-06,  avg # of iterations =  2.0

     total cpu time spent up to now is        6.2 secs

     total energy              =    -500.28721743 Ry
     estimated scf accuracy    <       0.00184024 Ry

     iteration # 12     ecut=    30.00 Ry     beta= 0.50
     Davidson diagonalization with overlap
     ethr =  7.19E-07,  avg # of iterations =  2.0

     total cpu time spent up to now is        6.3 secs

     total energy              =    -500.28738839 Ry
     estimated scf accuracy    <       0.00035653 Ry

     iteration # 13     ecut=    30.00 Ry     beta= 0.50
     Davidson diagonalization with overlap
     ethr =  1.39E-07,  avg # of iterations =  4.0

     total cpu time spent up to now is        6.5 secs

     total energy              =    -500.28741365 Ry
     estimated scf accuracy    <       0.00047809 Ry

     iteration # 14     ecut=    30.00 Ry     beta= 0.50
     Davidson diagonalization with overlap
     ethr =  1.39E-07,  avg # of iterations =  2.0

     total cpu time spent up to now is        6.6 secs

     total energy              =    -500.28744676 Ry
     estimated scf accuracy    <       0.00010423 Ry

     iteration # 15     ecut=    30.00 Ry     beta= 0.50
     Davidson diagonalization with overlap
     ethr =  4.07E-08,  avg # of iterations =  3.0

     total cpu time spent up to now is        6.7 secs

     total energy              =    -500.28745180 Ry
     estimated scf accuracy    <       0.00007039 Ry

     iteration # 16     ecut=    30.00 Ry     beta= 0.50
     Davidson diagonalization with overlap
     ethr =  2.75E-08,  avg # of iterations =  2.0

     total cpu time spent up to now is        6.9 secs

     total energy              =    -500.28745704 Ry
     estimated scf accuracy    <       0.00009325 Ry

     iteration # 17     ecut=    30.00 Ry     beta= 0.50
     Davidson diagonalization with overlap
     ethr =  2.75E-08,  avg # of iterations =  1.0

     total cpu time spent up to now is        7.0 secs

     total energy              =    -500.28746176 Ry
     estimated scf accuracy    <       0.00000984 Ry

     iteration # 18     ecut=    30.00 Ry     beta= 0.50
     Davidson diagonalization with overlap
     ethr =  3.85E-09,  avg # of iterations =  4.0

     total cpu time spent up to now is        7.1 secs

     total energy              =    -500.28746311 Ry
     estimated scf accuracy    <       0.00000881 Ry

     iteration # 19     ecut=    30.00 Ry     beta= 0.50
     Davidson diagonalization with overlap
     ethr =  3.44E-09,  avg # of iterations =  2.0

     total cpu time spent up to now is        7.2 secs

     total energy              =    -500.28746372 Ry
     estimated scf accuracy    <       0.00000260 Ry

     iteration # 20     ecut=    30.00 Ry     beta= 0.50
     Davidson diagonalization with overlap
     ethr =  1.01E-09,  avg # of iterations =  2.0

     total cpu time spent up to now is        7.4 secs

     total energy              =    -500.28746391 Ry
     estimated scf accuracy    <       0.00000103 Ry

     iteration # 21     ecut=    30.00 Ry     beta= 0.50
     Davidson diagonalization with overlap
     ethr =  4.01E-10,  avg # of iterations =  2.0

     total cpu time spent up to now is        7.5 secs

     End of self-consistent calculation

          k = 0.0000 0.0000 0.0000 ( 13805 PWs)   bands (ev):

    -7.3091  -6.9555  -6.6397  -6.5851  -6.4639  -6.3366  -6.2551  -6.1052
    -6.0135  -5.7188  -5.6211  -5.4680  -5.2845  -5.1514  -5.0571  -4.9045
    -4.8116  -4.6233  -4.4655  -4.3921  -4.2905  -4.0801  -3.9209  -3.8259
    -3.5561  -3.3495  -3.2042  -3.0935  -2.9065  -2.8631  -2.7172  -2.6197
    -2.5046  -2.3869  -2.3478  -2.2930  -2.0912  -2.0246  -1.9572  -1.7984
    -1.7517  -1.5790  -1.5444  -1.3650  -1.2623  -1.2104  -1.1315  -0.9048
    -0.8237  -0.7176  -0.6521  -0.6262  -0.4629  -0.3274  -0.1937  -0.1633
    -0.0130   0.0581   0.1629   0.2610   0.3908   0.5143   0.5810   0.6745
     0.7020   0.7926   0.9320   1.1274   1.1419   1.2075   1.2642   1.3189
     1.3679   1.4717   1.5395   1.6526   1.6902   1.7617   1.7788   1.9847
     2.0196   2.0584   2.0924   2.1537   2.2560   2.2713   2.4011   2.4451
     2.5237   2.5673   2.7214   2.7520   2.7940   2.8555   2.9368   3.0059
     3.0450   3.1151   3.1543   3.2314   3.2962   3.4246   3.4514   3.4816
     3.5659   3.6449   3.7152   3.7582   3.8141   3.8377   3.9352   3.9634
     4.0483   4.1262   4.1905   4.2645   4.3552   4.3959   4.4196   4.4628
     4.5034   4.5288   4.5686   4.6551   4.7315   4.7922   4.8542   4.8895
     4.9407   4.9562   5.1044   5.1181   5.2032   5.2531   5.2787   5.4082
     5.4563   5.5214   5.5706   5.6463   5.6906   5.7299   5.7468   5.8515
     5.8892   6.0000   6.0683   6.1400   6.1610   6.1910   6.2254   6.2604
     6.2850   6.4112

     the Fermi energy is     4.9249 ev

!    total energy              =    -500.28746338 Ry
     estimated scf accuracy    <       0.00000083 Ry
     smearing contrib. (-TS)   =      -0.15435673 Ry
     internal energy E=F+TS    =    -500.13310665 Ry

     The total energy is F=E-TS. E is the sum of the following terms:
     one-electron contribution =      42.05566151 Ry
     hartree contribution      =      76.63952728 Ry
     xc contribution           =    -149.44071501 Ry
     ewald contribution        =    -469.38758042 Ry

     convergence has been achieved in  21 iterations

     Forces acting on atoms (cartesian axes, Ry/au):

     atom    1 type  1   force =     0.01320193    0.06423797    0.05496984
     atom    2 type  1   force =    -0.02029788   -0.01832124    0.01093431
     atom    3 type  1   force =     0.00110449    0.02221050   -0.01752273
     atom    4 type  1   force =     0.05367336   -0.00643916    0.00457927
     atom    5 type  1   force =     0.01012564   -0.00460985    0.01159400
     atom    6 type  1   force =    -0.05375472    0.00127845   -0.02190967
     atom    7 type  1   force =    -0.04494950   -0.04317604    0.01638299
     atom    8 type  1   force =     0.00160307   -0.00955980   -0.01087153
     atom    9 type  1   force =    -0.00086685    0.02994847   -0.01873136
     atom   10 type  1   force =     0.00472538    0.03101784   -0.00825495
     atom   11 type  1   force =     0.01548484    0.01410077   -0.01835749
     atom   12 type  1   force =     0.02890744   -0.05323109    0.04701512
     atom   13 type  1   force =    -0.00028246    0.04714603   -0.00384175
     atom   14 type  1   force =     0.03619679   -0.01039839    0.02409364
     atom   15 type  1   force =    -0.00203418    0.01424645    0.00396750
     atom   16 type  1   force =    -0.00387584   -0.01143685   -0.04021591
     atom   17 type  1   force =    -0.03217618    0.15836576    0.04557592
     atom   18 type  1   force =    -0.03927621   -0.00276364   -0.05084857
     atom   19 type  1   force =    -0.03126574    0.02839512   -0.00555757
     atom   20 type  1   force =    -0.00381772    0.03273997    0.01744558
     atom   21 type  1   force =    -0.02334060   -0.05447460    0.01911683
     atom   22 type  1   force =     0.05912978   -0.04247118    0.00955359
     atom   23 type  1   force =    -0.00551699    0.02839001   -0.03576249
     atom   24 type  1   force =    -0.05193051   -0.07501565    0.03379348
     atom   25 type  1   force =    -0.00238277    0.00148084    0.04107961
     atom   26 type  1   force =     0.02519637   -0.01863652   -0.04473983
     atom   27 type  1   force =     0.00228603    0.03545733    0.03555903
     atom   28 type  1   force =     0.00158154   -0.03194405    0.03501187
     atom   29 type  1   force =    -0.01698083   -0.06186985   -0.03155955
     atom   30 type  1   force =     0.00268851   -0.01454235   -0.00172576
     atom   31 type  1   force =     0.01625378    0.01563038   -0.01846750
     atom   32 type  1   force =     0.01108818   -0.14604591   -0.00230435
     atom   33 type  1   force =     0.01075527    0.08343491    0.04509593
     atom   34 type  1   force =     0.02388297   -0.01185747   -0.01222358
     atom   35 type  1   force =    -0.02738379   -0.00852577   -0.00852870
     atom   36 type  1   force =    -0.09238354   -0.04970163    0.15153712
     atom   37 type  1   force =    -0.01061388   -0.01518293    0.01388228
     atom   38 type  1   force =     0.05458369    0.10756580   -0.02017080
     atom   39 type  1   force =     0.02459424   -0.02676577    0.00256192
     atom   40 type  1   force =     0.05598993    0.00693578   -0.04031069
     atom   41 type  1   force =    -0.04112174    0.02037215    0.02776532
     atom   42 type  1   force =     0.00859648   -0.03559388   -0.00233189
     atom   43 type  1   force =    -0.04976553    0.09582275    0.03753635
     atom   44 type  1   force =    -0.06086270    0.04152687   -0.02474747
     atom   45 type  1   force =    -0.03510539    0.03447275    0.08203530
     atom   46 type  1   force =    -0.03054009   -0.01392321   -0.01332680
     atom   47 type  1   force =     0.00542482    0.00769641    0.02419411
     atom   48 type  1   force =     0.00392967   -0.04984709    0.05899439
     atom   49 type  1   force =    -0.02053343    0.00890058   -0.01231931
     atom   50 type  1   force =     0.01410470    0.01595449   -0.02787386
     atom   51 type  1   force =    -0.00179072   -0.04200447    0.00827014
     atom   52 type  1   force =    -0.01676608   -0.02672246    0.02029989
     atom   53 type  1   force =     0.01313086   -0.04623398   -0.04172597
     atom   54 type  1   force =     0.06803573    0.00718531    0.00105037
     atom   55 type  1   force =     0.03005058    0.00668924   -0.00204618
     atom   56 type  1   force =    -0.03739957    0.00688210   -0.01711163
     atom   57 type  1   force =    -0.04564341    0.02267685   -0.04941023
     atom   58 type  1   force =     0.04061614    0.08220540    0.02926443
     atom   59 type  1   force =     0.08700430    0.02609567    0.00490784
     atom   60 type  1   force =    -0.02054383   -0.10020385   -0.03076084
     atom   61 type  1   force =     0.06897500    0.04294998   -0.15074170
     atom   62 type  1   force =     0.09523612   -0.06234389   -0.03018629
     atom   63 type  1   force =    -0.06320254    0.07950897   -0.01763734
     atom   64 type  1   force =    -0.00175243   -0.12767934   -0.08594365

     Total force =     0.602944     Total SCF correction =     0.001680


     Computing stress (Cartesian axis) and pressure

          total   stress  (Ry/bohr**3)                   (kbar)     P=       -3.76
  -0.00003251   0.00000091   0.00002616           -4.78        0.13        3.85
   0.00000091   0.00003824   0.00002588            0.13        5.62        3.81
   0.00002616   0.00002588  -0.00008237            3.85        3.81      -12.12

 
     init_run     :      0.81s CPU      4.45s WALL (       1 calls)
     electrons    :      2.77s CPU      2.94s WALL (       1 calls)
     forces       :      0.04s CPU      0.04s WALL (       1 calls)
     stress       :      0.18s CPU      0.19s WALL (       1 calls)

     Called by init_run:
     wfcinit      :      0.60s CPU      4.06s WALL (       1 calls)
                                        4.06s GPU  (       1 calls)
     potinit      :      0.05s CPU      0.13s WALL (       1 calls)
     hinit0       :      0.14s CPU      0.17s WALL (       1 calls)

     Called by electrons:
     c_bands      :      1.58s CPU      1.65s WALL (      22 calls)
     sum_band     :      0.58s CPU      0.64s WALL (      22 calls)
     v_of_rho     :      0.26s CPU      0.35s WALL (      22 calls)
     mix_rho      :      0.27s CPU      0.29s WALL (      22 calls)

     Called by c_bands:
     init_us_2    :      0.08s CPU      0.08s WALL (      45 calls)
     init_us_2:gp :      0.08s CPU      0.08s WALL (      45 calls)
     regterg      :      1.39s CPU      1.45s WALL (      22 calls)

     Called by *egterg:
     rdiaghg      :      0.45s CPU      1.16s WALL (      95 calls)
                                        1.14s GPU  (      95 calls)
     h_psi        :      1.33s CPU      4.12s WALL (      97 calls)
                                        4.12s GPU  (      97 calls)
     g_psi        :      0.00s CPU      0.00s WALL (      74 calls)
                                        0.00s GPU  (      74 calls)

     Called by h_psi:
     h_psi:calbec :      0.55s CPU      3.24s WALL (      97 calls)
                                        3.24s GPU  (      97 calls)
     vloc_psi     :      0.72s CPU      0.80s WALL (      97 calls)
                                        0.80s GPU  (      97 calls)
     add_vuspsi   :      0.04s CPU      0.06s WALL (      97 calls)
                                        0.06s GPU  (      97 calls)

     General routines
     calbec       :      0.55s CPU      3.25s WALL (     102 calls)
     fft          :      0.40s CPU      0.53s WALL (     183 calls)
                                        0.12s GPU  (     116 calls)
     ffts         :      0.09s CPU      0.10s WALL (      22 calls)
     fftw         :      0.78s CPU      1.02s WALL (    2296 calls)
                                        0.92s GPU  (    2296 calls)
 
     Parallel routines
 
     PWSCF        :      3.85s CPU      7.72s WALL

 
   This run was terminated on:  14: 3:27  10May2023            

=------------------------------------------------------------------------------=
   JOB DONE.
=------------------------------------------------------------------------------=
