An instance of this daemon is already running

     Program PWSCF v.7.1 starts on 10May2023 at 14:10:13 

     This program is part of the open-source Quantum ESPRESSO suite
     for quantum simulation of materials; please cite
         "P. Giannozzi et al., J. Phys.:Condens. Matter 21 395502 (2009);
         "P. Giannozzi et al., J. Phys.:Condens. Matter 29 465901 (2017);
         "P. Giannozzi et al., J. Chem. Phys. 152 154105 (2020);
          URL http://www.quantum-espresso.org", 
     in publications or presentations arising from this work. More details at
     http://www.quantum-espresso.org/quote

     Parallel version (MPI & OpenMP), running on       4 processor cores
     Number of MPI processes:                 4
     Threads/MPI process:                     1

     MPI processes distributed on     1 nodes
     752766 MiB available memory on the printing compute node when the environment starts
 
     Reading input from pw-si-76.in
Warning: card &CELL ignored
Warning: card / ignored

     Current dimensions of program PWSCF are:
     Max number of different atomic species (ntypx) = 10
     Max number of k-points (npk) =  40000
     Max angular momentum in pseudopotentials (lmaxx) =  4

     IMPORTANT: XC functional enforced from input :
     Exchange-correlation= PBE
                           (   1   4   3   4   0   0   0)
     Any further DFT definition will be discarded
     Please, verify this is what you really want


     gamma-point specific algorithms are used
 
     K-points division:     npool     =       2
     R & G space division:  proc/nbgrp/npool/nimage =       2
     Subspace diagonalization in iterative solution of the eigenvalue problem:
     a serial algorithm will be used

     Message from routine divide_et_impera:
     suboptimal parallelization: some nodes have no k-points
 
     Parallelization info
     --------------------
     sticks:   dense  smooth     PW     G-vecs:    dense   smooth      PW
     Min        2268    2268    600               115192   115192   15668
     Max        2269    2269    601               115197   115197   15675
     Sum        4537    4537   1201               230389   230389   31343
 
     Using Slab Decomposition
 


     bravais-lattice index     =            0
     lattice parameter (alat)  =      21.8208  a.u.
     unit-cell volume          =   10389.9232 (a.u.)^3
     number of atoms/cell      =           64
     number of atomic types    =            1
     number of electrons       =       256.00
     number of Kohn-Sham states=          154
     kinetic-energy cutoff     =      30.0000  Ry
     charge density cutoff     =     120.0000  Ry
     scf convergence threshold =      1.0E-06
     mixing beta               =       0.5000
     number of iterations used =            8  plain     mixing
     Exchange-correlation= PBE
                           (   1   4   3   4   0   0   0)

     GPU acceleration is ACTIVE.
     GPU-aware MPI enabled

     Message from routine print_cuda_info:
     High GPU oversubscription detected. Are you sure this is what you want?

     celldm(1)=  21.820806  celldm(2)=   0.000000  celldm(3)=   0.000000
     celldm(4)=   0.000000  celldm(5)=   0.000000  celldm(6)=   0.000000

     crystal axes: (cart. coord. in units of alat)
               a(1) = (   1.000000   0.000000   0.000000 )  
               a(2) = (   0.000000   1.000000   0.000000 )  
               a(3) = (   0.000000   0.000000   1.000000 )  

     reciprocal axes: (cart. coord. in units 2 pi/alat)
               b(1) = (  1.000000  0.000000  0.000000 )  
               b(2) = (  0.000000  1.000000  0.000000 )  
               b(3) = (  0.000000  0.000000  1.000000 )  


     PseudoPot. # 1 for Si read from file:
     /home/ppiaggi/pseudos/Si_ONCV_PBE_sr.upf
     MD5 check sum: 8553c464762ac42b85b1eed164b4d029
     Pseudo is Norm-conserving, Zval =  4.0
     Generated using ONCVPSP code by D. R. Hamann
     Using radial grid of 1510 points,  4 beta functions with: 
                l(1) =   0
                l(2) =   0
                l(3) =   1
                l(4) =   1

     atomic species   valence    mass     pseudopotential
        Si             4.00    28.08500     Si( 1.00)

     No symmetry found



   Cartesian axes

     site n.     atom                  positions (alat units)
         1           Si  tau(   1) = (   0.2256010   0.1978420   0.7061150  )
         2           Si  tau(   2) = (   0.0716421   0.1081030   0.2838460  )
         3           Si  tau(   3) = (   0.8331300   0.0661104   0.6944740  )
         4           Si  tau(   4) = (   0.4533990   0.5803500   0.0712387  )
         5           Si  tau(   5) = (   0.6194590   0.9853420   0.5603890  )
         6           Si  tau(   6) = (   0.3457060   0.2492010   0.4234040  )
         7           Si  tau(   7) = (   0.4436290   0.9476810   0.8591120  )
         8           Si  tau(   8) = (   0.8583330   0.4771630   0.1232370  )
         9           Si  tau(   9) = (   0.5847840   0.0543759   0.9628340  )
        10           Si  tau(  10) = (   0.2680400   0.3915520   0.5834740  )
        11           Si  tau(  11) = (   0.3011420   0.5944640   0.7016940  )
        12           Si  tau(  12) = (   0.9621950   0.4482260   0.3340370  )
        13           Si  tau(  13) = (   0.5468240   0.3550220   0.7073030  )
        14           Si  tau(  14) = (   0.6259630   0.7657900   0.3390540  )
        15           Si  tau(  15) = (   0.0437730   0.1050000   0.6782430  )
        16           Si  tau(  16) = (   0.4713680   0.7679330   0.4966780  )
        17           Si  tau(  17) = (   0.5930300   0.7186120   0.1353120  )
        18           Si  tau(  18) = (   0.4071640   0.0902819   0.7074930  )
        19           Si  tau(  19) = (   0.6093410   0.5981330   0.4831810  )
        20           Si  tau(  20) = (   0.2016330   0.1743180   0.1404340  )
        21           Si  tau(  21) = (   0.6815720   0.9646790   0.3364590  )
        22           Si  tau(  22) = (   0.0972689   0.0055696   0.1116420  )
        23           Si  tau(  23) = (   0.6588100   0.2178350   0.2130980  )
        24           Si  tau(  24) = (   0.5890710   0.2789600   0.0139427  )
        25           Si  tau(  25) = (   0.1601430   0.1996470   0.5073950  )
        26           Si  tau(  26) = (   0.0960266   0.5723660   0.2485570  )
        27           Si  tau(  27) = (   0.9983710   0.6823480   0.4168570  )
        28           Si  tau(  28) = (   0.3720700   0.1099400   0.2587610  )
        29           Si  tau(  29) = (   0.1049060   0.0034516   0.5015130  )
        30           Si  tau(  30) = (   0.0200828   0.4957070   0.5084420  )
        31           Si  tau(  31) = (   0.5034140   0.4568200   0.8747770  )
        32           Si  tau(  32) = (   0.7997350   0.5013770   0.9148240  )
        33           Si  tau(  33) = (   0.1892270   0.4771040   0.8310540  )
        34           Si  tau(  34) = (   0.8143380   0.5873300   0.4282650  )
        35           Si  tau(  35) = (   0.0117801   0.2584550   0.4050970  )
        36           Si  tau(  36) = (   0.1332120   0.8485110   0.3837150  )
        37           Si  tau(  37) = (   0.6552950   0.8936940   0.0794014  )
        38           Si  tau(  38) = (   0.8711660   0.3141060   0.0001818  )
        39           Si  tau(  39) = (   0.4647420   0.5032130   0.5676620  )
        40           Si  tau(  40) = (   0.9640060   0.9422150   0.6369380  )
        41           Si  tau(  41) = (   0.8128180   0.9820760   0.5131820  )
        42           Si  tau(  42) = (   0.2941170   0.7327700   0.4064610  )
        43           Si  tau(  43) = (   0.6416070   0.3952270   0.5206460  )
        44           Si  tau(  44) = (   0.9375260   0.0074601   0.0157515  )
        45           Si  tau(  45) = (   0.9696900   0.7051120   0.9353850  )
        46           Si  tau(  46) = (   0.5414470   0.0406876   0.2169890  )
        47           Si  tau(  47) = (   0.1442980   0.6157280   0.0303116  )
        48           Si  tau(  48) = (   0.4061570   0.7822400   0.1143900  )
        49           Si  tau(  49) = (   0.1886790   0.6072010   0.5330200  )
        50           Si  tau(  50) = (   0.8719640   0.3705000   0.8025050  )
        51           Si  tau(  51) = (   0.6557660   0.0420017   0.7592180  )
        52           Si  tau(  52) = (   0.7209150   0.2315180   0.7456780  )
        53           Si  tau(  53) = (   0.1024010   0.9014020   0.9304690  )
        54           Si  tau(  54) = (   0.4716300   0.9077750   0.6678560  )
        55           Si  tau(  55) = (   0.3198580   0.4695310   0.9830050  )
        56           Si  tau(  56) = (   0.3801290   0.2441470   0.0899409  )
        57           Si  tau(  57) = (   0.7617600   0.1314830   0.0677717  )
        58           Si  tau(  58) = (   0.1521690   0.6807040   0.8224730  )
        59           Si  tau(  59) = (   0.1921060   0.7501910   0.2063300  )
        60           Si  tau(  60) = (   0.9765770   0.5536740   0.8349120  )
        61           Si  tau(  61) = (   0.2845930   0.8952070   0.9838780  )
        62           Si  tau(  62) = (   0.5492390   0.2484010   0.3854070  )
        63           Si  tau(  63) = (   0.7627610   0.6590880   0.0560252  )
        64           Si  tau(  64) = (   0.6426260   0.5159650   0.1661560  )

     number of k points=     1  Fermi-Dirac smearing, width (Ry)=  0.0100
                       cart. coord. in units 2pi/alat
        k(    1) = (   0.0000000   0.0000000   0.0000000), wk =   2.0000000

     Dense  grid:   115195 G-vectors     FFT dimensions: (  80,  80,  80)

     Estimated max dynamical RAM per process >     185.53 MB

     Estimated total dynamical RAM >     714.01 MB

     Initial potential from superposition of free atoms

     starting charge     255.9608, renormalised to     256.0000
     Starting wfcs are  256 randomized atomic wfcs

     total cpu time spent up to now is        5.1 secs

     Self-consistent Calculation

     iteration #  1     ecut=    30.00 Ry     beta= 0.50
     Davidson diagonalization with overlap
     ethr =  1.00E-02,  avg # of iterations =  3.0

     Threshold (ethr) on eigenvalues was too large:
     Diagonalizing with lowered threshold

     Davidson diagonalization with overlap
     ethr =  6.82E-04,  avg # of iterations =  4.0

     total cpu time spent up to now is        5.4 secs

     total energy              =    -499.80453003 Ry
     estimated scf accuracy    <       2.33813018 Ry

     iteration #  2     ecut=    30.00 Ry     beta= 0.50
     Davidson diagonalization with overlap
     ethr =  9.13E-04,  avg # of iterations =  3.0

     total cpu time spent up to now is        5.6 secs

     total energy              =    -499.50331366 Ry
     estimated scf accuracy    <       3.81440448 Ry

     iteration #  3     ecut=    30.00 Ry     beta= 0.50
     Davidson diagonalization with overlap
     ethr =  9.13E-04,  avg # of iterations =  3.0

     total cpu time spent up to now is        5.7 secs

     total energy              =    -499.78431230 Ry
     estimated scf accuracy    <       6.33384507 Ry

     iteration #  4     ecut=    30.00 Ry     beta= 0.50
     Davidson diagonalization with overlap
     ethr =  9.13E-04,  avg # of iterations =  2.0

     total cpu time spent up to now is        5.8 secs

     total energy              =    -500.20961544 Ry
     estimated scf accuracy    <       1.11808290 Ry

     iteration #  5     ecut=    30.00 Ry     beta= 0.50
     Davidson diagonalization with overlap
     ethr =  4.37E-04,  avg # of iterations =  2.0

     total cpu time spent up to now is        5.9 secs

     total energy              =    -500.30799503 Ry
     estimated scf accuracy    <       0.31504544 Ry

     iteration #  6     ecut=    30.00 Ry     beta= 0.50
     Davidson diagonalization with overlap
     ethr =  1.23E-04,  avg # of iterations =  2.0

     total cpu time spent up to now is        6.1 secs

     total energy              =    -500.33997478 Ry
     estimated scf accuracy    <       0.22982083 Ry

     iteration #  7     ecut=    30.00 Ry     beta= 0.50
     Davidson diagonalization with overlap
     ethr =  8.98E-05,  avg # of iterations =  1.0

     total cpu time spent up to now is        6.2 secs

     total energy              =    -500.35756937 Ry
     estimated scf accuracy    <       0.03742620 Ry

     iteration #  8     ecut=    30.00 Ry     beta= 0.50
     Davidson diagonalization with overlap
     ethr =  1.46E-05,  avg # of iterations =  9.0

     total cpu time spent up to now is        6.3 secs

     total energy              =    -500.35969737 Ry
     estimated scf accuracy    <       0.05325594 Ry

     iteration #  9     ecut=    30.00 Ry     beta= 0.50
     Davidson diagonalization with overlap
     ethr =  1.46E-05,  avg # of iterations =  2.0

     total cpu time spent up to now is        6.5 secs

     total energy              =    -500.36371306 Ry
     estimated scf accuracy    <       0.00994589 Ry

     iteration # 10     ecut=    30.00 Ry     beta= 0.50
     Davidson diagonalization with overlap
     ethr =  3.89E-06,  avg # of iterations = 15.0

     total cpu time spent up to now is        6.7 secs

     total energy              =    -500.36454762 Ry
     estimated scf accuracy    <       0.00389015 Ry

     iteration # 11     ecut=    30.00 Ry     beta= 0.50
     Davidson diagonalization with overlap
     ethr =  1.52E-06,  avg # of iterations =  6.0

     total cpu time spent up to now is        6.8 secs

     total energy              =    -500.36494586 Ry
     estimated scf accuracy    <       0.00196247 Ry

     iteration # 12     ecut=    30.00 Ry     beta= 0.50
     Davidson diagonalization with overlap
     ethr =  7.67E-07,  avg # of iterations =  2.0

     total cpu time spent up to now is        6.9 secs

     total energy              =    -500.36510486 Ry
     estimated scf accuracy    <       0.00036573 Ry

     iteration # 13     ecut=    30.00 Ry     beta= 0.50
     Davidson diagonalization with overlap
     ethr =  1.43E-07,  avg # of iterations =  4.0

     total cpu time spent up to now is        7.1 secs

     total energy              =    -500.36513354 Ry
     estimated scf accuracy    <       0.00040603 Ry

     iteration # 14     ecut=    30.00 Ry     beta= 0.50
     Davidson diagonalization with overlap
     ethr =  1.43E-07,  avg # of iterations =  2.0

     total cpu time spent up to now is        7.2 secs

     total energy              =    -500.36516705 Ry
     estimated scf accuracy    <       0.00008843 Ry

     iteration # 15     ecut=    30.00 Ry     beta= 0.50
     Davidson diagonalization with overlap
     ethr =  3.45E-08,  avg # of iterations =  3.0

     total cpu time spent up to now is        7.3 secs

     total energy              =    -500.36516854 Ry
     estimated scf accuracy    <       0.00012634 Ry

     iteration # 16     ecut=    30.00 Ry     beta= 0.50
     Davidson diagonalization with overlap
     ethr =  3.45E-08,  avg # of iterations =  2.0

     total cpu time spent up to now is        7.4 secs

     total energy              =    -500.36517842 Ry
     estimated scf accuracy    <       0.00002454 Ry

     iteration # 17     ecut=    30.00 Ry     beta= 0.50
     Davidson diagonalization with overlap
     ethr =  9.59E-09,  avg # of iterations =  2.0

     total cpu time spent up to now is        7.6 secs

     total energy              =    -500.36517995 Ry
     estimated scf accuracy    <       0.00001860 Ry

     iteration # 18     ecut=    30.00 Ry     beta= 0.50
     Davidson diagonalization with overlap
     ethr =  7.27E-09,  avg # of iterations =  2.0

     total cpu time spent up to now is        7.7 secs

     total energy              =    -500.36518116 Ry
     estimated scf accuracy    <       0.00000774 Ry

     iteration # 19     ecut=    30.00 Ry     beta= 0.50
     Davidson diagonalization with overlap
     ethr =  3.02E-09,  avg # of iterations =  2.0

     total cpu time spent up to now is        7.8 secs

     total energy              =    -500.36518189 Ry
     estimated scf accuracy    <       0.00000400 Ry

     iteration # 20     ecut=    30.00 Ry     beta= 0.50
     Davidson diagonalization with overlap
     ethr =  1.56E-09,  avg # of iterations =  2.0

     total cpu time spent up to now is        7.9 secs

     total energy              =    -500.36518215 Ry
     estimated scf accuracy    <       0.00000170 Ry

     iteration # 21     ecut=    30.00 Ry     beta= 0.50
     Davidson diagonalization with overlap
     ethr =  6.64E-10,  avg # of iterations =  2.0

     total cpu time spent up to now is        8.0 secs

     End of self-consistent calculation

          k = 0.0000 0.0000 0.0000 ( 14336 PWs)   bands (ev):

    -8.0037  -7.8253  -7.3873  -7.3284  -7.0894  -7.0280  -6.9224  -6.7842
    -6.5650  -6.5010  -6.1189  -6.0538  -5.9173  -5.6758  -5.5191  -5.4495
    -5.3487  -5.2788  -4.8560  -4.7551  -4.6612  -4.5137  -4.4735  -4.2181
    -4.1533  -3.8757  -3.7830  -3.6159  -3.5832  -3.4291  -3.3864  -3.2703
    -3.1134  -3.0084  -2.8630  -2.7720  -2.7080  -2.7001  -2.4898  -2.3531
    -2.3049  -2.2408  -2.1402  -2.0215  -1.8712  -1.7049  -1.6219  -1.5127
    -1.3026  -1.2888  -1.1151  -1.0122  -0.9492  -0.8564  -0.6782  -0.4224
    -0.3713  -0.3596  -0.2488  -0.1704  -0.0882   0.0644   0.2016   0.2896
     0.3815   0.4486   0.5379   0.5736   0.7090   0.7449   0.8610   0.8971
     1.0185   1.0853   1.1347   1.2109   1.2475   1.3114   1.3858   1.4331
     1.5344   1.5915   1.6500   1.6656   1.7542   1.7891   1.8647   1.8743
     2.0883   2.1922   2.1977   2.3185   2.3211   2.3511   2.3993   2.4957
     2.5354   2.6227   2.6822   2.7974   2.8247   2.8990   2.9172   3.0547
     3.1148   3.1772   3.2644   3.2969   3.3428   3.3758   3.4773   3.5341
     3.5710   3.6396   3.7341   3.7742   3.8106   3.9085   3.9671   4.0755
     4.1231   4.1516   4.2301   4.2821   4.3553   4.4402   4.4931   4.5044
     4.5590   4.6181   4.6762   4.7677   4.8081   4.8664   4.8960   4.9920
     5.0282   5.1224   5.1792   5.2823   5.3526   5.4300   5.4403   5.4912
     5.5851   5.6672   5.7044   5.7288   5.7637   5.8331   5.8725   5.9463
     5.9743   6.0852

     the Fermi energy is     4.5486 ev

!    total energy              =    -500.36518200 Ry
     estimated scf accuracy    <       0.00000048 Ry
     smearing contrib. (-TS)   =      -0.15442758 Ry
     internal energy E=F+TS    =    -500.21075442 Ry

     The total energy is F=E-TS. E is the sum of the following terms:
     one-electron contribution =      -0.71785143 Ry
     hartree contribution      =      93.93975066 Ry
     xc contribution           =    -150.38421321 Ry
     ewald contribution        =    -443.04844044 Ry

     convergence has been achieved in  21 iterations

     Forces acting on atoms (cartesian axes, Ry/au):

     atom    1 type  1   force =     0.01127986    0.01363469    0.00457989
     atom    2 type  1   force =    -0.00241779   -0.01248233    0.05391973
     atom    3 type  1   force =     0.01666017    0.07966024    0.01553590
     atom    4 type  1   force =     0.03200299   -0.00143214    0.00262768
     atom    5 type  1   force =     0.00136951    0.02312300   -0.00545968
     atom    6 type  1   force =     0.02086621   -0.00822868   -0.01067160
     atom    7 type  1   force =    -0.02964756    0.01263927    0.03461200
     atom    8 type  1   force =    -0.01421590    0.01139872    0.03838131
     atom    9 type  1   force =     0.02585082    0.00761135    0.00293612
     atom   10 type  1   force =     0.00886902    0.01607116   -0.01180297
     atom   11 type  1   force =     0.01771422    0.01114454    0.00046737
     atom   12 type  1   force =    -0.03362868   -0.02470981   -0.08026788
     atom   13 type  1   force =     0.00345081   -0.02500905   -0.02283197
     atom   14 type  1   force =    -0.01614546   -0.01973493    0.00949297
     atom   15 type  1   force =     0.03154198    0.10610268    0.04454077
     atom   16 type  1   force =     0.01594367    0.00211980    0.00476203
     atom   17 type  1   force =    -0.00768210   -0.01940966    0.04782450
     atom   18 type  1   force =    -0.00854533    0.04108217   -0.00097646
     atom   19 type  1   force =     0.04950117    0.05787479   -0.02094806
     atom   20 type  1   force =     0.01177381    0.00020971   -0.00090535
     atom   21 type  1   force =     0.03058309    0.00304021    0.01778418
     atom   22 type  1   force =     0.05475117   -0.02795057    0.03269471
     atom   23 type  1   force =    -0.02599351    0.02830244    0.00813143
     atom   24 type  1   force =    -0.02370411    0.01499083   -0.00485260
     atom   25 type  1   force =     0.05542264   -0.02134702    0.02628785
     atom   26 type  1   force =     0.00058750    0.01200586   -0.01820210
     atom   27 type  1   force =     0.00895277    0.02345281   -0.01991468
     atom   28 type  1   force =    -0.10344576    0.05195733    0.02508622
     atom   29 type  1   force =    -0.00179484    0.01005469   -0.03025841
     atom   30 type  1   force =     0.01607624    0.00356523    0.09557376
     atom   31 type  1   force =     0.02355733   -0.00259541    0.04587058
     atom   32 type  1   force =    -0.09762332    0.07055983    0.07042878
     atom   33 type  1   force =    -0.03253957   -0.03967972   -0.02259151
     atom   34 type  1   force =     0.01192662   -0.00244879    0.00154024
     atom   35 type  1   force =    -0.07823951    0.02625476   -0.02887850
     atom   36 type  1   force =    -0.03271952   -0.00560111    0.00006809
     atom   37 type  1   force =     0.01185298    0.08252487    0.01105861
     atom   38 type  1   force =    -0.01128389   -0.02520984    0.00640521
     atom   39 type  1   force =    -0.07462347   -0.02112521    0.03809734
     atom   40 type  1   force =     0.03699562   -0.18528495   -0.03184604
     atom   41 type  1   force =    -0.00102545    0.00160106   -0.06405027
     atom   42 type  1   force =    -0.00512740   -0.04240294   -0.00339727
     atom   43 type  1   force =     0.01189273   -0.03983801   -0.00477047
     atom   44 type  1   force =    -0.07331052    0.00293353   -0.05479497
     atom   45 type  1   force =    -0.01014313    0.12745028    0.10467735
     atom   46 type  1   force =     0.06985833   -0.03801039   -0.06555047
     atom   47 type  1   force =    -0.00814443    0.00601457    0.00716428
     atom   48 type  1   force =    -0.07269904    0.01497299    0.00693266
     atom   49 type  1   force =     0.01938234   -0.00427281   -0.01338901
     atom   50 type  1   force =     0.03198611   -0.07160516   -0.06859516
     atom   51 type  1   force =    -0.07350442   -0.02390913    0.04800785
     atom   52 type  1   force =    -0.00256620    0.05889472    0.00620298
     atom   53 type  1   force =    -0.08989823   -0.03409911   -0.03250283
     atom   54 type  1   force =    -0.00644095   -0.05982985   -0.05194278
     atom   55 type  1   force =    -0.01023993   -0.05163540    0.01361858
     atom   56 type  1   force =     0.02805554    0.01964939   -0.01421873
     atom   57 type  1   force =     0.02827348   -0.00351899   -0.03048322
     atom   58 type  1   force =     0.01344209    0.04399509   -0.00561283
     atom   59 type  1   force =     0.03559370    0.00482938   -0.01117485
     atom   60 type  1   force =     0.06531408   -0.11242462   -0.10728469
     atom   61 type  1   force =     0.07343391   -0.01914883    0.00936373
     atom   62 type  1   force =     0.00987451    0.01595592    0.03006592
     atom   63 type  1   force =     0.08431120   -0.02150510   -0.03506633
     atom   64 type  1   force =    -0.02159821   -0.04122834    0.00850102

     Total force =     0.578153     Total SCF correction =     0.001233


     Computing stress (Cartesian axis) and pressure

          total   stress  (Ry/bohr**3)                   (kbar)     P=       12.75
   0.00014124   0.00005218   0.00000482           20.78        7.68        0.71
   0.00005218   0.00007701   0.00008513            7.68       11.33       12.52
   0.00000482   0.00008513   0.00004185            0.71       12.52        6.16

 
     init_run     :      1.14s CPU      5.04s WALL (       1 calls)
     electrons    :      2.71s CPU      2.91s WALL (       1 calls)
     forces       :      0.04s CPU      0.05s WALL (       1 calls)
     stress       :      0.19s CPU      0.20s WALL (       1 calls)

     Called by init_run:
     wfcinit      :      0.58s CPU      4.29s WALL (       1 calls)
                                        4.29s GPU  (       1 calls)
     potinit      :      0.06s CPU      0.16s WALL (       1 calls)
     hinit0       :      0.48s CPU      0.50s WALL (       1 calls)

     Called by electrons:
     c_bands      :      1.44s CPU      1.51s WALL (      22 calls)
     sum_band     :      0.60s CPU      0.67s WALL (      22 calls)
     v_of_rho     :      0.30s CPU      0.42s WALL (      22 calls)
     mix_rho      :      0.28s CPU      0.31s WALL (      22 calls)

     Called by c_bands:
     init_us_2    :      0.08s CPU      0.09s WALL (      45 calls)
     init_us_2:gp :      0.08s CPU      0.08s WALL (      45 calls)
     regterg      :      1.24s CPU      1.30s WALL (      22 calls)

     Called by *egterg:
     rdiaghg      :      0.43s CPU      1.19s WALL (      96 calls)
                                        1.18s GPU  (      96 calls)
     h_psi        :      1.16s CPU      4.15s WALL (      98 calls)
                                        4.15s GPU  (      98 calls)
     g_psi        :      0.00s CPU      0.00s WALL (      75 calls)
                                        0.00s GPU  (      75 calls)

     Called by h_psi:
     h_psi:calbec :      0.54s CPU      3.43s WALL (      98 calls)
                                        3.43s GPU  (      98 calls)
     vloc_psi     :      0.55s CPU      0.65s WALL (      98 calls)
                                        0.64s GPU  (      98 calls)
     add_vuspsi   :      0.04s CPU      0.06s WALL (      98 calls)
                                        0.06s GPU  (      98 calls)

     General routines
     calbec       :      0.55s CPU      3.43s WALL (     103 calls)
     fft          :      0.78s CPU      0.92s WALL (     183 calls)
                                        0.14s GPU  (     116 calls)
     ffts         :      0.12s CPU      0.13s WALL (      22 calls)
     fftw         :      0.63s CPU      0.83s WALL (    2296 calls)
                                        0.71s GPU  (    2296 calls)
 
     Parallel routines
 
     PWSCF        :      4.13s CPU      8.30s WALL

 
   This run was terminated on:  14:10:21  10May2023            

=------------------------------------------------------------------------------=
   JOB DONE.
=------------------------------------------------------------------------------=
