An instance of this daemon is already running

     Program PWSCF v.7.1 starts on 10May2023 at 14: 3:50 

     This program is part of the open-source Quantum ESPRESSO suite
     for quantum simulation of materials; please cite
         "P. Giannozzi et al., J. Phys.:Condens. Matter 21 395502 (2009);
         "P. Giannozzi et al., J. Phys.:Condens. Matter 29 465901 (2017);
         "P. Giannozzi et al., J. Chem. Phys. 152 154105 (2020);
          URL http://www.quantum-espresso.org", 
     in publications or presentations arising from this work. More details at
     http://www.quantum-espresso.org/quote

     Parallel version (MPI & OpenMP), running on       4 processor cores
     Number of MPI processes:                 4
     Threads/MPI process:                     1

     MPI processes distributed on     1 nodes
     752394 MiB available memory on the printing compute node when the environment starts
 
     Reading input from pw-si-39.in
Warning: card &CELL ignored
Warning: card / ignored

     Current dimensions of program PWSCF are:
     Max number of different atomic species (ntypx) = 10
     Max number of k-points (npk) =  40000
     Max angular momentum in pseudopotentials (lmaxx) =  4

     IMPORTANT: XC functional enforced from input :
     Exchange-correlation= PBE
                           (   1   4   3   4   0   0   0)
     Any further DFT definition will be discarded
     Please, verify this is what you really want


     gamma-point specific algorithms are used
 
     K-points division:     npool     =       2
     R & G space division:  proc/nbgrp/npool/nimage =       2
     Subspace diagonalization in iterative solution of the eigenvalue problem:
     a serial algorithm will be used

     Message from routine divide_et_impera:
     suboptimal parallelization: some nodes have no k-points
 
     Parallelization info
     --------------------
     sticks:   dense  smooth     PW     G-vecs:    dense   smooth      PW
     Min        2233    2233    592               111867   111867   15107
     Max        2236    2236    593               111868   111868   15108
     Sum        4469    4469   1185               223735   223735   30215
 
     Using Slab Decomposition
 


     bravais-lattice index     =            0
     lattice parameter (alat)  =      21.6056  a.u.
     unit-cell volume          =   10085.5287 (a.u.)^3
     number of atoms/cell      =           64
     number of atomic types    =            1
     number of electrons       =       256.00
     number of Kohn-Sham states=          154
     kinetic-energy cutoff     =      30.0000  Ry
     charge density cutoff     =     120.0000  Ry
     scf convergence threshold =      1.0E-06
     mixing beta               =       0.5000
     number of iterations used =            8  plain     mixing
     Exchange-correlation= PBE
                           (   1   4   3   4   0   0   0)

     GPU acceleration is ACTIVE.
     GPU-aware MPI enabled

     Message from routine print_cuda_info:
     High GPU oversubscription detected. Are you sure this is what you want?

     celldm(1)=  21.605595  celldm(2)=   0.000000  celldm(3)=   0.000000
     celldm(4)=   0.000000  celldm(5)=   0.000000  celldm(6)=   0.000000

     crystal axes: (cart. coord. in units of alat)
               a(1) = (   1.000000   0.000000   0.000000 )  
               a(2) = (   0.000000   1.000000   0.000000 )  
               a(3) = (   0.000000   0.000000   1.000000 )  

     reciprocal axes: (cart. coord. in units 2 pi/alat)
               b(1) = (  1.000000  0.000000  0.000000 )  
               b(2) = (  0.000000  1.000000  0.000000 )  
               b(3) = (  0.000000  0.000000  1.000000 )  


     PseudoPot. # 1 for Si read from file:
     /home/ppiaggi/pseudos/Si_ONCV_PBE_sr.upf
     MD5 check sum: 8553c464762ac42b85b1eed164b4d029
     Pseudo is Norm-conserving, Zval =  4.0
     Generated using ONCVPSP code by D. R. Hamann
     Using radial grid of 1510 points,  4 beta functions with: 
                l(1) =   0
                l(2) =   0
                l(3) =   1
                l(4) =   1

     atomic species   valence    mass     pseudopotential
        Si             4.00    28.08500     Si( 1.00)

     No symmetry found



   Cartesian axes

     site n.     atom                  positions (alat units)
         1           Si  tau(   1) = (   0.1936110   0.1958930   0.6275310  )
         2           Si  tau(   2) = (   0.0770850   0.1389170   0.2833240  )
         3           Si  tau(   3) = (   0.8340370   0.1237410   0.5676620  )
         4           Si  tau(   4) = (   0.3592170   0.8117110   0.9746380  )
         5           Si  tau(   5) = (   0.6078860   0.9469730   0.6948520  )
         6           Si  tau(   6) = (   0.4819910   0.2970230   0.3110730  )
         7           Si  tau(   7) = (   0.3511080   0.0199404   0.9092650  )
         8           Si  tau(   8) = (   0.5849270   0.2530290   0.9639590  )
         9           Si  tau(   9) = (   0.5444200   0.8586690   0.8467280  )
        10           Si  tau(  10) = (   0.3339150   0.3197370   0.4960400  )
        11           Si  tau(  11) = (   0.3265670   0.6804100   0.6696890  )
        12           Si  tau(  12) = (   0.8417760   0.4220240   0.2007100  )
        13           Si  tau(  13) = (   0.5678500   0.5467100   0.7522490  )
        14           Si  tau(  14) = (   0.7274490   0.9991390   0.3328400  )
        15           Si  tau(  15) = (   0.0257796   0.0726546   0.6192950  )
        16           Si  tau(  16) = (   0.5053230   0.7723610   0.6528950  )
        17           Si  tau(  17) = (   0.6785870   0.6222310   0.1700480  )
        18           Si  tau(  18) = (   0.3180760   0.2175860   0.8113450  )
        19           Si  tau(  19) = (   0.6488870   0.6041790   0.5666960  )
        20           Si  tau(  20) = (   0.1240030   0.2233470   0.1058100  )
        21           Si  tau(  21) = (   0.6232470   0.8419840   0.4977060  )
        22           Si  tau(  22) = (   0.1534660   0.0228078   0.0856714  )
        23           Si  tau(  23) = (   0.5716170   0.0936649   0.2013690  )
        24           Si  tau(  24) = (   0.6378590   0.9614660   0.0214252  )
        25           Si  tau(  25) = (   0.1418920   0.3039260   0.4008090  )
        26           Si  tau(  26) = (   0.0467525   0.4057630   0.2258610  )
        27           Si  tau(  27) = (   0.8532540   0.5877600   0.3069300  )
        28           Si  tau(  28) = (   0.3463690   0.3238770   0.1339620  )
        29           Si  tau(  29) = (   0.1693410   0.0044483   0.5371080  )
        30           Si  tau(  30) = (   0.0467858   0.4929090   0.5312610  )
        31           Si  tau(  31) = (   0.4820170   0.4449100   0.0243237  )
        32           Si  tau(  32) = (   0.9477120   0.4523910   0.8556780  )
        33           Si  tau(  33) = (   0.1714960   0.6193990   0.7901670  )
        34           Si  tau(  34) = (   0.8548030   0.5734520   0.5492060  )
        35           Si  tau(  35) = (   0.9423270   0.2448980   0.3997640  )
        36           Si  tau(  36) = (   0.1728010   0.8044740   0.3605690  )
        37           Si  tau(  37) = (   0.7551910   0.8508010   0.1371530  )
        38           Si  tau(  38) = (   0.7750330   0.1367020   0.0042256  )
        39           Si  tau(  39) = (   0.3915250   0.4723380   0.6053030  )
        40           Si  tau(  40) = (   0.9875450   0.9202830   0.5107020  )
        41           Si  tau(  41) = (   0.7769650   0.9212620   0.6101350  )
        42           Si  tau(  42) = (   0.3811380   0.6772600   0.4833820  )
        43           Si  tau(  43) = (   0.5932510   0.4222610   0.4855920  )
        44           Si  tau(  44) = (   0.9758350   0.1150680   0.9979340  )
        45           Si  tau(  45) = (   0.9520410   0.8765190   0.3092850  )
        46           Si  tau(  46) = (   0.5312680   0.9452570   0.3330190  )
        47           Si  tau(  47) = (   0.0924233   0.6004080   0.3059460  )
        48           Si  tau(  48) = (   0.5765090   0.7708470   0.0247942  )
        49           Si  tau(  49) = (   0.2468880   0.5073460   0.4292040  )
        50           Si  tau(  50) = (   0.9038930   0.3419230   0.7018900  )
        51           Si  tau(  51) = (   0.5309860   0.3276390   0.7644250  )
        52           Si  tau(  52) = (   0.7110950   0.2963470   0.6050080  )
        53           Si  tau(  53) = (   0.0583251   0.8437640   0.1107980  )
        54           Si  tau(  54) = (   0.4934830   0.1196290   0.7716160  )
        55           Si  tau(  55) = (   0.3135900   0.6010940   0.9419090  )
        56           Si  tau(  56) = (   0.3008490   0.4017450   0.9576540  )
        57           Si  tau(  57) = (   0.8813500   0.9644240   0.0279836  )
        58           Si  tau(  58) = (   0.0111856   0.6280760   0.9395440  )
        59           Si  tau(  59) = (   0.3854810   0.8329490   0.2933570  )
        60           Si  tau(  60) = (   0.0874068   0.4291230   0.7219600  )
        61           Si  tau(  61) = (   0.2578840   0.8605460   0.1420820  )
        62           Si  tau(  62) = (   0.6825130   0.2633620   0.3686920  )
        63           Si  tau(  63) = (   0.8250130   0.6211170   0.8661520  )
        64           Si  tau(  64) = (   0.6593270   0.4064210   0.0896922  )

     number of k points=     1  Fermi-Dirac smearing, width (Ry)=  0.0100
                       cart. coord. in units 2pi/alat
        k(    1) = (   0.0000000   0.0000000   0.0000000), wk =   2.0000000

     Dense  grid:   111868 G-vectors     FFT dimensions: (  75,  75,  75)

     Estimated max dynamical RAM per process >     177.81 MB

     Estimated total dynamical RAM >     683.94 MB

     Initial potential from superposition of free atoms

     starting charge     255.9608, renormalised to     256.0000
     Starting wfcs are  256 randomized atomic wfcs

     total cpu time spent up to now is        4.5 secs

     Self-consistent Calculation

     iteration #  1     ecut=    30.00 Ry     beta= 0.50
     Davidson diagonalization with overlap
     ethr =  1.00E-02,  avg # of iterations =  3.0

     Threshold (ethr) on eigenvalues was too large:
     Diagonalizing with lowered threshold

     Davidson diagonalization with overlap
     ethr =  6.61E-04,  avg # of iterations =  4.0

     total cpu time spent up to now is        4.8 secs

     total energy              =    -499.64341431 Ry
     estimated scf accuracy    <       2.28890304 Ry

     iteration #  2     ecut=    30.00 Ry     beta= 0.50
     Davidson diagonalization with overlap
     ethr =  8.94E-04,  avg # of iterations =  3.0

     total cpu time spent up to now is        5.0 secs

     total energy              =    -499.25377896 Ry
     estimated scf accuracy    <       4.76472662 Ry

     iteration #  3     ecut=    30.00 Ry     beta= 0.50
     Davidson diagonalization with overlap
     ethr =  8.94E-04,  avg # of iterations =  3.0

     total cpu time spent up to now is        5.1 secs

     total energy              =    -499.69259350 Ry
     estimated scf accuracy    <       5.89695690 Ry

     iteration #  4     ecut=    30.00 Ry     beta= 0.50
     Davidson diagonalization with overlap
     ethr =  8.94E-04,  avg # of iterations =  2.0

     total cpu time spent up to now is        5.2 secs

     total energy              =    -500.09810145 Ry
     estimated scf accuracy    <       0.75234825 Ry

     iteration #  5     ecut=    30.00 Ry     beta= 0.50
     Davidson diagonalization with overlap
     ethr =  2.94E-04,  avg # of iterations =  2.0

     total cpu time spent up to now is        5.4 secs

     total energy              =    -500.17352830 Ry
     estimated scf accuracy    <       0.32902380 Ry

     iteration #  6     ecut=    30.00 Ry     beta= 0.50
     Davidson diagonalization with overlap
     ethr =  1.29E-04,  avg # of iterations =  2.0

     total cpu time spent up to now is        5.5 secs

     total energy              =    -500.19896964 Ry
     estimated scf accuracy    <       0.22172134 Ry

     iteration #  7     ecut=    30.00 Ry     beta= 0.50
     Davidson diagonalization with overlap
     ethr =  8.66E-05,  avg # of iterations =  2.0

     total cpu time spent up to now is        5.6 secs

     total energy              =    -500.21406635 Ry
     estimated scf accuracy    <       0.04675305 Ry

     iteration #  8     ecut=    30.00 Ry     beta= 0.50
     Davidson diagonalization with overlap
     ethr =  1.83E-05,  avg # of iterations = 17.0

     total cpu time spent up to now is        5.8 secs

     total energy              =    -500.21719361 Ry
     estimated scf accuracy    <       0.08520473 Ry

     iteration #  9     ecut=    30.00 Ry     beta= 0.50
     Davidson diagonalization with overlap
     ethr =  1.83E-05,  avg # of iterations =  2.0

     total cpu time spent up to now is        6.0 secs

     total energy              =    -500.22192391 Ry
     estimated scf accuracy    <       0.00911569 Ry

     iteration # 10     ecut=    30.00 Ry     beta= 0.50
     Davidson diagonalization with overlap
     ethr =  3.56E-06,  avg # of iterations =  6.0

     total cpu time spent up to now is        6.1 secs

     total energy              =    -500.22296255 Ry
     estimated scf accuracy    <       0.00781565 Ry

     iteration # 11     ecut=    30.00 Ry     beta= 0.50
     Davidson diagonalization with overlap
     ethr =  3.05E-06,  avg # of iterations =  2.0

     total cpu time spent up to now is        6.2 secs

     total energy              =    -500.22342998 Ry
     estimated scf accuracy    <       0.00148951 Ry

     iteration # 12     ecut=    30.00 Ry     beta= 0.50
     Davidson diagonalization with overlap
     ethr =  5.82E-07,  avg # of iterations =  3.0

     total cpu time spent up to now is        6.4 secs

     total energy              =    -500.22352218 Ry
     estimated scf accuracy    <       0.00218739 Ry

     iteration # 13     ecut=    30.00 Ry     beta= 0.50
     Davidson diagonalization with overlap
     ethr =  5.82E-07,  avg # of iterations =  2.0

     total cpu time spent up to now is        6.5 secs

     total energy              =    -500.22368202 Ry
     estimated scf accuracy    <       0.00026662 Ry

     iteration # 14     ecut=    30.00 Ry     beta= 0.50
     Davidson diagonalization with overlap
     ethr =  1.04E-07,  avg # of iterations =  3.0

     total cpu time spent up to now is        6.6 secs

     total energy              =    -500.22370363 Ry
     estimated scf accuracy    <       0.00016428 Ry

     iteration # 15     ecut=    30.00 Ry     beta= 0.50
     Davidson diagonalization with overlap
     ethr =  6.42E-08,  avg # of iterations =  2.0

     total cpu time spent up to now is        6.7 secs

     total energy              =    -500.22371268 Ry
     estimated scf accuracy    <       0.00008467 Ry

     iteration # 16     ecut=    30.00 Ry     beta= 0.50
     Davidson diagonalization with overlap
     ethr =  3.31E-08,  avg # of iterations =  2.0

     total cpu time spent up to now is        6.9 secs

     total energy              =    -500.22372001 Ry
     estimated scf accuracy    <       0.00006306 Ry

     iteration # 17     ecut=    30.00 Ry     beta= 0.50
     Davidson diagonalization with overlap
     ethr =  2.46E-08,  avg # of iterations =  2.0

     total cpu time spent up to now is        7.0 secs

     total energy              =    -500.22372315 Ry
     estimated scf accuracy    <       0.00003636 Ry

     iteration # 18     ecut=    30.00 Ry     beta= 0.50
     Davidson diagonalization with overlap
     ethr =  1.42E-08,  avg # of iterations =  1.0

     total cpu time spent up to now is        7.1 secs

     total energy              =    -500.22372604 Ry
     estimated scf accuracy    <       0.00000202 Ry

     iteration # 19     ecut=    30.00 Ry     beta= 0.50
     Davidson diagonalization with overlap
     ethr =  7.91E-10,  avg # of iterations =  5.0

     total cpu time spent up to now is        7.3 secs

     total energy              =    -500.22372627 Ry
     estimated scf accuracy    <       0.00000452 Ry

     iteration # 20     ecut=    30.00 Ry     beta= 0.50
     Davidson diagonalization with overlap
     ethr =  7.91E-10,  avg # of iterations =  3.0

     total cpu time spent up to now is        7.4 secs

     total energy              =    -500.22372660 Ry
     estimated scf accuracy    <       0.00000310 Ry

     iteration # 21     ecut=    30.00 Ry     beta= 0.50
     Davidson diagonalization with overlap
     ethr =  7.91E-10,  avg # of iterations =  2.0

     total cpu time spent up to now is        7.5 secs

     End of self-consistent calculation

          k = 0.0000 0.0000 0.0000 ( 14009 PWs)   bands (ev):

    -7.5824  -7.1963  -7.1591  -6.9491  -6.7120  -6.5192  -6.4047  -6.2315
    -6.1924  -6.1037  -5.8865  -5.6709  -5.5145  -5.3120  -5.0206  -4.8964
    -4.8505  -4.8049  -4.6376  -4.5658  -4.4088  -4.3224  -4.0146  -3.8732
    -3.8381  -3.7162  -3.4804  -3.2142  -3.1064  -3.0041  -2.9676  -2.8403
    -2.7982  -2.6207  -2.5263  -2.4022  -2.2237  -2.1352  -2.1258  -1.9766
    -1.8055  -1.7243  -1.6937  -1.4794  -1.3619  -1.2766  -1.0984  -1.0481
    -0.9478  -0.8963  -0.7343  -0.7093  -0.5736  -0.4275  -0.3882  -0.2807
    -0.1850  -0.0940   0.0230   0.1061   0.1627   0.3235   0.4212   0.5683
     0.6242   0.6555   0.8286   0.9171   1.0201   1.0622   1.1083   1.1697
     1.1997   1.3185   1.4093   1.4805   1.5687   1.6815   1.7288   1.7755
     1.8552   1.9303   2.0138   2.0761   2.1416   2.2158   2.2515   2.3361
     2.3533   2.4093   2.5494   2.5954   2.6215   2.6558   2.7406   2.8168
     2.9096   2.9898   3.0274   3.1008   3.1369   3.1638   3.3213   3.3458
     3.4294   3.5086   3.5773   3.6108   3.7216   3.7531   3.7808   3.8959
     3.9216   4.0247   4.0858   4.1464   4.1905   4.2523   4.2853   4.3584
     4.3802   4.4304   4.5372   4.5889   4.6856   4.7135   4.8022   4.8366
     4.8631   4.8987   4.9225   4.9798   5.0126   5.1142   5.1495   5.2838
     5.3872   5.4411   5.4899   5.5293   5.5760   5.5887   5.6752   5.7289
     5.8444   5.8746   5.9430   6.0005   6.0383   6.1147   6.1690   6.2119
     6.2722   6.3056

     the Fermi energy is     4.8324 ev

!    total energy              =    -500.22372660 Ry
     estimated scf accuracy    <       0.00000026 Ry
     smearing contrib. (-TS)   =      -0.16600085 Ry
     internal energy E=F+TS    =    -500.05772575 Ry

     The total energy is F=E-TS. E is the sum of the following terms:
     one-electron contribution =      30.85158050 Ry
     hartree contribution      =      80.98330036 Ry
     xc contribution           =    -149.65996887 Ry
     ewald contribution        =    -462.23263774 Ry

     convergence has been achieved in  21 iterations

     Forces acting on atoms (cartesian axes, Ry/au):

     atom    1 type  1   force =     0.02009782    0.03885061    0.01709118
     atom    2 type  1   force =    -0.00835446   -0.04937333    0.02916710
     atom    3 type  1   force =    -0.00989946    0.00985315   -0.02663490
     atom    4 type  1   force =     0.03904441   -0.01544898   -0.01670390
     atom    5 type  1   force =    -0.02408797    0.09853639   -0.02354293
     atom    6 type  1   force =    -0.00982946   -0.00870630   -0.00996501
     atom    7 type  1   force =     0.00819295    0.00549069   -0.01895231
     atom    8 type  1   force =     0.00567169   -0.01725516   -0.00552992
     atom    9 type  1   force =    -0.03547184   -0.02156267    0.07321234
     atom   10 type  1   force =     0.00102131   -0.04564549   -0.04597168
     atom   11 type  1   force =    -0.03836107   -0.01227424    0.04334253
     atom   12 type  1   force =    -0.01877456   -0.06421230   -0.00508416
     atom   13 type  1   force =     0.00074303    0.00503792   -0.00336262
     atom   14 type  1   force =     0.04152145    0.00522702   -0.01252011
     atom   15 type  1   force =    -0.11581255    0.13492051    0.12701329
     atom   16 type  1   force =    -0.00045219   -0.05925821    0.01886115
     atom   17 type  1   force =     0.01396143    0.02369718   -0.01894374
     atom   18 type  1   force =    -0.03329362    0.00059189   -0.01024672
     atom   19 type  1   force =    -0.01184180    0.02573129   -0.00261188
     atom   20 type  1   force =     0.02056902    0.07416902   -0.00936117
     atom   21 type  1   force =    -0.00170053   -0.00796392   -0.03033504
     atom   22 type  1   force =     0.02868919    0.01302586   -0.00952410
     atom   23 type  1   force =     0.00406533    0.03676282   -0.02865331
     atom   24 type  1   force =    -0.01535195    0.09102777   -0.01378446
     atom   25 type  1   force =    -0.01371013    0.02324869    0.00862473
     atom   26 type  1   force =     0.02646512   -0.02093163   -0.00887357
     atom   27 type  1   force =     0.01087939    0.05290852    0.06467297
     atom   28 type  1   force =     0.00485622   -0.03489208    0.06025470
     atom   29 type  1   force =     0.17096052   -0.07824678   -0.08696587
     atom   30 type  1   force =     0.01579405   -0.01234232   -0.03438302
     atom   31 type  1   force =    -0.02046757    0.03452584   -0.02361288
     atom   32 type  1   force =    -0.04813111   -0.00088619    0.06537159
     atom   33 type  1   force =    -0.01254955   -0.01394606    0.00763066
     atom   34 type  1   force =     0.00339160   -0.01103983   -0.03818268
     atom   35 type  1   force =    -0.04780335   -0.00091184    0.00704201
     atom   36 type  1   force =    -0.01333525   -0.01371632   -0.00379949
     atom   37 type  1   force =     0.01919669   -0.06046369    0.06533814
     atom   38 type  1   force =    -0.06259144    0.04196827   -0.01517429
     atom   39 type  1   force =     0.04766180    0.04570670    0.04370329
     atom   40 type  1   force =    -0.03711195   -0.06635125   -0.05420597
     atom   41 type  1   force =     0.08395723    0.00104574   -0.03029221
     atom   42 type  1   force =    -0.00243808   -0.00449870   -0.08640272
     atom   43 type  1   force =    -0.02751980    0.01292967    0.00175254
     atom   44 type  1   force =     0.06396313    0.13794531   -0.03649113
     atom   45 type  1   force =     0.00630796    0.00579880   -0.03248661
     atom   46 type  1   force =     0.02675905    0.01668495    0.03688308
     atom   47 type  1   force =    -0.00100902    0.00778328    0.00872709
     atom   48 type  1   force =    -0.01107200   -0.07063495    0.02250827
     atom   49 type  1   force =    -0.02486173    0.02205782   -0.00826264
     atom   50 type  1   force =    -0.05120234   -0.02702618   -0.04340794
     atom   51 type  1   force =     0.01776128    0.01304667    0.00412830
     atom   52 type  1   force =    -0.00732876    0.00768456    0.02088908
     atom   53 type  1   force =    -0.05812974   -0.04345426    0.01190027
     atom   54 type  1   force =     0.02633087   -0.02820035    0.02588414
     atom   55 type  1   force =     0.00735203    0.02917638   -0.00400052
     atom   56 type  1   force =    -0.06084296   -0.02376173   -0.05294536
     atom   57 type  1   force =    -0.05142971   -0.16552223    0.02526227
     atom   58 type  1   force =     0.04030410    0.04516031    0.02788375
     atom   59 type  1   force =    -0.06210676   -0.07161469    0.02100329
     atom   60 type  1   force =     0.10757914   -0.00498566   -0.03117699
     atom   61 type  1   force =     0.02767439   -0.00379672    0.02827558
     atom   62 type  1   force =     0.02785093   -0.01308081   -0.00630104
     atom   63 type  1   force =    -0.05355516    0.00437909   -0.01204413
     atom   64 type  1   force =     0.07180478    0.00703215    0.03431367

     Total force =     0.598970     Total SCF correction =     0.000898


     Computing stress (Cartesian axis) and pressure

          total   stress  (Ry/bohr**3)                   (kbar)     P=        1.70
   0.00008401   0.00002616  -0.00002619           12.36        3.85       -3.85
   0.00002616   0.00001193  -0.00000241            3.85        1.76       -0.35
  -0.00002619  -0.00000241  -0.00006131           -3.85       -0.35       -9.02

 
     init_run     :      0.82s CPU      4.46s WALL (       1 calls)
     electrons    :      2.78s CPU      2.96s WALL (       1 calls)
     forces       :      0.04s CPU      0.04s WALL (       1 calls)
     stress       :      0.19s CPU      0.19s WALL (       1 calls)

     Called by init_run:
     wfcinit      :      0.60s CPU      4.08s WALL (       1 calls)
                                        4.08s GPU  (       1 calls)
     potinit      :      0.05s CPU      0.12s WALL (       1 calls)
     hinit0       :      0.14s CPU      0.17s WALL (       1 calls)

     Called by electrons:
     c_bands      :      1.62s CPU      1.68s WALL (      22 calls)
     sum_band     :      0.57s CPU      0.64s WALL (      22 calls)
     v_of_rho     :      0.26s CPU      0.34s WALL (      22 calls)
     mix_rho      :      0.27s CPU      0.29s WALL (      22 calls)

     Called by c_bands:
     init_us_2    :      0.08s CPU      0.08s WALL (      45 calls)
     init_us_2:gp :      0.08s CPU      0.08s WALL (      45 calls)
     regterg      :      1.42s CPU      1.47s WALL (      22 calls)

     Called by *egterg:
     rdiaghg      :      0.45s CPU      1.17s WALL (      94 calls)
                                        1.15s GPU  (      94 calls)
     h_psi        :      1.35s CPU      4.15s WALL (      96 calls)
                                        4.14s GPU  (      96 calls)
     g_psi        :      0.00s CPU      0.00s WALL (      73 calls)
                                        0.00s GPU  (      73 calls)

     Called by h_psi:
     h_psi:calbec :      0.56s CPU      3.26s WALL (      96 calls)
                                        3.26s GPU  (      96 calls)
     vloc_psi     :      0.73s CPU      0.81s WALL (      96 calls)
                                        0.81s GPU  (      96 calls)
     add_vuspsi   :      0.04s CPU      0.06s WALL (      96 calls)
                                        0.06s GPU  (      96 calls)

     General routines
     calbec       :      0.57s CPU      3.27s WALL (     101 calls)
     fft          :      0.40s CPU      0.52s WALL (     183 calls)
                                        0.12s GPU  (     116 calls)
     ffts         :      0.09s CPU      0.10s WALL (      22 calls)
     fftw         :      0.79s CPU      1.02s WALL (    2296 calls)
                                        0.92s GPU  (    2296 calls)
 
     Parallel routines
 
     PWSCF        :      3.88s CPU      7.75s WALL

 
   This run was terminated on:  14: 3:57  10May2023            

=------------------------------------------------------------------------------=
   JOB DONE.
=------------------------------------------------------------------------------=
