An instance of this daemon is already running

     Program PWSCF v.7.1 starts on 10May2023 at 14: 8:18 

     This program is part of the open-source Quantum ESPRESSO suite
     for quantum simulation of materials; please cite
         "P. Giannozzi et al., J. Phys.:Condens. Matter 21 395502 (2009);
         "P. Giannozzi et al., J. Phys.:Condens. Matter 29 465901 (2017);
         "P. Giannozzi et al., J. Chem. Phys. 152 154105 (2020);
          URL http://www.quantum-espresso.org", 
     in publications or presentations arising from this work. More details at
     http://www.quantum-espresso.org/quote

     Parallel version (MPI & OpenMP), running on       4 processor cores
     Number of MPI processes:                 4
     Threads/MPI process:                     1

     MPI processes distributed on     1 nodes
     752744 MiB available memory on the printing compute node when the environment starts
 
     Reading input from pw-si-65.in
Warning: card &CELL ignored
Warning: card / ignored

     Current dimensions of program PWSCF are:
     Max number of different atomic species (ntypx) = 10
     Max number of k-points (npk) =  40000
     Max angular momentum in pseudopotentials (lmaxx) =  4

     IMPORTANT: XC functional enforced from input :
     Exchange-correlation= PBE
                           (   1   4   3   4   0   0   0)
     Any further DFT definition will be discarded
     Please, verify this is what you really want


     gamma-point specific algorithms are used
 
     K-points division:     npool     =       2
     R & G space division:  proc/nbgrp/npool/nimage =       2
     Subspace diagonalization in iterative solution of the eigenvalue problem:
     a serial algorithm will be used

     Message from routine divide_et_impera:
     suboptimal parallelization: some nodes have no k-points
 
     Parallelization info
     --------------------
     sticks:   dense  smooth     PW     G-vecs:    dense   smooth      PW
     Min        2249    2249    599               114143   114143   15513
     Max        2252    2252    602               114152   114152   15518
     Sum        4501    4501   1201               228295   228295   31031
 
     Using Slab Decomposition
 


     bravais-lattice index     =            0
     lattice parameter (alat)  =      21.7437  a.u.
     unit-cell volume          =   10280.1861 (a.u.)^3
     number of atoms/cell      =           64
     number of atomic types    =            1
     number of electrons       =       256.00
     number of Kohn-Sham states=          154
     kinetic-energy cutoff     =      30.0000  Ry
     charge density cutoff     =     120.0000  Ry
     scf convergence threshold =      1.0E-06
     mixing beta               =       0.5000
     number of iterations used =            8  plain     mixing
     Exchange-correlation= PBE
                           (   1   4   3   4   0   0   0)

     GPU acceleration is ACTIVE.
     GPU-aware MPI enabled

     Message from routine print_cuda_info:
     High GPU oversubscription detected. Are you sure this is what you want?

     celldm(1)=  21.743711  celldm(2)=   0.000000  celldm(3)=   0.000000
     celldm(4)=   0.000000  celldm(5)=   0.000000  celldm(6)=   0.000000

     crystal axes: (cart. coord. in units of alat)
               a(1) = (   1.000000   0.000000   0.000000 )  
               a(2) = (   0.000000   1.000000   0.000000 )  
               a(3) = (   0.000000   0.000000   1.000000 )  

     reciprocal axes: (cart. coord. in units 2 pi/alat)
               b(1) = (  1.000000  0.000000  0.000000 )  
               b(2) = (  0.000000  1.000000  0.000000 )  
               b(3) = (  0.000000  0.000000  1.000000 )  


     PseudoPot. # 1 for Si read from file:
     /home/ppiaggi/pseudos/Si_ONCV_PBE_sr.upf
     MD5 check sum: 8553c464762ac42b85b1eed164b4d029
     Pseudo is Norm-conserving, Zval =  4.0
     Generated using ONCVPSP code by D. R. Hamann
     Using radial grid of 1510 points,  4 beta functions with: 
                l(1) =   0
                l(2) =   0
                l(3) =   1
                l(4) =   1

     atomic species   valence    mass     pseudopotential
        Si             4.00    28.08500     Si( 1.00)

     No symmetry found



   Cartesian axes

     site n.     atom                  positions (alat units)
         1           Si  tau(   1) = (   0.2212140   0.2132440   0.7050840  )
         2           Si  tau(   2) = (   0.1186140   0.1453630   0.3159810  )
         3           Si  tau(   3) = (   0.8834020   0.1395970   0.5887100  )
         4           Si  tau(   4) = (   0.4628150   0.5828260   0.1043370  )
         5           Si  tau(   5) = (   0.6373770   0.9184890   0.5978260  )
         6           Si  tau(   6) = (   0.4207840   0.2733360   0.3912160  )
         7           Si  tau(   7) = (   0.4152910   0.9605560   0.8707920  )
         8           Si  tau(   8) = (   0.7365470   0.4774070   0.0605689  )
         9           Si  tau(   9) = (   0.6015740   0.0675158   0.9394580  )
        10           Si  tau(  10) = (   0.2638480   0.3347080   0.5337440  )
        11           Si  tau(  11) = (   0.3308020   0.6479330   0.7115660  )
        12           Si  tau(  12) = (   0.8519540   0.4863230   0.2734920  )
        13           Si  tau(  13) = (   0.6335640   0.4239330   0.6414960  )
        14           Si  tau(  14) = (   0.6501990   0.7015750   0.3136840  )
        15           Si  tau(  15) = (   0.0545234   0.1237920   0.6800440  )
        16           Si  tau(  16) = (   0.4684740   0.7793350   0.5144480  )
        17           Si  tau(  17) = (   0.6369870   0.7363100   0.1004250  )
        18           Si  tau(  18) = (   0.3907430   0.1345970   0.7812740  )
        19           Si  tau(  19) = (   0.5908590   0.5779570   0.5496430  )
        20           Si  tau(  20) = (   0.1887800   0.1433940   0.1221860  )
        21           Si  tau(  21) = (   0.6495870   0.8737770   0.3786710  )
        22           Si  tau(  22) = (   0.1034430   0.9525970   0.1448310  )
        23           Si  tau(  23) = (   0.6036250   0.1597460   0.2229030  )
        24           Si  tau(  24) = (   0.6126010   0.2794840   0.0532687  )
        25           Si  tau(  25) = (   0.1043520   0.2133560   0.4995370  )
        26           Si  tau(  26) = (   0.0383152   0.5227930   0.2296610  )
        27           Si  tau(  27) = (   0.9660450   0.6455960   0.3802990  )
        28           Si  tau(  28) = (   0.4045790   0.1612400   0.2260460  )
        29           Si  tau(  29) = (   0.1021780   0.0232217   0.5012030  )
        30           Si  tau(  30) = (   0.9875730   0.5754750   0.5498940  )
        31           Si  tau(  31) = (   0.5451250   0.4362790   0.9120330  )
        32           Si  tau(  32) = (   0.9007870   0.4819090   0.9279040  )
        33           Si  tau(  33) = (   0.1864920   0.5928140   0.8599920  )
        34           Si  tau(  34) = (   0.8001380   0.5804520   0.4748750  )
        35           Si  tau(  35) = (   0.9659150   0.2335970   0.3804290  )
        36           Si  tau(  36) = (   0.0767472   0.7969270   0.3858090  )
        37           Si  tau(  37) = (   0.6568210   0.9368010   0.0781165  )
        38           Si  tau(  38) = (   0.8231130   0.3028000   0.0116008  )
        39           Si  tau(  39) = (   0.4415490   0.4995940   0.6237170  )
        40           Si  tau(  40) = (   0.9410610   0.9612720   0.6095980  )
        41           Si  tau(  41) = (   0.7943280   0.9733070   0.4920560  )
        42           Si  tau(  42) = (   0.2836830   0.7139460   0.4419750  )
        43           Si  tau(  43) = (   0.5336050   0.4293090   0.4249570  )
        44           Si  tau(  44) = (   0.0068227   0.0881843   0.0290088  )
        45           Si  tau(  45) = (   0.0267905   0.6904260   0.0441496  )
        46           Si  tau(  46) = (   0.5398460   0.9740670   0.2335830  )
        47           Si  tau(  47) = (   0.2279960   0.5801770   0.1273720  )
        48           Si  tau(  48) = (   0.4451900   0.7778360   0.0416705  )
        49           Si  tau(  49) = (   0.2550770   0.5582700   0.5554170  )
        50           Si  tau(  50) = (   0.9216920   0.3171940   0.7416710  )
        51           Si  tau(  51) = (   0.5949820   0.0948536   0.7328250  )
        52           Si  tau(  52) = (   0.7409940   0.2383340   0.6986850  )
        53           Si  tau(  53) = (   0.0885450   0.8776780   0.9642310  )
        54           Si  tau(  54) = (   0.4592470   0.9628490   0.6644620  )
        55           Si  tau(  55) = (   0.3339140   0.4516660   0.9786000  )
        56           Si  tau(  56) = (   0.3165840   0.2494830   0.0300980  )
        57           Si  tau(  57) = (   0.8037290   0.0899183   0.0569101  )
        58           Si  tau(  58) = (   0.0367801   0.7271680   0.8305420  )
        59           Si  tau(  59) = (   0.2174820   0.7499980   0.2498160  )
        60           Si  tau(  60) = (   0.0341165   0.5351610   0.7709930  )
        61           Si  tau(  61) = (   0.2819320   0.8774500   0.0200918  )
        62           Si  tau(  62) = (   0.6107940   0.2576790   0.4049350  )
        63           Si  tau(  63) = (   0.8129510   0.6541350   0.9953750  )
        64           Si  tau(  64) = (   0.5967480   0.4919050   0.2421090  )

     number of k points=     1  Fermi-Dirac smearing, width (Ry)=  0.0100
                       cart. coord. in units 2pi/alat
        k(    1) = (   0.0000000   0.0000000   0.0000000), wk =   2.0000000

     Dense  grid:   114148 G-vectors     FFT dimensions: (  75,  75,  75)

     Estimated max dynamical RAM per process >     180.93 MB

     Estimated total dynamical RAM >     695.84 MB

     Initial potential from superposition of free atoms

     starting charge     255.9608, renormalised to     256.0000
     Starting wfcs are  256 randomized atomic wfcs

     total cpu time spent up to now is        4.7 secs

     Self-consistent Calculation

     iteration #  1     ecut=    30.00 Ry     beta= 0.50
     Davidson diagonalization with overlap
     ethr =  1.00E-02,  avg # of iterations =  3.0

     Threshold (ethr) on eigenvalues was too large:
     Diagonalizing with lowered threshold

     Davidson diagonalization with overlap
     ethr =  9.06E-04,  avg # of iterations =  4.0

     total cpu time spent up to now is        5.0 secs

     total energy              =    -499.38835160 Ry
     estimated scf accuracy    <       2.97580641 Ry

     iteration #  2     ecut=    30.00 Ry     beta= 0.50
     Davidson diagonalization with overlap
     ethr =  1.16E-03,  avg # of iterations =  5.0

     total cpu time spent up to now is        5.2 secs

     total energy              =    -498.42190119 Ry
     estimated scf accuracy    <      11.07267019 Ry

     iteration #  3     ecut=    30.00 Ry     beta= 0.50
     Davidson diagonalization with overlap
     ethr =  1.16E-03,  avg # of iterations =  4.0

     total cpu time spent up to now is        5.3 secs

     total energy              =    -499.44479748 Ry
     estimated scf accuracy    <       8.79041214 Ry

     iteration #  4     ecut=    30.00 Ry     beta= 0.50
     Davidson diagonalization with overlap
     ethr =  1.16E-03,  avg # of iterations =  2.0

     total cpu time spent up to now is        5.4 secs

     total energy              =    -499.99782326 Ry
     estimated scf accuracy    <       1.75826350 Ry

     iteration #  5     ecut=    30.00 Ry     beta= 0.50
     Davidson diagonalization with overlap
     ethr =  6.87E-04,  avg # of iterations =  2.0

     total cpu time spent up to now is        5.6 secs

     total energy              =    -500.13164521 Ry
     estimated scf accuracy    <       0.57503538 Ry

     iteration #  6     ecut=    30.00 Ry     beta= 0.50
     Davidson diagonalization with overlap
     ethr =  2.25E-04,  avg # of iterations =  2.0

     total cpu time spent up to now is        5.7 secs

     total energy              =    -500.19214211 Ry
     estimated scf accuracy    <       0.19409784 Ry

     iteration #  7     ecut=    30.00 Ry     beta= 0.50
     Davidson diagonalization with overlap
     ethr =  7.58E-05,  avg # of iterations =  2.0

     total cpu time spent up to now is        5.8 secs

     total energy              =    -500.20517947 Ry
     estimated scf accuracy    <       0.09201595 Ry

     iteration #  8     ecut=    30.00 Ry     beta= 0.50
     Davidson diagonalization with overlap
     ethr =  3.59E-05,  avg # of iterations =  3.0

     total cpu time spent up to now is        5.9 secs

     total energy              =    -500.21353914 Ry
     estimated scf accuracy    <       0.06384074 Ry

     iteration #  9     ecut=    30.00 Ry     beta= 0.50
     Davidson diagonalization with overlap
     ethr =  2.49E-05,  avg # of iterations =  2.0

     total cpu time spent up to now is        6.1 secs

     total energy              =    -500.21856386 Ry
     estimated scf accuracy    <       0.00861364 Ry

     iteration # 10     ecut=    30.00 Ry     beta= 0.50
     Davidson diagonalization with overlap
     ethr =  3.36E-06,  avg # of iterations = 11.0

     total cpu time spent up to now is        6.2 secs

     total energy              =    -500.21944376 Ry
     estimated scf accuracy    <       0.00506233 Ry

     iteration # 11     ecut=    30.00 Ry     beta= 0.50
     Davidson diagonalization with overlap
     ethr =  1.98E-06,  avg # of iterations =  2.0

     total cpu time spent up to now is        6.4 secs

     total energy              =    -500.21983688 Ry
     estimated scf accuracy    <       0.00248144 Ry

     iteration # 12     ecut=    30.00 Ry     beta= 0.50
     Davidson diagonalization with overlap
     ethr =  9.69E-07,  avg # of iterations =  2.0

     total cpu time spent up to now is        6.5 secs

     total energy              =    -500.22009609 Ry
     estimated scf accuracy    <       0.00089216 Ry

     iteration # 13     ecut=    30.00 Ry     beta= 0.50
     Davidson diagonalization with overlap
     ethr =  3.49E-07,  avg # of iterations =  2.0

     total cpu time spent up to now is        6.6 secs

     total energy              =    -500.22017349 Ry
     estimated scf accuracy    <       0.00055461 Ry

     iteration # 14     ecut=    30.00 Ry     beta= 0.50
     Davidson diagonalization with overlap
     ethr =  2.17E-07,  avg # of iterations =  1.0

     total cpu time spent up to now is        6.7 secs

     total energy              =    -500.22021727 Ry
     estimated scf accuracy    <       0.00006260 Ry

     iteration # 15     ecut=    30.00 Ry     beta= 0.50
     Davidson diagonalization with overlap
     ethr =  2.45E-08,  avg # of iterations =  3.0

     total cpu time spent up to now is        6.9 secs

     total energy              =    -500.22022472 Ry
     estimated scf accuracy    <       0.00006553 Ry

     iteration # 16     ecut=    30.00 Ry     beta= 0.50
     Davidson diagonalization with overlap
     ethr =  2.45E-08,  avg # of iterations =  2.0

     total cpu time spent up to now is        7.0 secs

     total energy              =    -500.22022801 Ry
     estimated scf accuracy    <       0.00005624 Ry

     iteration # 17     ecut=    30.00 Ry     beta= 0.50
     Davidson diagonalization with overlap
     ethr =  2.20E-08,  avg # of iterations =  2.0

     total cpu time spent up to now is        7.1 secs

     total energy              =    -500.22023224 Ry
     estimated scf accuracy    <       0.00001000 Ry

     iteration # 18     ecut=    30.00 Ry     beta= 0.50
     Davidson diagonalization with overlap
     ethr =  3.90E-09,  avg # of iterations =  2.0

     total cpu time spent up to now is        7.2 secs

     total energy              =    -500.22023320 Ry
     estimated scf accuracy    <       0.00000773 Ry

     iteration # 19     ecut=    30.00 Ry     beta= 0.50
     Davidson diagonalization with overlap
     ethr =  3.02E-09,  avg # of iterations =  1.0

     total cpu time spent up to now is        7.4 secs

     total energy              =    -500.22023361 Ry
     estimated scf accuracy    <       0.00000216 Ry

     iteration # 20     ecut=    30.00 Ry     beta= 0.50
     Davidson diagonalization with overlap
     ethr =  8.45E-10,  avg # of iterations =  2.0

     total cpu time spent up to now is        7.5 secs

     total energy              =    -500.22023386 Ry
     estimated scf accuracy    <       0.00000117 Ry

     iteration # 21     ecut=    30.00 Ry     beta= 0.50
     Davidson diagonalization with overlap
     ethr =  4.57E-10,  avg # of iterations =  2.0

     total cpu time spent up to now is        7.6 secs

     End of self-consistent calculation

          k = 0.0000 0.0000 0.0000 ( 14213 PWs)   bands (ev):

    -8.5573  -7.9391  -7.4581  -7.2860  -7.0976  -7.0211  -6.9117  -6.6954
    -6.5047  -6.4329  -6.1589  -6.1418  -6.0240  -5.6440  -5.5562  -5.3282
    -5.2438  -5.1256  -5.0100  -4.8855  -4.7414  -4.4635  -4.4140  -4.1460
    -4.0418  -3.8202  -3.6909  -3.6154  -3.3545  -3.3152  -3.2584  -3.1769
    -3.1464  -2.9052  -2.8654  -2.7835  -2.6730  -2.5604  -2.4085  -2.1804
    -2.1316  -2.0817  -1.8340  -1.7127  -1.6231  -1.5787  -1.5483  -1.3287
    -1.2436  -1.1457  -1.1134  -0.9470  -0.8874  -0.8126  -0.6733  -0.5403
    -0.4486  -0.2781  -0.1543  -0.1188  -0.0175   0.0306   0.1042   0.2386
     0.4159   0.5594   0.6057   0.6350   0.7897   0.8202   0.8287   0.9039
     0.9775   1.0479   1.1268   1.2834   1.3696   1.3921   1.4580   1.5473
     1.5805   1.6586   1.7012   1.7540   1.7947   1.8746   1.9366   1.9699
     2.0997   2.1699   2.3116   2.3681   2.4235   2.5405   2.5778   2.6356
     2.6577   2.6742   2.7986   2.8874   2.9100   2.9325   3.0522   3.0647
     3.1595   3.1933   3.2161   3.3357   3.3853   3.4413   3.4752   3.5892
     3.6367   3.7548   3.8066   3.8321   3.9590   4.0329   4.0721   4.0917
     4.1716   4.2278   4.3178   4.3503   4.4421   4.5194   4.5382   4.5722
     4.6130   4.7196   4.7895   4.8423   4.8778   4.9095   4.9691   5.0027
     5.0748   5.1760   5.2053   5.2727   5.4079   5.4212   5.5369   5.5646
     5.6421   5.6883   5.7034   5.7964   5.9437   5.9845   6.0596   6.1377
     6.2196   6.2744

     the Fermi energy is     4.6204 ev

!    total energy              =    -500.22023344 Ry
     estimated scf accuracy    <       0.00000072 Ry
     smearing contrib. (-TS)   =      -0.15640642 Ry
     internal energy E=F+TS    =    -500.06382702 Ry

     The total energy is F=E-TS. E is the sum of the following terms:
     one-electron contribution =       0.63158719 Ry
     hartree contribution      =      94.13892123 Ry
     xc contribution           =    -150.94743673 Ry
     ewald contribution        =    -443.88689870 Ry

     convergence has been achieved in  21 iterations

     Forces acting on atoms (cartesian axes, Ry/au):

     atom    1 type  1   force =     0.07650612    0.05912903   -0.00602911
     atom    2 type  1   force =     0.05398175   -0.06881816   -0.06258978
     atom    3 type  1   force =    -0.08886914    0.11816548   -0.07493275
     atom    4 type  1   force =    -0.00033811   -0.01915208    0.00044587
     atom    5 type  1   force =     0.00732186   -0.03429968   -0.00029620
     atom    6 type  1   force =    -0.11333731   -0.02728833    0.03638308
     atom    7 type  1   force =     0.00731078   -0.03770618    0.04646115
     atom    8 type  1   force =    -0.07187887   -0.00268590    0.06069166
     atom    9 type  1   force =    -0.01688223    0.03176302   -0.01327914
     atom   10 type  1   force =     0.03756324    0.01922746    0.00984311
     atom   11 type  1   force =     0.02333515    0.02814317    0.04736328
     atom   12 type  1   force =    -0.05378895   -0.01066636    0.02083434
     atom   13 type  1   force =     0.02512852   -0.13805990    0.06714332
     atom   14 type  1   force =    -0.00287627   -0.13969173   -0.05716472
     atom   15 type  1   force =    -0.01220064   -0.00443347    0.08980454
     atom   16 type  1   force =     0.04155975   -0.00187196    0.01902435
     atom   17 type  1   force =     0.04252108   -0.01726643    0.00794366
     atom   18 type  1   force =    -0.00656968    0.04002434    0.00643143
     atom   19 type  1   force =     0.08103566    0.20368354   -0.10882113
     atom   20 type  1   force =    -0.02563556   -0.03229718    0.02599591
     atom   21 type  1   force =    -0.03281678    0.09372827    0.04327815
     atom   22 type  1   force =     0.03506205   -0.01004719    0.09819371
     atom   23 type  1   force =     0.08353351    0.05962144   -0.01219890
     atom   24 type  1   force =    -0.00611160   -0.01424267   -0.03567804
     atom   25 type  1   force =     0.08586416    0.11954246    0.07612065
     atom   26 type  1   force =     0.05808876    0.02555793   -0.03003297
     atom   27 type  1   force =    -0.02812740   -0.01646419   -0.11711949
     atom   28 type  1   force =    -0.06884876   -0.00506345   -0.05010685
     atom   29 type  1   force =     0.03243400   -0.11303542   -0.06760999
     atom   30 type  1   force =     0.03135803   -0.06162286    0.12841770
     atom   31 type  1   force =    -0.00073414    0.00194202    0.02271198
     atom   32 type  1   force =     0.01849612   -0.01491709   -0.02675998
     atom   33 type  1   force =     0.12374772    0.00802450    0.05495043
     atom   34 type  1   force =    -0.04227535   -0.02132979   -0.01098772
     atom   35 type  1   force =    -0.17335193    0.05359789   -0.03018757
     atom   36 type  1   force =     0.05695603    0.09923700    0.01830153
     atom   37 type  1   force =     0.03087564   -0.00793773   -0.00406730
     atom   38 type  1   force =     0.01235741   -0.02378465   -0.01746641
     atom   39 type  1   force =    -0.09345392   -0.07157138    0.06761531
     atom   40 type  1   force =     0.07050881   -0.13250465    0.08780715
     atom   41 type  1   force =    -0.04528936    0.01381558   -0.06445136
     atom   42 type  1   force =    -0.00641127    0.04173566   -0.03015983
     atom   43 type  1   force =    -0.00254163    0.08875131   -0.01099260
     atom   44 type  1   force =    -0.02154806   -0.00453735   -0.04000200
     atom   45 type  1   force =    -0.01888637   -0.04353796    0.01515672
     atom   46 type  1   force =    -0.04193370   -0.01645510    0.02518370
     atom   47 type  1   force =    -0.01808527    0.00956651   -0.00412269
     atom   48 type  1   force =     0.03376602   -0.03035691    0.00348601
     atom   49 type  1   force =    -0.07604464   -0.07275842   -0.03299685
     atom   50 type  1   force =     0.02402598    0.00603628    0.02441829
     atom   51 type  1   force =     0.02381516    0.03738769    0.03338211
     atom   52 type  1   force =    -0.02415116    0.03093971   -0.01999037
     atom   53 type  1   force =    -0.01936478    0.00319712   -0.05880983
     atom   54 type  1   force =    -0.07499313   -0.03777468   -0.02105667
     atom   55 type  1   force =    -0.01325758    0.01320099   -0.00216027
     atom   56 type  1   force =     0.06863042    0.01665260   -0.02147016
     atom   57 type  1   force =    -0.00584806    0.00340574    0.01183491
     atom   58 type  1   force =    -0.01571934    0.04154789    0.00457402
     atom   59 type  1   force =     0.02399721    0.00024646   -0.04266783
     atom   60 type  1   force =    -0.09848870   -0.07752492   -0.08715222
     atom   61 type  1   force =    -0.02681515    0.04690718   -0.00865473
     atom   62 type  1   force =     0.10496723   -0.09680589    0.03036725
     atom   63 type  1   force =     0.01499543    0.04114398    0.00679832
     atom   64 type  1   force =     0.01773127    0.05058740   -0.02094815

     Total force =     0.761997     Total SCF correction =     0.001583


     Computing stress (Cartesian axis) and pressure

          total   stress  (Ry/bohr**3)                   (kbar)     P=       26.97
   0.00026590   0.00008140   0.00005746           39.12       11.97        8.45
   0.00008140   0.00020813  -0.00000689           11.97       30.62       -1.01
   0.00005746  -0.00000689   0.00007601            8.45       -1.01       11.18

 
     init_run     :      1.03s CPU      4.63s WALL (       1 calls)
     electrons    :      2.72s CPU      2.90s WALL (       1 calls)
     forces       :      0.04s CPU      0.04s WALL (       1 calls)
     stress       :      0.19s CPU      0.19s WALL (       1 calls)

     Called by init_run:
     wfcinit      :      0.80s CPU      4.23s WALL (       1 calls)
                                        4.23s GPU  (       1 calls)
     potinit      :      0.06s CPU      0.14s WALL (       1 calls)
     hinit0       :      0.15s CPU      0.17s WALL (       1 calls)

     Called by electrons:
     c_bands      :      1.54s CPU      1.60s WALL (      22 calls)
     sum_band     :      0.58s CPU      0.64s WALL (      22 calls)
     v_of_rho     :      0.27s CPU      0.37s WALL (      22 calls)
     mix_rho      :      0.28s CPU      0.30s WALL (      22 calls)

     Called by c_bands:
     init_us_2    :      0.08s CPU      0.08s WALL (      45 calls)
     init_us_2:gp :      0.08s CPU      0.08s WALL (      45 calls)
     regterg      :      1.33s CPU      1.38s WALL (      22 calls)

     Called by *egterg:
     rdiaghg      :      0.40s CPU      1.10s WALL (      82 calls)
                                        1.09s GPU  (      82 calls)
     h_psi        :      1.52s CPU      4.29s WALL (      84 calls)
                                        4.28s GPU  (      84 calls)
     g_psi        :      0.00s CPU      0.00s WALL (      61 calls)
                                        0.00s GPU  (      61 calls)

     Called by h_psi:
     h_psi:calbec :      0.75s CPU      3.42s WALL (      84 calls)
                                        3.42s GPU  (      84 calls)
     vloc_psi     :      0.72s CPU      0.80s WALL (      84 calls)
                                        0.80s GPU  (      84 calls)
     add_vuspsi   :      0.03s CPU      0.05s WALL (      84 calls)
                                        0.05s GPU  (      84 calls)

     General routines
     calbec       :      0.75s CPU      3.43s WALL (      89 calls)
     fft          :      0.42s CPU      0.54s WALL (     183 calls)
                                        0.13s GPU  (     116 calls)
     ffts         :      0.09s CPU      0.10s WALL (      22 calls)
     fftw         :      0.78s CPU      1.02s WALL (    2274 calls)
                                        0.92s GPU  (    2274 calls)
 
     Parallel routines
 
     PWSCF        :      4.03s CPU      7.86s WALL

 
   This run was terminated on:  14: 8:26  10May2023            

=------------------------------------------------------------------------------=
   JOB DONE.
=------------------------------------------------------------------------------=
