An instance of this daemon is already running
An instance of this daemon is already running

     Program PWSCF v.7.1 starts on 10May2023 at 14: 2:58 

     This program is part of the open-source Quantum ESPRESSO suite
     for quantum simulation of materials; please cite
         "P. Giannozzi et al., J. Phys.:Condens. Matter 21 395502 (2009);
         "P. Giannozzi et al., J. Phys.:Condens. Matter 29 465901 (2017);
         "P. Giannozzi et al., J. Chem. Phys. 152 154105 (2020);
          URL http://www.quantum-espresso.org", 
     in publications or presentations arising from this work. More details at
     http://www.quantum-espresso.org/quote

     Parallel version (MPI & OpenMP), running on       4 processor cores
     Number of MPI processes:                 4
     Threads/MPI process:                     1

     MPI processes distributed on     1 nodes
     752395 MiB available memory on the printing compute node when the environment starts
 
     Reading input from pw-si-34.in
Warning: card &CELL ignored
Warning: card / ignored

     Current dimensions of program PWSCF are:
     Max number of different atomic species (ntypx) = 10
     Max number of k-points (npk) =  40000
     Max angular momentum in pseudopotentials (lmaxx) =  4

     IMPORTANT: XC functional enforced from input :
     Exchange-correlation= PBE
                           (   1   4   3   4   0   0   0)
     Any further DFT definition will be discarded
     Please, verify this is what you really want


     gamma-point specific algorithms are used
 
     K-points division:     npool     =       2
     R & G space division:  proc/nbgrp/npool/nimage =       2
     Subspace diagonalization in iterative solution of the eigenvalue problem:
     a serial algorithm will be used

     Message from routine divide_et_impera:
     suboptimal parallelization: some nodes have no k-points
 
     Parallelization info
     --------------------
     sticks:   dense  smooth     PW     G-vecs:    dense   smooth      PW
     Min        2193    2193    575               109263   109263   14709
     Max        2196    2196    578               109264   109264   14714
     Sum        4389    4389   1153               218527   218527   29423
 
     Using Slab Decomposition
 


     bravais-lattice index     =            0
     lattice parameter (alat)  =      21.4233  a.u.
     unit-cell volume          =    9832.3333 (a.u.)^3
     number of atoms/cell      =           64
     number of atomic types    =            1
     number of electrons       =       256.00
     number of Kohn-Sham states=          154
     kinetic-energy cutoff     =      30.0000  Ry
     charge density cutoff     =     120.0000  Ry
     scf convergence threshold =      1.0E-06
     mixing beta               =       0.5000
     number of iterations used =            8  plain     mixing
     Exchange-correlation= PBE
                           (   1   4   3   4   0   0   0)

     GPU acceleration is ACTIVE.
     GPU-aware MPI enabled

     Message from routine print_cuda_info:
     High GPU oversubscription detected. Are you sure this is what you want?

     celldm(1)=  21.423259  celldm(2)=   0.000000  celldm(3)=   0.000000
     celldm(4)=   0.000000  celldm(5)=   0.000000  celldm(6)=   0.000000

     crystal axes: (cart. coord. in units of alat)
               a(1) = (   1.000000   0.000000   0.000000 )  
               a(2) = (   0.000000   1.000000   0.000000 )  
               a(3) = (   0.000000   0.000000   1.000000 )  

     reciprocal axes: (cart. coord. in units 2 pi/alat)
               b(1) = (  1.000000  0.000000  0.000000 )  
               b(2) = (  0.000000  1.000000  0.000000 )  
               b(3) = (  0.000000  0.000000  1.000000 )  


     PseudoPot. # 1 for Si read from file:
     /home/ppiaggi/pseudos/Si_ONCV_PBE_sr.upf
     MD5 check sum: 8553c464762ac42b85b1eed164b4d029
     Pseudo is Norm-conserving, Zval =  4.0
     Generated using ONCVPSP code by D. R. Hamann
     Using radial grid of 1510 points,  4 beta functions with: 
                l(1) =   0
                l(2) =   0
                l(3) =   1
                l(4) =   1

     atomic species   valence    mass     pseudopotential
        Si             4.00    28.08500     Si( 1.00)

     No symmetry found



   Cartesian axes

     site n.     atom                  positions (alat units)
         1           Si  tau(   1) = (   0.2026530   0.1978830   0.6068100  )
         2           Si  tau(   2) = (   0.1015400   0.1394790   0.3004690  )
         3           Si  tau(   3) = (   0.8413770   0.1217050   0.5619720  )
         4           Si  tau(   4) = (   0.3350580   0.8294260   0.9925240  )
         5           Si  tau(   5) = (   0.5823460   0.9775700   0.7059980  )
         6           Si  tau(   6) = (   0.5099740   0.3003000   0.3094330  )
         7           Si  tau(   7) = (   0.2906190   0.0484747   0.9026810  )
         8           Si  tau(   8) = (   0.5773620   0.2479120   0.0219083  )
         9           Si  tau(   9) = (   0.5551690   0.8265450   0.8782240  )
        10           Si  tau(  10) = (   0.3247160   0.2935180   0.4482880  )
        11           Si  tau(  11) = (   0.3249040   0.6744600   0.6330130  )
        12           Si  tau(  12) = (   0.8399300   0.4089490   0.2249430  )
        13           Si  tau(  13) = (   0.5516730   0.5553520   0.7773910  )
        14           Si  tau(  14) = (   0.7123600   0.0984588   0.2902470  )
        15           Si  tau(  15) = (   0.0287082   0.0827933   0.6625750  )
        16           Si  tau(  16) = (   0.4954400   0.7789650   0.6805250  )
        17           Si  tau(  17) = (   0.6567250   0.5631290   0.1638310  )
        18           Si  tau(  18) = (   0.2803720   0.2374970   0.8276270  )
        19           Si  tau(  19) = (   0.6295960   0.6024560   0.5702150  )
        20           Si  tau(  20) = (   0.1410250   0.2408380   0.0999929  )
        21           Si  tau(  21) = (   0.6629060   0.8022020   0.4974120  )
        22           Si  tau(  22) = (   0.1137610   0.0164134   0.0007101  )
        23           Si  tau(  23) = (   0.5625930   0.0435021   0.1615850  )
        24           Si  tau(  24) = (   0.6609890   0.9164840   0.0197861  )
        25           Si  tau(  25) = (   0.1181410   0.3299180   0.4053380  )
        26           Si  tau(  26) = (   0.0511309   0.4156820   0.2263400  )
        27           Si  tau(  27) = (   0.8115410   0.6100740   0.3215010  )
        28           Si  tau(  28) = (   0.3410960   0.3092960   0.1372940  )
        29           Si  tau(  29) = (   0.1560320   0.0023068   0.5488120  )
        30           Si  tau(  30) = (   0.0685278   0.5008870   0.5227040  )
        31           Si  tau(  31) = (   0.4690750   0.4464040   0.0475140  )
        32           Si  tau(  32) = (   0.9242710   0.4613010   0.8534310  )
        33           Si  tau(  33) = (   0.1711920   0.6158620   0.7963420  )
        34           Si  tau(  34) = (   0.8568540   0.5508540   0.5390920  )
        35           Si  tau(  35) = (   0.9200820   0.2108290   0.4010820  )
        36           Si  tau(  36) = (   0.1656110   0.7859600   0.3625360  )
        37           Si  tau(  37) = (   0.8148960   0.8037700   0.1886940  )
        38           Si  tau(  38) = (   0.7785140   0.0939455   0.9588230  )
        39           Si  tau(  39) = (   0.4220950   0.4875240   0.6074840  )
        40           Si  tau(  40) = (   0.0037388   0.9019930   0.5421620  )
        41           Si  tau(  41) = (   0.8121140   0.9287710   0.5926090  )
        42           Si  tau(  42) = (   0.4223300   0.6815990   0.4504610  )
        43           Si  tau(  43) = (   0.5987040   0.4161480   0.4554600  )
        44           Si  tau(  44) = (   0.9771020   0.1714060   0.9730100  )
        45           Si  tau(  45) = (   0.9710130   0.9036600   0.3274260  )
        46           Si  tau(  46) = (   0.5647800   0.9563580   0.3629900  )
        47           Si  tau(  47) = (   0.1026210   0.5964230   0.3406080  )
        48           Si  tau(  48) = (   0.5437910   0.7520670   0.0904783  )
        49           Si  tau(  49) = (   0.2805580   0.5200140   0.4427940  )
        50           Si  tau(  50) = (   0.8844150   0.4181880   0.6565450  )
        51           Si  tau(  51) = (   0.5588760   0.3420540   0.7296970  )
        52           Si  tau(  52) = (   0.7146530   0.2945090   0.6140740  )
        53           Si  tau(  53) = (   0.0064392   0.8683870   0.1211030  )
        54           Si  tau(  54) = (   0.4742060   0.1470780   0.8316940  )
        55           Si  tau(  55) = (   0.3722820   0.6046390   0.8822120  )
        56           Si  tau(  56) = (   0.2720340   0.4037720   0.9541210  )
        57           Si  tau(  57) = (   0.8745110   0.9326030   0.9865240  )
        58           Si  tau(  58) = (   0.0113362   0.6399690   0.9132850  )
        59           Si  tau(  59) = (   0.3704420   0.8051000   0.3181580  )
        60           Si  tau(  60) = (   0.1051290   0.4010600   0.7383690  )
        61           Si  tau(  61) = (   0.2114300   0.8502940   0.1669110  )
        62           Si  tau(  62) = (   0.7211820   0.2529540   0.3934830  )
        63           Si  tau(  63) = (   0.8234580   0.6545620   0.8262850  )
        64           Si  tau(  64) = (   0.7042280   0.3863830   0.0522857  )

     number of k points=     1  Fermi-Dirac smearing, width (Ry)=  0.0100
                       cart. coord. in units 2pi/alat
        k(    1) = (   0.0000000   0.0000000   0.0000000), wk =   2.0000000

     Dense  grid:   109264 G-vectors     FFT dimensions: (  75,  75,  75)

     Estimated max dynamical RAM per process >     173.83 MB

     Estimated total dynamical RAM >     668.64 MB

     Initial potential from superposition of free atoms

     starting charge     255.9608, renormalised to     256.0000
     Starting wfcs are  256 randomized atomic wfcs

     total cpu time spent up to now is        4.8 secs

     Self-consistent Calculation

     iteration #  1     ecut=    30.00 Ry     beta= 0.50
     Davidson diagonalization with overlap
     ethr =  1.00E-02,  avg # of iterations =  3.0

     Threshold (ethr) on eigenvalues was too large:
     Diagonalizing with lowered threshold

     Davidson diagonalization with overlap
     ethr =  6.55E-04,  avg # of iterations =  4.0

     total cpu time spent up to now is        5.1 secs

     total energy              =    -499.79750748 Ry
     estimated scf accuracy    <       2.20792381 Ry

     iteration #  2     ecut=    30.00 Ry     beta= 0.50
     Davidson diagonalization with overlap
     ethr =  8.62E-04,  avg # of iterations =  5.0

     total cpu time spent up to now is        5.2 secs

     total energy              =    -498.79691774 Ry
     estimated scf accuracy    <      12.02967139 Ry

     iteration #  3     ecut=    30.00 Ry     beta= 0.50
     Davidson diagonalization with overlap
     ethr =  8.62E-04,  avg # of iterations =  5.0

     total cpu time spent up to now is        5.4 secs

     total energy              =    -499.90675732 Ry
     estimated scf accuracy    <       6.02105509 Ry

     iteration #  4     ecut=    30.00 Ry     beta= 0.50
     Davidson diagonalization with overlap
     ethr =  8.62E-04,  avg # of iterations =  2.0

     total cpu time spent up to now is        5.5 secs

     total energy              =    -500.31885582 Ry
     estimated scf accuracy    <       0.61308035 Ry

     iteration #  5     ecut=    30.00 Ry     beta= 0.50
     Davidson diagonalization with overlap
     ethr =  2.39E-04,  avg # of iterations =  3.0

     total cpu time spent up to now is        5.6 secs

     total energy              =    -500.36035740 Ry
     estimated scf accuracy    <       0.38728507 Ry

     iteration #  6     ecut=    30.00 Ry     beta= 0.50
     Davidson diagonalization with overlap
     ethr =  1.51E-04,  avg # of iterations =  2.0

     total cpu time spent up to now is        5.8 secs

     total energy              =    -500.39184520 Ry
     estimated scf accuracy    <       0.24022804 Ry

     iteration #  7     ecut=    30.00 Ry     beta= 0.50
     Davidson diagonalization with overlap
     ethr =  9.38E-05,  avg # of iterations =  2.0

     total cpu time spent up to now is        5.9 secs

     total energy              =    -500.40870887 Ry
     estimated scf accuracy    <       0.05054334 Ry

     iteration #  8     ecut=    30.00 Ry     beta= 0.50
     Davidson diagonalization with overlap
     ethr =  1.97E-05,  avg # of iterations =  4.0

     total cpu time spent up to now is        6.0 secs

     total energy              =    -500.41305384 Ry
     estimated scf accuracy    <       0.05838049 Ry

     iteration #  9     ecut=    30.00 Ry     beta= 0.50
     Davidson diagonalization with overlap
     ethr =  1.97E-05,  avg # of iterations =  2.0

     total cpu time spent up to now is        6.1 secs

     total energy              =    -500.41710520 Ry
     estimated scf accuracy    <       0.00592616 Ry

     iteration # 10     ecut=    30.00 Ry     beta= 0.50
     Davidson diagonalization with overlap
     ethr =  2.31E-06,  avg # of iterations = 20.0

     total cpu time spent up to now is        6.4 secs

     total energy              =    -500.41763052 Ry
     estimated scf accuracy    <       0.00832236 Ry

     iteration # 11     ecut=    30.00 Ry     beta= 0.50
     Davidson diagonalization with overlap
     ethr =  2.31E-06,  avg # of iterations =  2.0

     total cpu time spent up to now is        6.5 secs

     total energy              =    -500.41823405 Ry
     estimated scf accuracy    <       0.00106616 Ry

     iteration # 12     ecut=    30.00 Ry     beta= 0.50
     Davidson diagonalization with overlap
     ethr =  4.16E-07,  avg # of iterations =  3.0

     total cpu time spent up to now is        6.7 secs

     total energy              =    -500.41837440 Ry
     estimated scf accuracy    <       0.00064294 Ry

     iteration # 13     ecut=    30.00 Ry     beta= 0.50
     Davidson diagonalization with overlap
     ethr =  2.51E-07,  avg # of iterations =  2.0

     total cpu time spent up to now is        6.8 secs

     total energy              =    -500.41842143 Ry
     estimated scf accuracy    <       0.00038597 Ry

     iteration # 14     ecut=    30.00 Ry     beta= 0.50
     Davidson diagonalization with overlap
     ethr =  1.51E-07,  avg # of iterations =  2.0

     total cpu time spent up to now is        6.9 secs

     total energy              =    -500.41845131 Ry
     estimated scf accuracy    <       0.00009482 Ry

     iteration # 15     ecut=    30.00 Ry     beta= 0.50
     Davidson diagonalization with overlap
     ethr =  3.70E-08,  avg # of iterations =  2.0

     total cpu time spent up to now is        7.0 secs

     total energy              =    -500.41845800 Ry
     estimated scf accuracy    <       0.00005263 Ry

     iteration # 16     ecut=    30.00 Ry     beta= 0.50
     Davidson diagonalization with overlap
     ethr =  2.06E-08,  avg # of iterations =  3.0

     total cpu time spent up to now is        7.2 secs

     total energy              =    -500.41845964 Ry
     estimated scf accuracy    <       0.00008526 Ry

     iteration # 17     ecut=    30.00 Ry     beta= 0.50
     Davidson diagonalization with overlap
     ethr =  2.06E-08,  avg # of iterations =  2.0

     total cpu time spent up to now is        7.3 secs

     total energy              =    -500.41846469 Ry
     estimated scf accuracy    <       0.00000879 Ry

     iteration # 18     ecut=    30.00 Ry     beta= 0.50
     Davidson diagonalization with overlap
     ethr =  3.43E-09,  avg # of iterations =  4.0

     total cpu time spent up to now is        7.4 secs

     total energy              =    -500.41846586 Ry
     estimated scf accuracy    <       0.00000911 Ry

     iteration # 19     ecut=    30.00 Ry     beta= 0.50
     Davidson diagonalization with overlap
     ethr =  3.43E-09,  avg # of iterations =  2.0

     total cpu time spent up to now is        7.6 secs

     total energy              =    -500.41846637 Ry
     estimated scf accuracy    <       0.00000272 Ry

     iteration # 20     ecut=    30.00 Ry     beta= 0.50
     Davidson diagonalization with overlap
     ethr =  1.06E-09,  avg # of iterations =  2.0

     total cpu time spent up to now is        7.7 secs

     End of self-consistent calculation

          k = 0.0000 0.0000 0.0000 ( 13601 PWs)   bands (ev):

    -7.3295  -6.9149  -6.5933  -6.5411  -6.3794  -6.1591  -6.0386  -5.7608
    -5.6104  -5.4243  -5.2696  -5.2408  -5.0673  -4.8996  -4.7870  -4.6969
    -4.5609  -4.5151  -4.4281  -4.3763  -4.2268  -4.0251  -3.7096  -3.6876
    -3.5078  -3.2644  -3.2329  -3.0669  -2.8772  -2.7563  -2.5951  -2.4838
    -2.4393  -2.3327  -2.2214  -2.1922  -2.0634  -1.9655  -1.8589  -1.8128
    -1.6790  -1.4715  -1.3423  -1.3043  -1.2110  -1.0287  -0.9075  -0.8290
    -0.7555  -0.6322  -0.5763  -0.4838  -0.3542  -0.3041  -0.2218  -0.0068
     0.1721   0.2232   0.3576   0.3896   0.5246   0.5533   0.7072   0.7579
     0.9029   0.9963   1.1101   1.1241   1.1828   1.2660   1.3655   1.4065
     1.4966   1.5858   1.6489   1.6930   1.7859   1.8556   1.9130   2.0141
     2.0798   2.1522   2.2530   2.2980   2.4304   2.4882   2.5149   2.6307
     2.6893   2.7511   2.7794   2.7907   2.8781   2.9911   3.0795   3.1355
     3.1846   3.2079   3.3287   3.3630   3.4524   3.4663   3.5487   3.5803
     3.6703   3.6909   3.8359   3.8891   3.9451   4.0019   4.0927   4.1191
     4.1609   4.2546   4.2768   4.3015   4.4176   4.4992   4.5462   4.6676
     4.6754   4.7227   4.7650   4.8611   4.9003   4.9271   4.9807   5.0646
     5.0944   5.1916   5.2154   5.2796   5.3354   5.4156   5.4423   5.5036
     5.6115   5.6399   5.6541   5.7247   5.8066   5.8302   5.9334   6.0146
     6.1082   6.1211   6.2251   6.2367   6.2702   6.2908   6.3674   6.4455
     6.4708   6.5360

     the Fermi energy is     5.0854 ev

!    total energy              =    -500.41846637 Ry
     estimated scf accuracy    <       0.00000051 Ry
     smearing contrib. (-TS)   =      -0.15859978 Ry
     internal energy E=F+TS    =    -500.25986659 Ry

     The total energy is F=E-TS. E is the sum of the following terms:
     one-electron contribution =      51.51855785 Ry
     hartree contribution      =      73.10772108 Ry
     xc contribution           =    -149.50843590 Ry
     ewald contribution        =    -475.37770961 Ry

     convergence has been achieved in  20 iterations

     Forces acting on atoms (cartesian axes, Ry/au):

     atom    1 type  1   force =     0.01468672    0.03371667    0.03800350
     atom    2 type  1   force =    -0.02977256   -0.01425133   -0.00283161
     atom    3 type  1   force =    -0.01394026    0.02324589    0.04158431
     atom    4 type  1   force =     0.05992539   -0.00695669   -0.01643881
     atom    5 type  1   force =     0.00366161   -0.00294779    0.02501847
     atom    6 type  1   force =    -0.03796876   -0.01669347   -0.02116178
     atom    7 type  1   force =     0.01230880   -0.04976468    0.00480854
     atom    8 type  1   force =    -0.08131673   -0.10610708   -0.02786179
     atom    9 type  1   force =    -0.03558914   -0.01500440   -0.01259088
     atom   10 type  1   force =     0.00255099    0.02862219   -0.00494837
     atom   11 type  1   force =    -0.06239666   -0.00322721    0.02282128
     atom   12 type  1   force =    -0.00903140   -0.00899599    0.01450484
     atom   13 type  1   force =     0.01710020   -0.00732507   -0.01046976
     atom   14 type  1   force =     0.00661805   -0.10477066   -0.03044118
     atom   15 type  1   force =    -0.08856166    0.07034151    0.08008614
     atom   16 type  1   force =     0.02782817    0.03543141   -0.00387868
     atom   17 type  1   force =    -0.01975151    0.02648457    0.00008790
     atom   18 type  1   force =    -0.01404374    0.00065286   -0.05965975
     atom   19 type  1   force =     0.00008049   -0.00425758   -0.01983826
     atom   20 type  1   force =    -0.02136017    0.01185835    0.01925516
     atom   21 type  1   force =    -0.00986237    0.00526940   -0.00306451
     atom   22 type  1   force =    -0.00169645   -0.00574704    0.02493784
     atom   23 type  1   force =    -0.00464384    0.02528593   -0.01628554
     atom   24 type  1   force =     0.03254016    0.00496495    0.03626905
     atom   25 type  1   force =    -0.01879270   -0.01538693    0.02114642
     atom   26 type  1   force =     0.01550091   -0.01078938   -0.02586365
     atom   27 type  1   force =    -0.00010631   -0.01231100   -0.00068501
     atom   28 type  1   force =     0.01972254   -0.00311402    0.01972260
     atom   29 type  1   force =     0.19757688    0.00820356   -0.06781176
     atom   30 type  1   force =    -0.00210199   -0.02176640    0.03322221
     atom   31 type  1   force =     0.00139605    0.00666868   -0.00545890
     atom   32 type  1   force =    -0.00581888   -0.02719771    0.02335068
     atom   33 type  1   force =     0.05771461   -0.03295153   -0.05164691
     atom   34 type  1   force =    -0.04030868    0.15235769   -0.13024677
     atom   35 type  1   force =     0.06898656    0.00691149   -0.05596513
     atom   36 type  1   force =    -0.02153551    0.02593362    0.01150125
     atom   37 type  1   force =    -0.01000471   -0.01004850    0.01290307
     atom   38 type  1   force =    -0.03898736    0.09613911   -0.00779038
     atom   39 type  1   force =     0.02714735   -0.03225410   -0.00963819
     atom   40 type  1   force =    -0.06635589   -0.08843794   -0.03300360
     atom   41 type  1   force =    -0.07050069   -0.03734024    0.01874835
     atom   42 type  1   force =     0.04927979   -0.09028467    0.06468056
     atom   43 type  1   force =    -0.00008909    0.04504300    0.03670120
     atom   44 type  1   force =    -0.00676334    0.02446332   -0.01578516
     atom   45 type  1   force =     0.01107412    0.02301540    0.00689019
     atom   46 type  1   force =    -0.01751295   -0.01661407   -0.00536406
     atom   47 type  1   force =    -0.00963241   -0.02534040   -0.02258139
     atom   48 type  1   force =    -0.02085936   -0.02850610   -0.01371504
     atom   49 type  1   force =    -0.00528964   -0.01931758   -0.00840893
     atom   50 type  1   force =     0.01227795   -0.12749391    0.10269664
     atom   51 type  1   force =    -0.04746332    0.00521931    0.03136577
     atom   52 type  1   force =     0.04218143   -0.01300360   -0.02287342
     atom   53 type  1   force =     0.03387403   -0.02056992    0.00835605
     atom   54 type  1   force =     0.03898021    0.02182236    0.01158145
     atom   55 type  1   force =    -0.00871408   -0.00337199    0.03049577
     atom   56 type  1   force =    -0.02184466    0.01581178   -0.01208008
     atom   57 type  1   force =     0.01567936   -0.06502974   -0.00907688
     atom   58 type  1   force =    -0.02285911    0.02405934    0.04331787
     atom   59 type  1   force =     0.00567686    0.10317225   -0.08359007
     atom   60 type  1   force =     0.00378518    0.02026779   -0.00250497
     atom   61 type  1   force =     0.00814763    0.00585403   -0.01797821
     atom   62 type  1   force =    -0.00104890    0.11248993    0.03960845
     atom   63 type  1   force =    -0.01096002    0.00596598   -0.01497008
     atom   64 type  1   force =     0.09118282    0.07790633    0.02284395

     Total force =     0.586475     Total SCF correction =     0.001235


     Computing stress (Cartesian axis) and pressure

          total   stress  (Ry/bohr**3)                   (kbar)     P=       -7.83
  -0.00003125  -0.00000383  -0.00000931           -4.60       -0.56       -1.37
  -0.00000383  -0.00002507  -0.00000564           -0.56       -3.69       -0.83
  -0.00000931  -0.00000564  -0.00010338           -1.37       -0.83      -15.21

 
     init_run     :      0.79s CPU      4.69s WALL (       1 calls)
     electrons    :      2.69s CPU      2.89s WALL (       1 calls)
     forces       :      0.04s CPU      0.04s WALL (       1 calls)
     stress       :      0.18s CPU      0.19s WALL (       1 calls)

     Called by init_run:
     wfcinit      :      0.57s CPU      4.30s WALL (       1 calls)
                                        4.30s GPU  (       1 calls)
     potinit      :      0.05s CPU      0.14s WALL (       1 calls)
     hinit0       :      0.15s CPU      0.17s WALL (       1 calls)

     Called by electrons:
     c_bands      :      1.58s CPU      1.66s WALL (      21 calls)
     sum_band     :      0.56s CPU      0.62s WALL (      21 calls)
     v_of_rho     :      0.25s CPU      0.35s WALL (      21 calls)
     mix_rho      :      0.25s CPU      0.27s WALL (      21 calls)

     Called by c_bands:
     init_us_2    :      0.08s CPU      0.08s WALL (      43 calls)
     init_us_2:gp :      0.08s CPU      0.08s WALL (      43 calls)
     regterg      :      1.39s CPU      1.46s WALL (      21 calls)

     Called by *egterg:
     rdiaghg      :      0.45s CPU      1.22s WALL (      96 calls)
                                        1.20s GPU  (      96 calls)
     h_psi        :      1.28s CPU      4.29s WALL (      98 calls)
                                        4.29s GPU  (      98 calls)
     g_psi        :      0.00s CPU      0.00s WALL (      76 calls)
                                        0.00s GPU  (      76 calls)

     Called by h_psi:
     h_psi:calbec :      0.52s CPU      3.44s WALL (      98 calls)
                                        3.44s GPU  (      98 calls)
     vloc_psi     :      0.70s CPU      0.79s WALL (      98 calls)
                                        0.78s GPU  (      98 calls)
     add_vuspsi   :      0.04s CPU      0.06s WALL (      98 calls)
                                        0.06s GPU  (      98 calls)

     General routines
     calbec       :      0.53s CPU      3.44s WALL (     103 calls)
     fft          :      0.39s CPU      0.53s WALL (     175 calls)
                                        0.13s GPU  (     111 calls)
     ffts         :      0.09s CPU      0.10s WALL (      21 calls)
     fftw         :      0.77s CPU      1.00s WALL (    2207 calls)
                                        0.91s GPU  (    2207 calls)
 
     Parallel routines
 
     PWSCF        :      3.75s CPU      7.91s WALL

 
   This run was terminated on:  14: 3: 6  10May2023            

=------------------------------------------------------------------------------=
   JOB DONE.
=------------------------------------------------------------------------------=
