An instance of this daemon is already running
An instance of this daemon is already running

     Program PWSCF v.7.1 starts on 10May2023 at 14: 0:37 

     This program is part of the open-source Quantum ESPRESSO suite
     for quantum simulation of materials; please cite
         "P. Giannozzi et al., J. Phys.:Condens. Matter 21 395502 (2009);
         "P. Giannozzi et al., J. Phys.:Condens. Matter 29 465901 (2017);
         "P. Giannozzi et al., J. Chem. Phys. 152 154105 (2020);
          URL http://www.quantum-espresso.org", 
     in publications or presentations arising from this work. More details at
     http://www.quantum-espresso.org/quote

     Parallel version (MPI & OpenMP), running on       4 processor cores
     Number of MPI processes:                 4
     Threads/MPI process:                     1

     MPI processes distributed on     1 nodes
     752426 MiB available memory on the printing compute node when the environment starts
 
     Reading input from pw-si-20.in
Warning: card &CELL ignored
Warning: card / ignored

     Current dimensions of program PWSCF are:
     Max number of different atomic species (ntypx) = 10
     Max number of k-points (npk) =  40000
     Max angular momentum in pseudopotentials (lmaxx) =  4

     IMPORTANT: XC functional enforced from input :
     Exchange-correlation= PBE
                           (   1   4   3   4   0   0   0)
     Any further DFT definition will be discarded
     Please, verify this is what you really want


     gamma-point specific algorithms are used
 
     K-points division:     npool     =       2
     R & G space division:  proc/nbgrp/npool/nimage =       2
     Subspace diagonalization in iterative solution of the eigenvalue problem:
     a serial algorithm will be used

     Message from routine divide_et_impera:
     suboptimal parallelization: some nodes have no k-points
 
     Parallelization info
     --------------------
     sticks:   dense  smooth     PW     G-vecs:    dense   smooth      PW
     Min        1997    1997    524                95411    95411   12860
     Max        2004    2004    525                95412    95412   12865
     Sum        4001    4001   1049               190823   190823   25725
 
     Using Slab Decomposition
 


     bravais-lattice index     =            0
     lattice parameter (alat)  =      20.4775  a.u.
     unit-cell volume          =    8586.8283 (a.u.)^3
     number of atoms/cell      =           64
     number of atomic types    =            1
     number of electrons       =       256.00
     number of Kohn-Sham states=          154
     kinetic-energy cutoff     =      30.0000  Ry
     charge density cutoff     =     120.0000  Ry
     scf convergence threshold =      1.0E-06
     mixing beta               =       0.5000
     number of iterations used =            8  plain     mixing
     Exchange-correlation= PBE
                           (   1   4   3   4   0   0   0)

     GPU acceleration is ACTIVE.
     GPU-aware MPI enabled

     Message from routine print_cuda_info:
     High GPU oversubscription detected. Are you sure this is what you want?

     celldm(1)=  20.477531  celldm(2)=   0.000000  celldm(3)=   0.000000
     celldm(4)=   0.000000  celldm(5)=   0.000000  celldm(6)=   0.000000

     crystal axes: (cart. coord. in units of alat)
               a(1) = (   1.000000   0.000000   0.000000 )  
               a(2) = (   0.000000   1.000000   0.000000 )  
               a(3) = (   0.000000   0.000000   1.000000 )  

     reciprocal axes: (cart. coord. in units 2 pi/alat)
               b(1) = (  1.000000  0.000000  0.000000 )  
               b(2) = (  0.000000  1.000000  0.000000 )  
               b(3) = (  0.000000  0.000000  1.000000 )  


     PseudoPot. # 1 for Si read from file:
     /home/ppiaggi/pseudos/Si_ONCV_PBE_sr.upf
     MD5 check sum: 8553c464762ac42b85b1eed164b4d029
     Pseudo is Norm-conserving, Zval =  4.0
     Generated using ONCVPSP code by D. R. Hamann
     Using radial grid of 1510 points,  4 beta functions with: 
                l(1) =   0
                l(2) =   0
                l(3) =   1
                l(4) =   1

     atomic species   valence    mass     pseudopotential
        Si             4.00    28.08500     Si( 1.00)

     No symmetry found



   Cartesian axes

     site n.     atom                  positions (alat units)
         1           Si  tau(   1) = (   0.1743240   0.2024420   0.6537850  )
         2           Si  tau(   2) = (   0.1866000   0.0808523   0.2763020  )
         3           Si  tau(   3) = (   0.8924670   0.0970528   0.6457830  )
         4           Si  tau(   4) = (   0.3667050   0.8494070   0.9933440  )
         5           Si  tau(   5) = (   0.6434740   0.0257528   0.7933390  )
         6           Si  tau(   6) = (   0.4244300   0.3060330   0.3241600  )
         7           Si  tau(   7) = (   0.2298100   0.9933930   0.9268570  )
         8           Si  tau(   8) = (   0.4445020   0.1055010   0.0863262  )
         9           Si  tau(   9) = (   0.5773240   0.7713510   0.8688200  )
        10           Si  tau(  10) = (   0.2023090   0.3393270   0.4252950  )
        11           Si  tau(  11) = (   0.3493360   0.7175730   0.5804450  )
        12           Si  tau(  12) = (   0.7906100   0.4788920   0.1809580  )
        13           Si  tau(  13) = (   0.6052330   0.5308030   0.7766250  )
        14           Si  tau(  14) = (   0.5952630   0.1571160   0.2459770  )
        15           Si  tau(  15) = (   0.1047370   0.9807610   0.6553890  )
        16           Si  tau(  16) = (   0.4832070   0.8801930   0.6767820  )
        17           Si  tau(  17) = (   0.5654610   0.5717400   0.0650298  )
        18           Si  tau(  18) = (   0.2170850   0.2874350   0.8431610  )
        19           Si  tau(  19) = (   0.7241890   0.6098990   0.5839370  )
        20           Si  tau(  20) = (   0.1180860   0.2548830   0.1912300  )
        21           Si  tau(  21) = (   0.6270860   0.8839050   0.4921630  )
        22           Si  tau(  22) = (   0.0247218   0.0150750   0.8487360  )
        23           Si  tau(  23) = (   0.5989270   0.8866990   0.0464848  )
        24           Si  tau(  24) = (   0.7456590   0.7157930   0.0603237  )
        25           Si  tau(  25) = (   0.9699670   0.3254070   0.4270450  )
        26           Si  tau(  26) = (   0.0399114   0.4751600   0.2519390  )
        27           Si  tau(  27) = (   0.7367560   0.6867680   0.2922600  )
        28           Si  tau(  28) = (   0.3419190   0.3094760   0.1280270  )
        29           Si  tau(  29) = (   0.2929840   0.0370410   0.4872170  )
        30           Si  tau(  30) = (   0.0860613   0.5020560   0.5492990  )
        31           Si  tau(  31) = (   0.5679510   0.3254070   0.9619950  )
        32           Si  tau(  32) = (   0.9163720   0.5059740   0.8555680  )
        33           Si  tau(  33) = (   0.2225640   0.6946700   0.7942260  )
        34           Si  tau(  34) = (   0.9128610   0.5702710   0.4681570  )
        35           Si  tau(  35) = (   0.8615330   0.1443250   0.4144140  )
        36           Si  tau(  36) = (   0.1943440   0.8120930   0.4860640  )
        37           Si  tau(  37) = (   0.9604920   0.7207690   0.2918300  )
        38           Si  tau(  38) = (   0.8129000   0.0954361   0.8841890  )
        39           Si  tau(  39) = (   0.5075600   0.4248750   0.6121360  )
        40           Si  tau(  40) = (   0.9648300   0.8564730   0.5379890  )
        41           Si  tau(  41) = (   0.7644480   0.8926170   0.6792950  )
        42           Si  tau(  42) = (   0.5304180   0.6894440   0.4665310  )
        43           Si  tau(  43) = (   0.5720130   0.4632950   0.3919200  )
        44           Si  tau(  44) = (   0.0041891   0.1847320   0.9962460  )
        45           Si  tau(  45) = (   0.0199546   0.9477960   0.3524020  )
        46           Si  tau(  46) = (   0.5446340   0.9227830   0.2728690  )
        47           Si  tau(  47) = (   0.1818000   0.6183080   0.3508370  )
        48           Si  tau(  48) = (   0.4721390   0.6997240   0.2299510  )
        49           Si  tau(  49) = (   0.3053010   0.4973330   0.5494690  )
        50           Si  tau(  50) = (   0.8698410   0.4284820   0.6690320  )
        51           Si  tau(  51) = (   0.5708940   0.2491370   0.7687140  )
        52           Si  tau(  52) = (   0.7486140   0.2561060   0.6074310  )
        53           Si  tau(  53) = (   0.9702550   0.8701770   0.1240360  )
        54           Si  tau(  54) = (   0.3921210   0.1433310   0.8827290  )
        55           Si  tau(  55) = (   0.3807360   0.6486300   0.9284310  )
        56           Si  tau(  56) = (   0.3291820   0.4473160   0.9532930  )
        57           Si  tau(  57) = (   0.8435220   0.8909330   0.9384320  )
        58           Si  tau(  58) = (   0.9750810   0.7203720   0.8710540  )
        59           Si  tau(  59) = (   0.3368010   0.9320570   0.3145260  )
        60           Si  tau(  60) = (   0.0169529   0.3274440   0.7648190  )
        61           Si  tau(  61) = (   0.2022140   0.9291350   0.1150090  )
        62           Si  tau(  62) = (   0.7722930   0.3603150   0.3577300  )
        63           Si  tau(  63) = (   0.7713810   0.7174800   0.7804190  )
        64           Si  tau(  64) = (   0.7768940   0.3938850   0.9691110  )

     number of k points=     1  Fermi-Dirac smearing, width (Ry)=  0.0100
                       cart. coord. in units 2pi/alat
        k(    1) = (   0.0000000   0.0000000   0.0000000), wk =   2.0000000

     Dense  grid:    95412 G-vectors     FFT dimensions: (  72,  72,  72)

     Estimated max dynamical RAM per process >     152.18 MB

     Estimated total dynamical RAM >     585.45 MB

     Initial potential from superposition of free atoms

     starting charge     255.9608, renormalised to     256.0000
     Starting wfcs are  256 randomized atomic wfcs

     total cpu time spent up to now is        4.8 secs

     Self-consistent Calculation

     iteration #  1     ecut=    30.00 Ry     beta= 0.50
     Davidson diagonalization with overlap
     ethr =  1.00E-02,  avg # of iterations =  3.0

     Threshold (ethr) on eigenvalues was too large:
     Diagonalizing with lowered threshold

     Davidson diagonalization with overlap
     ethr =  5.99E-04,  avg # of iterations =  4.0

     total cpu time spent up to now is        5.1 secs

     total energy              =    -500.48699863 Ry
     estimated scf accuracy    <       1.98747316 Ry

     iteration #  2     ecut=    30.00 Ry     beta= 0.50
     Davidson diagonalization with overlap
     ethr =  7.76E-04,  avg # of iterations =  4.0

     total cpu time spent up to now is        5.2 secs

     total energy              =    -500.02380105 Ry
     estimated scf accuracy    <       6.36673565 Ry

     iteration #  3     ecut=    30.00 Ry     beta= 0.50
     Davidson diagonalization with overlap
     ethr =  7.76E-04,  avg # of iterations =  4.0

     total cpu time spent up to now is        5.3 secs

     total energy              =    -500.61353606 Ry
     estimated scf accuracy    <       4.54199295 Ry

     iteration #  4     ecut=    30.00 Ry     beta= 0.50
     Davidson diagonalization with overlap
     ethr =  7.76E-04,  avg # of iterations =  2.0

     total cpu time spent up to now is        5.4 secs

     total energy              =    -500.96384252 Ry
     estimated scf accuracy    <       0.61248508 Ry

     iteration #  5     ecut=    30.00 Ry     beta= 0.50
     Davidson diagonalization with overlap
     ethr =  2.39E-04,  avg # of iterations =  2.0

     total cpu time spent up to now is        5.5 secs

     total energy              =    -500.99216521 Ry
     estimated scf accuracy    <       0.48328959 Ry

     iteration #  6     ecut=    30.00 Ry     beta= 0.50
     Davidson diagonalization with overlap
     ethr =  1.89E-04,  avg # of iterations =  2.0

     total cpu time spent up to now is        5.6 secs

     total energy              =    -501.03368038 Ry
     estimated scf accuracy    <       0.24211795 Ry

     iteration #  7     ecut=    30.00 Ry     beta= 0.50
     Davidson diagonalization with overlap
     ethr =  9.46E-05,  avg # of iterations =  2.0

     total cpu time spent up to now is        5.7 secs

     total energy              =    -501.05034217 Ry
     estimated scf accuracy    <       0.03454549 Ry

     iteration #  8     ecut=    30.00 Ry     beta= 0.50
     Davidson diagonalization with overlap
     ethr =  1.35E-05,  avg # of iterations =  8.0

     total cpu time spent up to now is        5.9 secs

     total energy              =    -501.05367184 Ry
     estimated scf accuracy    <       0.05124572 Ry

     iteration #  9     ecut=    30.00 Ry     beta= 0.50
     Davidson diagonalization with overlap
     ethr =  1.35E-05,  avg # of iterations =  2.0

     total cpu time spent up to now is        6.0 secs

     total energy              =    -501.05735617 Ry
     estimated scf accuracy    <       0.00310048 Ry

     iteration # 10     ecut=    30.00 Ry     beta= 0.50
     Davidson diagonalization with overlap
     c_bands:  1 eigenvalues not converged
     ethr =  1.21E-06,  avg # of iterations = 20.0

     total cpu time spent up to now is        6.2 secs

     total energy              =    -501.05772455 Ry
     estimated scf accuracy    <       0.00323987 Ry

     iteration # 11     ecut=    30.00 Ry     beta= 0.50
     Davidson diagonalization with overlap
     ethr =  1.21E-06,  avg # of iterations =  3.0

     total cpu time spent up to now is        6.3 secs

     total energy              =    -501.05798528 Ry
     estimated scf accuracy    <       0.00118047 Ry

     iteration # 12     ecut=    30.00 Ry     beta= 0.50
     Davidson diagonalization with overlap
     ethr =  4.61E-07,  avg # of iterations =  2.0

     total cpu time spent up to now is        6.4 secs

     total energy              =    -501.05806027 Ry
     estimated scf accuracy    <       0.00043394 Ry

     iteration # 13     ecut=    30.00 Ry     beta= 0.50
     Davidson diagonalization with overlap
     ethr =  1.70E-07,  avg # of iterations =  2.0

     total cpu time spent up to now is        6.5 secs

     total energy              =    -501.05810042 Ry
     estimated scf accuracy    <       0.00036993 Ry

     iteration # 14     ecut=    30.00 Ry     beta= 0.50
     Davidson diagonalization with overlap
     ethr =  1.45E-07,  avg # of iterations =  2.0

     total cpu time spent up to now is        6.6 secs

     total energy              =    -501.05812220 Ry
     estimated scf accuracy    <       0.00008525 Ry

     iteration # 15     ecut=    30.00 Ry     beta= 0.50
     Davidson diagonalization with overlap
     ethr =  3.33E-08,  avg # of iterations =  2.0

     total cpu time spent up to now is        6.7 secs

     total energy              =    -501.05812986 Ry
     estimated scf accuracy    <       0.00003555 Ry

     iteration # 16     ecut=    30.00 Ry     beta= 0.50
     Davidson diagonalization with overlap
     ethr =  1.39E-08,  avg # of iterations =  2.0

     total cpu time spent up to now is        6.8 secs

     total energy              =    -501.05813378 Ry
     estimated scf accuracy    <       0.00002449 Ry

     iteration # 17     ecut=    30.00 Ry     beta= 0.50
     Davidson diagonalization with overlap
     ethr =  9.57E-09,  avg # of iterations =  1.0

     total cpu time spent up to now is        6.9 secs

     total energy              =    -501.05813478 Ry
     estimated scf accuracy    <       0.00000552 Ry

     iteration # 18     ecut=    30.00 Ry     beta= 0.50
     Davidson diagonalization with overlap
     ethr =  2.16E-09,  avg # of iterations =  3.0

     total cpu time spent up to now is        7.0 secs

     total energy              =    -501.05813547 Ry
     estimated scf accuracy    <       0.00000852 Ry

     iteration # 19     ecut=    30.00 Ry     beta= 0.50
     Davidson diagonalization with overlap
     ethr =  2.16E-09,  avg # of iterations =  2.0

     total cpu time spent up to now is        7.1 secs

     End of self-consistent calculation

          k = 0.0000 0.0000 0.0000 ( 11924 PWs)   bands (ev):

    -6.4032  -5.8465  -5.5779  -5.3286  -5.1077  -4.7960  -4.6622  -4.5818
    -4.3947  -4.3515  -4.2252  -4.1669  -3.9451  -3.8732  -3.5640  -3.4462
    -3.3909  -3.2955  -3.2039  -3.0399  -2.9195  -2.5959  -2.4609  -2.3857
    -2.3077  -2.0368  -1.7533  -1.6705  -1.6406  -1.6175  -1.4848  -1.2159
    -1.1778  -1.1153  -0.9436  -0.8827  -0.7329  -0.6436  -0.6077  -0.4846
    -0.3935  -0.3092  -0.2364  -0.1926  -0.0782  -0.0614   0.1059   0.2686
     0.3132   0.5450   0.6337   0.6719   0.7743   0.9223   1.0945   1.1463
     1.2080   1.2948   1.3983   1.5301   1.6066   1.6862   1.7363   1.8773
     1.9306   1.9470   2.0994   2.2567   2.2879   2.3447   2.3847   2.4922
     2.5665   2.7566   2.7853   2.8195   3.0096   3.1365   3.1616   3.2400
     3.3135   3.4614   3.5445   3.6792   3.7462   3.8068   3.9027   3.9106
     3.9916   4.0701   4.2085   4.2588   4.3152   4.3381   4.4306   4.4717
     4.5667   4.5902   4.6146   4.7364   4.8491   4.8761   4.8999   4.9880
     5.0008   5.0933   5.1644   5.1853   5.2417   5.3291   5.3495   5.4146
     5.4899   5.5504   5.5890   5.6518   5.7088   5.7868   5.8702   5.9553
     6.0070   6.0966   6.1315   6.1808   6.2211   6.2780   6.4138   6.4835
     6.5489   6.5680   6.6073   6.6543   6.7410   6.8619   6.8821   6.9248
     6.9616   7.0872   7.1280   7.1882   7.2642   7.3222   7.3874   7.5492
     7.6175   7.6550   7.7043   7.7262   7.7595   7.8360   7.9127   7.9232
     7.9648   8.0725

     the Fermi energy is     6.4773 ev

!    total energy              =    -501.05813572 Ry
     estimated scf accuracy    <       0.00000048 Ry
     smearing contrib. (-TS)   =      -0.14275276 Ry
     internal energy E=F+TS    =    -500.91538297 Ry

     The total energy is F=E-TS. E is the sum of the following terms:
     one-electron contribution =     108.18535031 Ry
     hartree contribution      =      57.79895559 Ry
     xc contribution           =    -151.56924914 Ry
     ewald contribution        =    -515.33043973 Ry

     convergence has been achieved in  19 iterations

     Forces acting on atoms (cartesian axes, Ry/au):

     atom    1 type  1   force =    -0.01339933   -0.01777753   -0.06933594
     atom    2 type  1   force =    -0.01412969   -0.00977584    0.03294070
     atom    3 type  1   force =     0.01137702   -0.01712321    0.02058119
     atom    4 type  1   force =     0.04230967   -0.01405729    0.03600956
     atom    5 type  1   force =    -0.08676494    0.00889314    0.00052280
     atom    6 type  1   force =     0.01071349   -0.01917558    0.01016506
     atom    7 type  1   force =    -0.00353994    0.05154610   -0.08176022
     atom    8 type  1   force =     0.00343826    0.01190344    0.02583473
     atom    9 type  1   force =    -0.03938757   -0.01706976   -0.03632548
     atom   10 type  1   force =     0.01801774   -0.02730336    0.00502761
     atom   11 type  1   force =     0.01492664   -0.03951472    0.06882051
     atom   12 type  1   force =     0.01781776    0.02714960   -0.02834355
     atom   13 type  1   force =     0.01767035   -0.01531379    0.00186582
     atom   14 type  1   force =    -0.01884227    0.00124236   -0.00354148
     atom   15 type  1   force =     0.01738330    0.01672346   -0.03277366
     atom   16 type  1   force =     0.00391062    0.00605817   -0.00210822
     atom   17 type  1   force =     0.01045375   -0.00459538   -0.00863340
     atom   18 type  1   force =     0.02136757    0.01368311    0.03621245
     atom   19 type  1   force =    -0.01592546   -0.01083469   -0.00114833
     atom   20 type  1   force =     0.00756168    0.06995978   -0.02003974
     atom   21 type  1   force =     0.00686920   -0.01260479    0.00596590
     atom   22 type  1   force =     0.00800698   -0.00412205    0.02963844
     atom   23 type  1   force =    -0.01422742    0.03491735    0.01710114
     atom   24 type  1   force =    -0.00002600   -0.00463198    0.00861620
     atom   25 type  1   force =     0.05578536    0.04698594    0.00527870
     atom   26 type  1   force =    -0.02269335   -0.02842467   -0.00483461
     atom   27 type  1   force =     0.00241380   -0.01809132   -0.01967597
     atom   28 type  1   force =    -0.03182152   -0.01677052   -0.01565150
     atom   29 type  1   force =    -0.01676271    0.02682697    0.05503339
     atom   30 type  1   force =     0.02200123   -0.02388880    0.03471444
     atom   31 type  1   force =    -0.01497977    0.04302491    0.04281863
     atom   32 type  1   force =     0.00686554    0.02718581    0.02477582
     atom   33 type  1   force =    -0.03024044    0.01990095   -0.05469114
     atom   34 type  1   force =    -0.07219617    0.02573271   -0.02983119
     atom   35 type  1   force =    -0.01450143   -0.02406428   -0.00175731
     atom   36 type  1   force =    -0.06301286    0.04633040   -0.05046279
     atom   37 type  1   force =     0.00507952    0.00498706   -0.01137048
     atom   38 type  1   force =     0.04990257    0.05650508    0.02715880
     atom   39 type  1   force =     0.00503085   -0.02591638   -0.00457435
     atom   40 type  1   force =     0.01146571   -0.02482266    0.00983421
     atom   41 type  1   force =     0.02308960    0.07498385   -0.09373435
     atom   42 type  1   force =     0.03590487   -0.03349050   -0.02577631
     atom   43 type  1   force =     0.01013616    0.00450570    0.04007452
     atom   44 type  1   force =    -0.00941497    0.01500550   -0.02915464
     atom   45 type  1   force =    -0.01479584    0.01102831   -0.02009990
     atom   46 type  1   force =     0.03359195    0.01189128    0.00375916
     atom   47 type  1   force =    -0.00584258   -0.00121321    0.01973452
     atom   48 type  1   force =     0.01071565    0.02386280    0.01780806
     atom   49 type  1   force =     0.00013933    0.00803133    0.00751892
     atom   50 type  1   force =    -0.06503076    0.04084974   -0.07634952
     atom   51 type  1   force =    -0.00822501   -0.02025780   -0.08269976
     atom   52 type  1   force =    -0.02235250    0.01173812    0.00259743
     atom   53 type  1   force =     0.04272154   -0.00958944    0.01856876
     atom   54 type  1   force =    -0.00909495    0.00959465   -0.02137721
     atom   55 type  1   force =     0.05613682   -0.01693747    0.00860151
     atom   56 type  1   force =     0.01745387   -0.04024590    0.01067505
     atom   57 type  1   force =     0.01012715   -0.02610495    0.03788169
     atom   58 type  1   force =     0.02988287   -0.01760299    0.00389405
     atom   59 type  1   force =     0.01261308   -0.06686066   -0.04867977
     atom   60 type  1   force =     0.05127148   -0.05111936    0.03357500
     atom   61 type  1   force =    -0.03939098   -0.02262843    0.09564511
     atom   62 type  1   force =    -0.05746421   -0.00322170    0.01783604
     atom   63 type  1   force =     0.00587275   -0.06378998    0.01659984
     atom   64 type  1   force =    -0.00596304   -0.00210663    0.04104506

     Total force =     0.441535     Total SCF correction =     0.001267


     Computing stress (Cartesian axis) and pressure

          total   stress  (Ry/bohr**3)                   (kbar)     P=        3.15
  -0.00001397  -0.00007099   0.00005314           -2.06      -10.44        7.82
  -0.00007099   0.00004849  -0.00001845          -10.44        7.13       -2.71
   0.00005314  -0.00001845   0.00002977            7.82       -2.71        4.38

 
     init_run     :      1.11s CPU      4.75s WALL (       1 calls)
     electrons    :      2.09s CPU      2.24s WALL (       1 calls)
     forces       :      0.04s CPU      0.04s WALL (       1 calls)
     stress       :      0.16s CPU      0.16s WALL (       1 calls)

     Called by init_run:
     wfcinit      :      0.57s CPU      4.03s WALL (       1 calls)
                                        4.03s GPU  (       1 calls)
     potinit      :      0.05s CPU      0.14s WALL (       1 calls)
     hinit0       :      0.47s CPU      0.50s WALL (       1 calls)

     Called by electrons:
     c_bands      :      1.22s CPU      1.28s WALL (      20 calls)
     sum_band     :      0.42s CPU      0.46s WALL (      20 calls)
     v_of_rho     :      0.20s CPU      0.31s WALL (      20 calls)
     mix_rho      :      0.20s CPU      0.22s WALL (      20 calls)

     Called by c_bands:
     init_us_2    :      0.07s CPU      0.08s WALL (      41 calls)
     init_us_2:gp :      0.07s CPU      0.07s WALL (      41 calls)
     regterg      :      1.06s CPU      1.11s WALL (      20 calls)

     Called by *egterg:
     rdiaghg      :      0.44s CPU      1.16s WALL (      91 calls)
                                        1.15s GPU  (      91 calls)
     h_psi        :      0.98s CPU      3.76s WALL (      93 calls)
                                        3.75s GPU  (      93 calls)
     g_psi        :      0.00s CPU      0.00s WALL (      72 calls)
                                        0.00s GPU  (      72 calls)

     Called by h_psi:
     h_psi:calbec :      0.53s CPU      3.23s WALL (      93 calls)
                                        3.23s GPU  (      93 calls)
     vloc_psi     :      0.40s CPU      0.46s WALL (      93 calls)
                                        0.46s GPU  (      93 calls)
     add_vuspsi   :      0.04s CPU      0.05s WALL (      93 calls)
                                        0.05s GPU  (      93 calls)

     General routines
     calbec       :      0.53s CPU      3.23s WALL (      98 calls)
     fft          :      0.64s CPU      0.77s WALL (     167 calls)
                                        0.13s GPU  (     106 calls)
     ffts         :      0.06s CPU      0.06s WALL (      20 calls)
     fftw         :      0.48s CPU      0.63s WALL (    2106 calls)
                                        0.55s GPU  (    2106 calls)
 
     Parallel routines
 
     PWSCF        :      3.45s CPU      7.28s WALL

 
   This run was terminated on:  14: 0:44  10May2023            

=------------------------------------------------------------------------------=
   JOB DONE.
=------------------------------------------------------------------------------=
