An instance of this daemon is already running

     Program PWSCF v.7.1 starts on 10May2023 at 13:59:38 

     This program is part of the open-source Quantum ESPRESSO suite
     for quantum simulation of materials; please cite
         "P. Giannozzi et al., J. Phys.:Condens. Matter 21 395502 (2009);
         "P. Giannozzi et al., J. Phys.:Condens. Matter 29 465901 (2017);
         "P. Giannozzi et al., J. Chem. Phys. 152 154105 (2020);
          URL http://www.quantum-espresso.org", 
     in publications or presentations arising from this work. More details at
     http://www.quantum-espresso.org/quote

     Parallel version (MPI & OpenMP), running on       4 processor cores
     Number of MPI processes:                 4
     Threads/MPI process:                     1

     MPI processes distributed on     1 nodes
     752412 MiB available memory on the printing compute node when the environment starts
 
     Reading input from pw-si-14.in
Warning: card &CELL ignored
Warning: card / ignored

     Current dimensions of program PWSCF are:
     Max number of different atomic species (ntypx) = 10
     Max number of k-points (npk) =  40000
     Max angular momentum in pseudopotentials (lmaxx) =  4

     IMPORTANT: XC functional enforced from input :
     Exchange-correlation= PBE
                           (   1   4   3   4   0   0   0)
     Any further DFT definition will be discarded
     Please, verify this is what you really want


     gamma-point specific algorithms are used
 
     K-points division:     npool     =       2
     R & G space division:  proc/nbgrp/npool/nimage =       2
     Subspace diagonalization in iterative solution of the eigenvalue problem:
     a serial algorithm will be used

     Message from routine divide_et_impera:
     suboptimal parallelization: some nodes have no k-points
 
     Parallelization info
     --------------------
     sticks:   dense  smooth     PW     G-vecs:    dense   smooth      PW
     Min        1933    1933    515                90495    90495   12286
     Max        1936    1936    518                90500    90500   12287
     Sum        3869    3869   1033               180995   180995   24573
 
     Using Slab Decomposition
 


     bravais-lattice index     =            0
     lattice parameter (alat)  =      20.1299  a.u.
     unit-cell volume          =    8156.9172 (a.u.)^3
     number of atoms/cell      =           64
     number of atomic types    =            1
     number of electrons       =       256.00
     number of Kohn-Sham states=          154
     kinetic-energy cutoff     =      30.0000  Ry
     charge density cutoff     =     120.0000  Ry
     scf convergence threshold =      1.0E-06
     mixing beta               =       0.5000
     number of iterations used =            8  plain     mixing
     Exchange-correlation= PBE
                           (   1   4   3   4   0   0   0)

     GPU acceleration is ACTIVE.
     GPU-aware MPI enabled

     Message from routine print_cuda_info:
     High GPU oversubscription detected. Are you sure this is what you want?

     celldm(1)=  20.129919  celldm(2)=   0.000000  celldm(3)=   0.000000
     celldm(4)=   0.000000  celldm(5)=   0.000000  celldm(6)=   0.000000

     crystal axes: (cart. coord. in units of alat)
               a(1) = (   1.000000   0.000000   0.000000 )  
               a(2) = (   0.000000   1.000000   0.000000 )  
               a(3) = (   0.000000   0.000000   1.000000 )  

     reciprocal axes: (cart. coord. in units 2 pi/alat)
               b(1) = (  1.000000  0.000000  0.000000 )  
               b(2) = (  0.000000  1.000000  0.000000 )  
               b(3) = (  0.000000  0.000000  1.000000 )  


     PseudoPot. # 1 for Si read from file:
     /home/ppiaggi/pseudos/Si_ONCV_PBE_sr.upf
     MD5 check sum: 8553c464762ac42b85b1eed164b4d029
     Pseudo is Norm-conserving, Zval =  4.0
     Generated using ONCVPSP code by D. R. Hamann
     Using radial grid of 1510 points,  4 beta functions with: 
                l(1) =   0
                l(2) =   0
                l(3) =   1
                l(4) =   1

     atomic species   valence    mass     pseudopotential
        Si             4.00    28.08500     Si( 1.00)

     No symmetry found



   Cartesian axes

     site n.     atom                  positions (alat units)
         1           Si  tau(   1) = (   0.1410170   0.1899900   0.6569420  )
         2           Si  tau(   2) = (   0.1802540   0.0928450   0.2941500  )
         3           Si  tau(   3) = (   0.8985440   0.0852287   0.6629450  )
         4           Si  tau(   4) = (   0.3831700   0.8725190   0.0344547  )
         5           Si  tau(   5) = (   0.6529060   0.0102063   0.8198170  )
         6           Si  tau(   6) = (   0.3930560   0.3408870   0.3340890  )
         7           Si  tau(   7) = (   0.2161370   0.0155757   0.9038790  )
         8           Si  tau(   8) = (   0.4091400   0.0874483   0.0889673  )
         9           Si  tau(   9) = (   0.5419790   0.7623870   0.8318120  )
        10           Si  tau(  10) = (   0.1973660   0.3044830   0.4349620  )
        11           Si  tau(  11) = (   0.3843790   0.7286870   0.6356850  )
        12           Si  tau(  12) = (   0.7671660   0.5046200   0.1691290  )
        13           Si  tau(  13) = (   0.6410730   0.5275130   0.8233460  )
        14           Si  tau(  14) = (   0.5626720   0.1722280   0.2314470  )
        15           Si  tau(  15) = (   0.1278620   0.9682850   0.6422080  )
        16           Si  tau(  16) = (   0.4861590   0.9148830   0.6903070  )
        17           Si  tau(  17) = (   0.5325220   0.5306630   0.0514724  )
        18           Si  tau(  18) = (   0.2456160   0.3185020   0.8296270  )
        19           Si  tau(  19) = (   0.7372630   0.5924790   0.6148540  )
        20           Si  tau(  20) = (   0.0927390   0.3152820   0.1637380  )
        21           Si  tau(  21) = (   0.6080900   0.9233010   0.4817010  )
        22           Si  tau(  22) = (   0.0051537   0.9922190   0.8332410  )
        23           Si  tau(  23) = (   0.6065000   0.8941960   0.0333712  )
        24           Si  tau(  24) = (   0.7663300   0.6898360   0.0550441  )
        25           Si  tau(  25) = (   0.9547700   0.3684680   0.4534880  )
        26           Si  tau(  26) = (   0.0323966   0.4975010   0.2522240  )
        27           Si  tau(  27) = (   0.7487160   0.7076140   0.2742170  )
        28           Si  tau(  28) = (   0.2954670   0.2599990   0.1377970  )
        29           Si  tau(  29) = (   0.2473540   0.0915530   0.4941160  )
        30           Si  tau(  30) = (   0.1320210   0.5007730   0.5573840  )
        31           Si  tau(  31) = (   0.5792950   0.3203620   0.9450810  )
        32           Si  tau(  32) = (   0.9620120   0.4974260   0.8767160  )
        33           Si  tau(  33) = (   0.2064300   0.7363900   0.7644490  )
        34           Si  tau(  34) = (   0.8715590   0.6025220   0.4287790  )
        35           Si  tau(  35) = (   0.8297150   0.1267470   0.4302820  )
        36           Si  tau(  36) = (   0.1891710   0.8107070   0.4952090  )
        37           Si  tau(  37) = (   0.0229176   0.7012730   0.2529140  )
        38           Si  tau(  38) = (   0.7993330   0.1653780   0.9206340  )
        39           Si  tau(  39) = (   0.5390680   0.3419410   0.6016630  )
        40           Si  tau(  40) = (   0.9455950   0.8334000   0.5061300  )
        41           Si  tau(  41) = (   0.7818640   0.9010990   0.6173440  )
        42           Si  tau(  42) = (   0.5724280   0.6932470   0.4716760  )
        43           Si  tau(  43) = (   0.5713120   0.4606230   0.4122940  )
        44           Si  tau(  44) = (   0.0256558   0.1971570   0.0052620  )
        45           Si  tau(  45) = (   0.9753290   0.9806670   0.3267110  )
        46           Si  tau(  46) = (   0.5919470   0.9150210   0.2643320  )
        47           Si  tau(  47) = (   0.1825590   0.6365910   0.3941000  )
        48           Si  tau(  48) = (   0.4948270   0.6897100   0.2589800  )
        49           Si  tau(  49) = (   0.3554380   0.5061120   0.5955250  )
        50           Si  tau(  50) = (   0.8052100   0.4094280   0.6880480  )
        51           Si  tau(  51) = (   0.5533290   0.1775930   0.7205970  )
        52           Si  tau(  52) = (   0.7213230   0.2302510   0.5810990  )
        53           Si  tau(  53) = (   0.0028982   0.8658180   0.1292810  )
        54           Si  tau(  54) = (   0.3734600   0.1450670   0.8582810  )
        55           Si  tau(  55) = (   0.3478940   0.6667830   0.8999160  )
        56           Si  tau(  56) = (   0.3616050   0.4301800   0.9803420  )
        57           Si  tau(  57) = (   0.8817750   0.8492040   0.9602730  )
        58           Si  tau(  58) = (   0.0085860   0.7088490   0.7938480  )
        59           Si  tau(  59) = (   0.3248590   0.8987940   0.3202390  )
        60           Si  tau(  60) = (   0.0310431   0.3014800   0.8092350  )
        61           Si  tau(  61) = (   0.2015300   0.9260700   0.1344070  )
        62           Si  tau(  62) = (   0.7623260   0.3544540   0.3173010  )
        63           Si  tau(  63) = (   0.7670890   0.7301710   0.7967400  )
        64           Si  tau(  64) = (   0.8050260   0.3882340   0.9737920  )

     number of k points=     1  Fermi-Dirac smearing, width (Ry)=  0.0100
                       cart. coord. in units 2pi/alat
        k(    1) = (   0.0000000   0.0000000   0.0000000), wk =   2.0000000

     Dense  grid:    90498 G-vectors     FFT dimensions: (  72,  72,  72)

     Estimated max dynamical RAM per process >     145.33 MB

     Estimated total dynamical RAM >     559.24 MB

     Initial potential from superposition of free atoms

     starting charge     255.9608, renormalised to     256.0000
     Starting wfcs are  256 randomized atomic wfcs

     total cpu time spent up to now is        5.1 secs

     Self-consistent Calculation

     iteration #  1     ecut=    30.00 Ry     beta= 0.50
     Davidson diagonalization with overlap
     ethr =  1.00E-02,  avg # of iterations =  3.0

     Threshold (ethr) on eigenvalues was too large:
     Diagonalizing with lowered threshold

     Davidson diagonalization with overlap
     ethr =  5.79E-04,  avg # of iterations =  4.0

     total cpu time spent up to now is        5.3 secs

     total energy              =    -500.50107771 Ry
     estimated scf accuracy    <       1.86890518 Ry

     iteration #  2     ecut=    30.00 Ry     beta= 0.50
     Davidson diagonalization with overlap
     ethr =  7.30E-04,  avg # of iterations =  5.0

     total cpu time spent up to now is        5.5 secs

     total energy              =    -499.94735697 Ry
     estimated scf accuracy    <       7.02569880 Ry

     iteration #  3     ecut=    30.00 Ry     beta= 0.50
     Davidson diagonalization with overlap
     ethr =  7.30E-04,  avg # of iterations =  4.0

     total cpu time spent up to now is        5.6 secs

     total energy              =    -500.60423768 Ry
     estimated scf accuracy    <       3.93899123 Ry

     iteration #  4     ecut=    30.00 Ry     beta= 0.50
     Davidson diagonalization with overlap
     ethr =  7.30E-04,  avg # of iterations =  2.0

     total cpu time spent up to now is        5.7 secs

     total energy              =    -500.90950576 Ry
     estimated scf accuracy    <       0.59379214 Ry

     iteration #  5     ecut=    30.00 Ry     beta= 0.50
     Davidson diagonalization with overlap
     ethr =  2.32E-04,  avg # of iterations =  2.0

     total cpu time spent up to now is        5.8 secs

     total energy              =    -500.95421991 Ry
     estimated scf accuracy    <       0.22000219 Ry

     iteration #  6     ecut=    30.00 Ry     beta= 0.50
     Davidson diagonalization with overlap
     ethr =  8.59E-05,  avg # of iterations =  2.0

     total cpu time spent up to now is        5.9 secs

     total energy              =    -500.96818977 Ry
     estimated scf accuracy    <       0.34666485 Ry

     iteration #  7     ecut=    30.00 Ry     beta= 0.50
     Davidson diagonalization with overlap
     ethr =  8.59E-05,  avg # of iterations =  1.0

     total cpu time spent up to now is        6.0 secs

     total energy              =    -500.99313590 Ry
     estimated scf accuracy    <       0.01131413 Ry

     iteration #  8     ecut=    30.00 Ry     beta= 0.50
     Davidson diagonalization with overlap
     ethr =  4.42E-06,  avg # of iterations = 12.0

     total cpu time spent up to now is        6.1 secs

     total energy              =    -500.99394617 Ry
     estimated scf accuracy    <       0.02972683 Ry

     iteration #  9     ecut=    30.00 Ry     beta= 0.50
     Davidson diagonalization with overlap
     ethr =  4.42E-06,  avg # of iterations =  3.0

     total cpu time spent up to now is        6.2 secs

     total energy              =    -500.99635726 Ry
     estimated scf accuracy    <       0.00585005 Ry

     iteration # 10     ecut=    30.00 Ry     beta= 0.50
     Davidson diagonalization with overlap
     ethr =  2.29E-06,  avg # of iterations =  2.0

     total cpu time spent up to now is        6.3 secs

     total energy              =    -500.99676351 Ry
     estimated scf accuracy    <       0.00128206 Ry

     iteration # 11     ecut=    30.00 Ry     beta= 0.50
     Davidson diagonalization with overlap
     ethr =  5.01E-07,  avg # of iterations =  2.0

     total cpu time spent up to now is        6.4 secs

     total energy              =    -500.99686311 Ry
     estimated scf accuracy    <       0.00064669 Ry

     iteration # 12     ecut=    30.00 Ry     beta= 0.50
     Davidson diagonalization with overlap
     ethr =  2.53E-07,  avg # of iterations =  3.0

     total cpu time spent up to now is        6.5 secs

     total energy              =    -500.99691234 Ry
     estimated scf accuracy    <       0.00061821 Ry

     iteration # 13     ecut=    30.00 Ry     beta= 0.50
     Davidson diagonalization with overlap
     ethr =  2.41E-07,  avg # of iterations =  2.0

     total cpu time spent up to now is        6.6 secs

     total energy              =    -500.99695238 Ry
     estimated scf accuracy    <       0.00017512 Ry

     iteration # 14     ecut=    30.00 Ry     beta= 0.50
     Davidson diagonalization with overlap
     ethr =  6.84E-08,  avg # of iterations =  2.0

     total cpu time spent up to now is        6.7 secs

     total energy              =    -500.99696763 Ry
     estimated scf accuracy    <       0.00006857 Ry

     iteration # 15     ecut=    30.00 Ry     beta= 0.50
     Davidson diagonalization with overlap
     ethr =  2.68E-08,  avg # of iterations =  2.0

     total cpu time spent up to now is        6.8 secs

     total energy              =    -500.99696957 Ry
     estimated scf accuracy    <       0.00002981 Ry

     iteration # 16     ecut=    30.00 Ry     beta= 0.50
     Davidson diagonalization with overlap
     ethr =  1.16E-08,  avg # of iterations =  2.0

     total cpu time spent up to now is        6.9 secs

     total energy              =    -500.99697374 Ry
     estimated scf accuracy    <       0.00002012 Ry

     iteration # 17     ecut=    30.00 Ry     beta= 0.50
     Davidson diagonalization with overlap
     ethr =  7.86E-09,  avg # of iterations =  1.0

     total cpu time spent up to now is        7.0 secs

     total energy              =    -500.99697476 Ry
     estimated scf accuracy    <       0.00000178 Ry

     iteration # 18     ecut=    30.00 Ry     beta= 0.50
     Davidson diagonalization with overlap
     ethr =  6.94E-10,  avg # of iterations =  4.0

     total cpu time spent up to now is        7.1 secs

     total energy              =    -500.99697490 Ry
     estimated scf accuracy    <       0.00000250 Ry

     iteration # 19     ecut=    30.00 Ry     beta= 0.50
     Davidson diagonalization with overlap
     ethr =  6.94E-10,  avg # of iterations =  2.0

     total cpu time spent up to now is        7.2 secs

     End of self-consistent calculation

          k = 0.0000 0.0000 0.0000 ( 11324 PWs)   bands (ev):

    -5.9225  -5.1703  -5.0388  -4.9064  -4.7370  -4.5996  -4.4288  -4.1207
    -4.0800  -3.8059  -3.7681  -3.6591  -3.5397  -3.4874  -3.4457  -3.2526
    -3.0885  -2.8520  -2.6417  -2.5511  -2.4029  -2.2790  -2.2458  -2.1268
    -1.9908  -1.5840  -1.5383  -1.4150  -1.4013  -1.1388  -1.0615  -0.8532
    -0.6675  -0.5562  -0.4884  -0.4119  -0.3061  -0.1826  -0.1093  -0.0230
     0.0092   0.1415   0.2799   0.3996   0.4610   0.5220   0.5924   0.7262
     0.8509   0.8772   0.9502   1.0446   1.2243   1.3499   1.4374   1.5092
     1.6133   1.6558   1.6964   1.8823   1.9841   2.1129   2.1743   2.1972
     2.3905   2.4169   2.5174   2.5918   2.6820   2.7604   2.8936   2.9876
     3.0518   3.1224   3.2763   3.2924   3.4344   3.4609   3.5780   3.6887
     3.7362   3.8897   4.0056   4.0492   4.2145   4.3196   4.3511   4.4375
     4.5559   4.5937   4.6681   4.7453   4.7836   4.9076   4.9916   5.0859
     5.0927   5.1301   5.2818   5.3093   5.3495   5.4086   5.4367   5.5517
     5.5641   5.6106   5.6472   5.7438   5.8221   5.8527   5.9234   5.9979
     6.0074   6.0884   6.1544   6.1786   6.2698   6.3655   6.4445   6.4990
     6.5998   6.6417   6.6875   6.7876   6.8105   6.8769   6.9281   6.9836
     7.0030   7.0654   7.1983   7.2169   7.2695   7.3348   7.3854   7.4595
     7.5129   7.6289   7.6807   7.7589   7.8034   7.8609   7.8850   7.9853
     8.0500   8.1871   8.1914   8.2089   8.2952   8.4256   8.4680   8.5597
     8.6430   8.6868

     the Fermi energy is     7.0116 ev

!    total energy              =    -500.99697485 Ry
     estimated scf accuracy    <       0.00000037 Ry
     smearing contrib. (-TS)   =      -0.15166489 Ry
     internal energy E=F+TS    =    -500.84530997 Ry

     The total energy is F=E-TS. E is the sum of the following terms:
     one-electron contribution =     141.97761079 Ry
     hartree contribution      =      45.96738510 Ry
     xc contribution           =    -152.69307057 Ry
     ewald contribution        =    -536.09723529 Ry

     convergence has been achieved in  19 iterations

     Forces acting on atoms (cartesian axes, Ry/au):

     atom    1 type  1   force =    -0.00313214    0.03797231   -0.00486201
     atom    2 type  1   force =    -0.03391665    0.02467601   -0.05699541
     atom    3 type  1   force =    -0.01154439    0.01649142   -0.00145319
     atom    4 type  1   force =     0.01080631   -0.04665710   -0.02448636
     atom    5 type  1   force =     0.04941313   -0.02020439    0.03639528
     atom    6 type  1   force =     0.02117920   -0.03157219   -0.02409037
     atom    7 type  1   force =    -0.05905161   -0.05262093    0.02846917
     atom    8 type  1   force =     0.03178075    0.00746383   -0.02575863
     atom    9 type  1   force =     0.00497605   -0.02341224    0.04225287
     atom   10 type  1   force =    -0.02213951    0.01202877    0.01371596
     atom   11 type  1   force =     0.00646821   -0.03234650   -0.03591132
     atom   12 type  1   force =     0.00230139   -0.01798317   -0.03480505
     atom   13 type  1   force =     0.00734488   -0.00968047    0.00888825
     atom   14 type  1   force =     0.00012387    0.00955841   -0.00096049
     atom   15 type  1   force =    -0.03201174   -0.03887090    0.01483025
     atom   16 type  1   force =    -0.01770841    0.05281858   -0.05250221
     atom   17 type  1   force =     0.06306378    0.04787305    0.03058500
     atom   18 type  1   force =     0.01314724    0.02233075   -0.04581200
     atom   19 type  1   force =    -0.03692653    0.05667204   -0.02342801
     atom   20 type  1   force =    -0.00681396   -0.01056529    0.03509098
     atom   21 type  1   force =     0.02270048   -0.00179366    0.05301842
     atom   22 type  1   force =     0.00406118    0.00450054    0.01527153
     atom   23 type  1   force =     0.01910791   -0.02526009   -0.03140048
     atom   24 type  1   force =    -0.04859695    0.01544704   -0.02003422
     atom   25 type  1   force =     0.00506116    0.01160594   -0.00905066
     atom   26 type  1   force =    -0.03115677   -0.05231906    0.01908376
     atom   27 type  1   force =    -0.03269330    0.02916023    0.00966429
     atom   28 type  1   force =     0.02228478    0.04791500    0.02391373
     atom   29 type  1   force =     0.07155918   -0.01238548   -0.00073262
     atom   30 type  1   force =    -0.00324093   -0.01652316    0.01496737
     atom   31 type  1   force =     0.00446100   -0.01742705    0.00311344
     atom   32 type  1   force =     0.01196829    0.03412939   -0.03874442
     atom   33 type  1   force =     0.01211398    0.05057658   -0.04387776
     atom   34 type  1   force =     0.02297529    0.01455701   -0.00296968
     atom   35 type  1   force =     0.00249979   -0.00509765   -0.02430291
     atom   36 type  1   force =     0.01455200    0.06113011    0.03783965
     atom   37 type  1   force =    -0.01905534    0.00855647    0.03158688
     atom   38 type  1   force =     0.01869661    0.00532066    0.00400539
     atom   39 type  1   force =    -0.05893897    0.10688894   -0.03274666
     atom   40 type  1   force =     0.08537340   -0.01889117   -0.03974541
     atom   41 type  1   force =    -0.04553493    0.00909129    0.05171367
     atom   42 type  1   force =    -0.00303468   -0.01707715    0.03050392
     atom   43 type  1   force =    -0.01560052    0.00459693   -0.00016118
     atom   44 type  1   force =    -0.02474634   -0.05904364   -0.05578102
     atom   45 type  1   force =     0.00850821    0.00429063    0.01656356
     atom   46 type  1   force =    -0.01436651   -0.00070730   -0.01718964
     atom   47 type  1   force =     0.00803379   -0.07202041   -0.03946204
     atom   48 type  1   force =     0.01192410    0.00567137   -0.02576356
     atom   49 type  1   force =     0.00986993   -0.01641424    0.01652787
     atom   50 type  1   force =     0.02417826   -0.05019594    0.03382509
     atom   51 type  1   force =    -0.03123949   -0.03646621    0.06306209
     atom   52 type  1   force =     0.03293172   -0.01034806    0.02385263
     atom   53 type  1   force =    -0.02634695    0.02208695    0.02987457
     atom   54 type  1   force =     0.05277677    0.01114662    0.00142183
     atom   55 type  1   force =     0.05351458   -0.01500864    0.05481761
     atom   56 type  1   force =    -0.02409799   -0.00817084   -0.00874516
     atom   57 type  1   force =    -0.01661410    0.00554545   -0.06072666
     atom   58 type  1   force =    -0.09089180   -0.03579753    0.00989883
     atom   59 type  1   force =     0.02904062    0.00211987    0.01903292
     atom   60 type  1   force =    -0.02225896    0.01778002    0.00451048
     atom   61 type  1   force =     0.03668211    0.04025129   -0.01216110
     atom   62 type  1   force =    -0.01983183   -0.04970234    0.03587481
     atom   63 type  1   force =    -0.01031616    0.01110863   -0.04367628
     atom   64 type  1   force =    -0.03367249   -0.00679934    0.02416443

     Total force =     0.443332     Total SCF correction =     0.001153


     Computing stress (Cartesian axis) and pressure

          total   stress  (Ry/bohr**3)                   (kbar)     P=       27.50
   0.00020595  -0.00002010   0.00001195           30.30       -2.96        1.76
  -0.00002010   0.00020372   0.00000317           -2.96       29.97        0.47
   0.00001195   0.00000317   0.00015118            1.76        0.47       22.24

 
     init_run     :      1.09s CPU      4.99s WALL (       1 calls)
     electrons    :      1.97s CPU      2.13s WALL (       1 calls)
     forces       :      0.04s CPU      0.04s WALL (       1 calls)
     stress       :      0.15s CPU      0.15s WALL (       1 calls)

     Called by init_run:
     wfcinit      :      0.55s CPU      4.27s WALL (       1 calls)
                                        4.27s GPU  (       1 calls)
     potinit      :      0.05s CPU      0.14s WALL (       1 calls)
     hinit0       :      0.47s CPU      0.50s WALL (       1 calls)

     Called by electrons:
     c_bands      :      1.13s CPU      1.21s WALL (      20 calls)
     sum_band     :      0.41s CPU      0.46s WALL (      20 calls)
     v_of_rho     :      0.20s CPU      0.31s WALL (      20 calls)
     mix_rho      :      0.19s CPU      0.20s WALL (      20 calls)

     Called by c_bands:
     init_us_2    :      0.07s CPU      0.08s WALL (      41 calls)
     init_us_2:gp :      0.07s CPU      0.08s WALL (      41 calls)
     regterg      :      0.96s CPU      1.03s WALL (      20 calls)

     Called by *egterg:
     rdiaghg      :      0.37s CPU      1.14s WALL (      79 calls)
                                        1.12s GPU  (      79 calls)
     h_psi        :      0.96s CPU      3.97s WALL (      81 calls)
                                        3.97s GPU  (      81 calls)
     g_psi        :      0.00s CPU      0.00s WALL (      60 calls)
                                        0.00s GPU  (      60 calls)

     Called by h_psi:
     h_psi:calbec :      0.51s CPU      3.43s WALL (      81 calls)
                                        3.43s GPU  (      81 calls)
     vloc_psi     :      0.40s CPU      0.48s WALL (      81 calls)
                                        0.48s GPU  (      81 calls)
     add_vuspsi   :      0.03s CPU      0.05s WALL (      81 calls)
                                        0.05s GPU  (      81 calls)

     General routines
     calbec       :      0.51s CPU      3.44s WALL (      86 calls)
     fft          :      0.64s CPU      0.78s WALL (     167 calls)
                                        0.13s GPU  (     106 calls)
     ffts         :      0.06s CPU      0.06s WALL (      20 calls)
     fftw         :      0.48s CPU      0.64s WALL (    2080 calls)
                                        0.56s GPU  (    2080 calls)
 
     Parallel routines
 
     PWSCF        :      3.29s CPU      7.41s WALL

 
   This run was terminated on:  13:59:45  10May2023            

=------------------------------------------------------------------------------=
   JOB DONE.
=------------------------------------------------------------------------------=
