An instance of this daemon is already running

     Program PWSCF v.7.1 starts on 10May2023 at 14: 8:39 

     This program is part of the open-source Quantum ESPRESSO suite
     for quantum simulation of materials; please cite
         "P. Giannozzi et al., J. Phys.:Condens. Matter 21 395502 (2009);
         "P. Giannozzi et al., J. Phys.:Condens. Matter 29 465901 (2017);
         "P. Giannozzi et al., J. Chem. Phys. 152 154105 (2020);
          URL http://www.quantum-espresso.org", 
     in publications or presentations arising from this work. More details at
     http://www.quantum-espresso.org/quote

     Parallel version (MPI & OpenMP), running on       4 processor cores
     Number of MPI processes:                 4
     Threads/MPI process:                     1

     MPI processes distributed on     1 nodes
     752766 MiB available memory on the printing compute node when the environment starts
 
     Reading input from pw-si-67.in
Warning: card &CELL ignored
Warning: card / ignored

     Current dimensions of program PWSCF are:
     Max number of different atomic species (ntypx) = 10
     Max number of k-points (npk) =  40000
     Max angular momentum in pseudopotentials (lmaxx) =  4

     IMPORTANT: XC functional enforced from input :
     Exchange-correlation= PBE
                           (   1   4   3   4   0   0   0)
     Any further DFT definition will be discarded
     Please, verify this is what you really want


     gamma-point specific algorithms are used
 
     K-points division:     npool     =       2
     R & G space division:  proc/nbgrp/npool/nimage =       2
     Subspace diagonalization in iterative solution of the eigenvalue problem:
     a serial algorithm will be used

     Message from routine divide_et_impera:
     suboptimal parallelization: some nodes have no k-points
 
     Parallelization info
     --------------------
     sticks:   dense  smooth     PW     G-vecs:    dense   smooth      PW
     Min        2249    2249    599               114239   114239   15513
     Max        2252    2252    602               114248   114248   15518
     Sum        4501    4501   1201               228487   228487   31031
 
     Using Slab Decomposition
 


     bravais-lattice index     =            0
     lattice parameter (alat)  =      21.7551  a.u.
     unit-cell volume          =   10296.3646 (a.u.)^3
     number of atoms/cell      =           64
     number of atomic types    =            1
     number of electrons       =       256.00
     number of Kohn-Sham states=          154
     kinetic-energy cutoff     =      30.0000  Ry
     charge density cutoff     =     120.0000  Ry
     scf convergence threshold =      1.0E-06
     mixing beta               =       0.5000
     number of iterations used =            8  plain     mixing
     Exchange-correlation= PBE
                           (   1   4   3   4   0   0   0)

     GPU acceleration is ACTIVE.
     GPU-aware MPI enabled

     Message from routine print_cuda_info:
     High GPU oversubscription detected. Are you sure this is what you want?

     celldm(1)=  21.755111  celldm(2)=   0.000000  celldm(3)=   0.000000
     celldm(4)=   0.000000  celldm(5)=   0.000000  celldm(6)=   0.000000

     crystal axes: (cart. coord. in units of alat)
               a(1) = (   1.000000   0.000000   0.000000 )  
               a(2) = (   0.000000   1.000000   0.000000 )  
               a(3) = (   0.000000   0.000000   1.000000 )  

     reciprocal axes: (cart. coord. in units 2 pi/alat)
               b(1) = (  1.000000  0.000000  0.000000 )  
               b(2) = (  0.000000  1.000000  0.000000 )  
               b(3) = (  0.000000  0.000000  1.000000 )  


     PseudoPot. # 1 for Si read from file:
     /home/ppiaggi/pseudos/Si_ONCV_PBE_sr.upf
     MD5 check sum: 8553c464762ac42b85b1eed164b4d029
     Pseudo is Norm-conserving, Zval =  4.0
     Generated using ONCVPSP code by D. R. Hamann
     Using radial grid of 1510 points,  4 beta functions with: 
                l(1) =   0
                l(2) =   0
                l(3) =   1
                l(4) =   1

     atomic species   valence    mass     pseudopotential
        Si             4.00    28.08500     Si( 1.00)

     No symmetry found



   Cartesian axes

     site n.     atom                  positions (alat units)
         1           Si  tau(   1) = (   0.2298480   0.2098580   0.7034660  )
         2           Si  tau(   2) = (   0.1237770   0.1506000   0.3146230  )
         3           Si  tau(   3) = (   0.8625260   0.1342030   0.6038650  )
         4           Si  tau(   4) = (   0.4490810   0.5749040   0.1052240  )
         5           Si  tau(   5) = (   0.6379970   0.9452800   0.6021640  )
         6           Si  tau(   6) = (   0.3905800   0.2667520   0.4137290  )
         7           Si  tau(   7) = (   0.4131600   0.9473900   0.8650530  )
         8           Si  tau(   8) = (   0.7547900   0.4837130   0.0737724  )
         9           Si  tau(   9) = (   0.5943880   0.0880706   0.9543710  )
        10           Si  tau(  10) = (   0.2812880   0.3387600   0.5444880  )
        11           Si  tau(  11) = (   0.3297150   0.6232240   0.7309830  )
        12           Si  tau(  12) = (   0.8699150   0.4903740   0.2922490  )
        13           Si  tau(  13) = (   0.6153670   0.4059270   0.6456700  )
        14           Si  tau(  14) = (   0.6383360   0.6897990   0.3112810  )
        15           Si  tau(  15) = (   0.0539662   0.1205020   0.6719330  )
        16           Si  tau(  16) = (   0.4805040   0.7993850   0.4931190  )
        17           Si  tau(  17) = (   0.6419530   0.7459760   0.0957196  )
        18           Si  tau(  18) = (   0.4107340   0.1394590   0.7626810  )
        19           Si  tau(  19) = (   0.6112970   0.5912580   0.5472490  )
        20           Si  tau(  20) = (   0.1659140   0.1399180   0.1234620  )
        21           Si  tau(  21) = (   0.6527440   0.8834260   0.3685150  )
        22           Si  tau(  22) = (   0.1101330   0.9584640   0.1454860  )
        23           Si  tau(  23) = (   0.6114660   0.1791390   0.2164220  )
        24           Si  tau(  24) = (   0.6000160   0.2872400   0.0400627  )
        25           Si  tau(  25) = (   0.1261300   0.2203380   0.5037270  )
        26           Si  tau(  26) = (   0.0622773   0.5351360   0.2330980  )
        27           Si  tau(  27) = (   0.9642000   0.6377130   0.3734340  )
        28           Si  tau(  28) = (   0.4057670   0.1409190   0.2264900  )
        29           Si  tau(  29) = (   0.1040460   0.0047632   0.4900610  )
        30           Si  tau(  30) = (   0.9861550   0.5538280   0.5669900  )
        31           Si  tau(  31) = (   0.5390890   0.4246200   0.9113520  )
        32           Si  tau(  32) = (   0.8966020   0.4909750   0.9138700  )
        33           Si  tau(  33) = (   0.1977350   0.5776270   0.8767810  )
        34           Si  tau(  34) = (   0.8010640   0.5777510   0.4679160  )
        35           Si  tau(  35) = (   0.9571430   0.2391200   0.3642720  )
        36           Si  tau(  36) = (   0.1041540   0.8058060   0.3843480  )
        37           Si  tau(  37) = (   0.6694870   0.9336060   0.0650384  )
        38           Si  tau(  38) = (   0.8333180   0.3084440   0.0233751  )
        39           Si  tau(  39) = (   0.4276720   0.4870050   0.6031610  )
        40           Si  tau(  40) = (   0.9566660   0.9542950   0.6339350  )
        41           Si  tau(  41) = (   0.7929610   0.9680930   0.4800520  )
        42           Si  tau(  42) = (   0.2599200   0.7207960   0.4328670  )
        43           Si  tau(  43) = (   0.5414830   0.4288220   0.4458550  )
        44           Si  tau(  44) = (   0.0221197   0.0911974   0.0329242  )
        45           Si  tau(  45) = (   0.0317432   0.6894930   0.0262242  )
        46           Si  tau(  46) = (   0.5242160   0.9926010   0.2399800  )
        47           Si  tau(  47) = (   0.2098740   0.5821920   0.0745937  )
        48           Si  tau(  48) = (   0.4360050   0.7629240   0.0660352  )
        49           Si  tau(  49) = (   0.2532110   0.5456450   0.5510570  )
        50           Si  tau(  50) = (   0.9122090   0.3282690   0.7497690  )
        51           Si  tau(  51) = (   0.5973500   0.0823911   0.7350930  )
        52           Si  tau(  52) = (   0.7360880   0.2310870   0.7157050  )
        53           Si  tau(  53) = (   0.0910995   0.8728340   0.9587410  )
        54           Si  tau(  54) = (   0.4488710   0.9651940   0.6789830  )
        55           Si  tau(  55) = (   0.3440850   0.4690990   0.9907960  )
        56           Si  tau(  56) = (   0.3282960   0.2423400   0.0503183  )
        57           Si  tau(  57) = (   0.7795000   0.0892479   0.0649908  )
        58           Si  tau(  58) = (   0.0609292   0.7198430   0.8311010  )
        59           Si  tau(  59) = (   0.2053740   0.7496120   0.2408230  )
        60           Si  tau(  60) = (   0.0271854   0.5375560   0.7420590  )
        61           Si  tau(  61) = (   0.2761430   0.8976570   0.0105551  )
        62           Si  tau(  62) = (   0.5919080   0.2346530   0.4034640  )
        63           Si  tau(  63) = (   0.7997290   0.6529890   0.0004839  )
        64           Si  tau(  64) = (   0.6009270   0.5188130   0.2319860  )

     number of k points=     1  Fermi-Dirac smearing, width (Ry)=  0.0100
                       cart. coord. in units 2pi/alat
        k(    1) = (   0.0000000   0.0000000   0.0000000), wk =   2.0000000

     Dense  grid:   114244 G-vectors     FFT dimensions: (  75,  75,  75)

     Estimated max dynamical RAM per process >     181.16 MB

     Estimated total dynamical RAM >     696.76 MB

     Initial potential from superposition of free atoms

     starting charge     255.9608, renormalised to     256.0000
     Starting wfcs are  256 randomized atomic wfcs

     total cpu time spent up to now is        4.5 secs

     Self-consistent Calculation

     iteration #  1     ecut=    30.00 Ry     beta= 0.50
     Davidson diagonalization with overlap
     ethr =  1.00E-02,  avg # of iterations =  3.0

     Threshold (ethr) on eigenvalues was too large:
     Diagonalizing with lowered threshold

     Davidson diagonalization with overlap
     ethr =  8.48E-04,  avg # of iterations =  4.0

     total cpu time spent up to now is        4.8 secs

     total energy              =    -499.42988117 Ry
     estimated scf accuracy    <       2.77419035 Ry

     iteration #  2     ecut=    30.00 Ry     beta= 0.50
     Davidson diagonalization with overlap
     ethr =  1.08E-03,  avg # of iterations =  3.0

     total cpu time spent up to now is        5.0 secs

     total energy              =    -499.01215000 Ry
     estimated scf accuracy    <       5.17000274 Ry

     iteration #  3     ecut=    30.00 Ry     beta= 0.50
     Davidson diagonalization with overlap
     ethr =  1.08E-03,  avg # of iterations =  5.0

     total cpu time spent up to now is        5.1 secs

     total energy              =    -499.33393778 Ry
     estimated scf accuracy    <       9.86626393 Ry

     iteration #  4     ecut=    30.00 Ry     beta= 0.50
     Davidson diagonalization with overlap
     ethr =  1.08E-03,  avg # of iterations =  2.0

     total cpu time spent up to now is        5.2 secs

     total energy              =    -499.97418089 Ry
     estimated scf accuracy    <       0.94540928 Ry

     iteration #  5     ecut=    30.00 Ry     beta= 0.50
     Davidson diagonalization with overlap
     ethr =  3.69E-04,  avg # of iterations =  2.0

     total cpu time spent up to now is        5.4 secs

     total energy              =    -500.04849824 Ry
     estimated scf accuracy    <       0.71556848 Ry

     iteration #  6     ecut=    30.00 Ry     beta= 0.50
     Davidson diagonalization with overlap
     ethr =  2.80E-04,  avg # of iterations =  2.0

     total cpu time spent up to now is        5.5 secs

     total energy              =    -500.11255991 Ry
     estimated scf accuracy    <       0.15891150 Ry

     iteration #  7     ecut=    30.00 Ry     beta= 0.50
     Davidson diagonalization with overlap
     ethr =  6.21E-05,  avg # of iterations =  2.0

     total cpu time spent up to now is        5.6 secs

     total energy              =    -500.12803294 Ry
     estimated scf accuracy    <       0.03461197 Ry

     iteration #  8     ecut=    30.00 Ry     beta= 0.50
     Davidson diagonalization with overlap
     ethr =  1.35E-05,  avg # of iterations = 11.0

     total cpu time spent up to now is        5.8 secs

     total energy              =    -500.13011279 Ry
     estimated scf accuracy    <       0.05037206 Ry

     iteration #  9     ecut=    30.00 Ry     beta= 0.50
     Davidson diagonalization with overlap
     ethr =  1.35E-05,  avg # of iterations =  2.0

     total cpu time spent up to now is        5.9 secs

     total energy              =    -500.13380464 Ry
     estimated scf accuracy    <       0.00946722 Ry

     iteration # 10     ecut=    30.00 Ry     beta= 0.50
     Davidson diagonalization with overlap
     ethr =  3.70E-06,  avg # of iterations =  2.0

     total cpu time spent up to now is        6.0 secs

     total energy              =    -500.13455712 Ry
     estimated scf accuracy    <       0.00699559 Ry

     iteration # 11     ecut=    30.00 Ry     beta= 0.50
     Davidson diagonalization with overlap
     ethr =  2.73E-06,  avg # of iterations =  3.0

     total cpu time spent up to now is        6.2 secs

     total energy              =    -500.13511581 Ry
     estimated scf accuracy    <       0.00185670 Ry

     iteration # 12     ecut=    30.00 Ry     beta= 0.50
     Davidson diagonalization with overlap
     ethr =  7.25E-07,  avg # of iterations =  2.0

     total cpu time spent up to now is        6.3 secs

     total energy              =    -500.13531639 Ry
     estimated scf accuracy    <       0.00036539 Ry

     iteration # 13     ecut=    30.00 Ry     beta= 0.50
     Davidson diagonalization with overlap
     ethr =  1.43E-07,  avg # of iterations =  4.0

     total cpu time spent up to now is        6.4 secs

     total energy              =    -500.13534272 Ry
     estimated scf accuracy    <       0.00037449 Ry

     iteration # 14     ecut=    30.00 Ry     beta= 0.50
     Davidson diagonalization with overlap
     ethr =  1.43E-07,  avg # of iterations =  2.0

     total cpu time spent up to now is        6.6 secs

     total energy              =    -500.13536799 Ry
     estimated scf accuracy    <       0.00019370 Ry

     iteration # 15     ecut=    30.00 Ry     beta= 0.50
     Davidson diagonalization with overlap
     ethr =  7.57E-08,  avg # of iterations =  1.0

     total cpu time spent up to now is        6.7 secs

     total energy              =    -500.13538139 Ry
     estimated scf accuracy    <       0.00003498 Ry

     iteration # 16     ecut=    30.00 Ry     beta= 0.50
     Davidson diagonalization with overlap
     ethr =  1.37E-08,  avg # of iterations =  4.0

     total cpu time spent up to now is        6.8 secs

     total energy              =    -500.13538472 Ry
     estimated scf accuracy    <       0.00006532 Ry

     iteration # 17     ecut=    30.00 Ry     beta= 0.50
     Davidson diagonalization with overlap
     ethr =  1.37E-08,  avg # of iterations =  2.0

     total cpu time spent up to now is        6.9 secs

     total energy              =    -500.13538827 Ry
     estimated scf accuracy    <       0.00001489 Ry

     iteration # 18     ecut=    30.00 Ry     beta= 0.50
     Davidson diagonalization with overlap
     ethr =  5.82E-09,  avg # of iterations =  2.0

     total cpu time spent up to now is        7.1 secs

     total energy              =    -500.13538976 Ry
     estimated scf accuracy    <       0.00000849 Ry

     iteration # 19     ecut=    30.00 Ry     beta= 0.50
     Davidson diagonalization with overlap
     ethr =  3.32E-09,  avg # of iterations =  2.0

     total cpu time spent up to now is        7.2 secs

     total energy              =    -500.13539033 Ry
     estimated scf accuracy    <       0.00000248 Ry

     iteration # 20     ecut=    30.00 Ry     beta= 0.50
     Davidson diagonalization with overlap
     ethr =  9.68E-10,  avg # of iterations =  2.0

     total cpu time spent up to now is        7.3 secs

     total energy              =    -500.13539053 Ry
     estimated scf accuracy    <       0.00000220 Ry

     iteration # 21     ecut=    30.00 Ry     beta= 0.50
     Davidson diagonalization with overlap
     ethr =  8.61E-10,  avg # of iterations =  2.0

     total cpu time spent up to now is        7.4 secs

     End of self-consistent calculation

          k = 0.0000 0.0000 0.0000 ( 14213 PWs)   bands (ev):

    -8.0149  -7.7355  -7.6378  -7.5790  -7.3516  -7.2057  -7.1187  -6.7020
    -6.5759  -6.5153  -6.4555  -6.1152  -5.9957  -5.9389  -5.6823  -5.5008
    -5.2903  -5.1712  -5.0236  -4.9144  -4.8191  -4.4238  -4.2480  -4.1102
    -3.9734  -3.8768  -3.7922  -3.6374  -3.5762  -3.5242  -3.3262  -3.1625
    -2.9939  -2.9241  -2.7730  -2.7156  -2.6049  -2.5809  -2.3739  -2.3109
    -2.1738  -2.0425  -1.9790  -1.8648  -1.7634  -1.5847  -1.5238  -1.4279
    -1.3542  -1.1975  -0.9696  -0.9565  -0.8548  -0.7907  -0.6438  -0.5933
    -0.4691  -0.4005  -0.3361  -0.2153  -0.0951   0.0329   0.1054   0.3231
     0.4510   0.5614   0.6198   0.6397   0.7658   0.8023   0.9091   0.9479
     0.9897   1.0167   1.0888   1.2231   1.2643   1.3357   1.4058   1.4892
     1.5567   1.6364   1.7320   1.7435   1.7952   1.8674   1.9371   2.0209
     2.1091   2.1498   2.2411   2.2637   2.2843   2.3307   2.4758   2.5630
     2.6519   2.7329   2.7812   2.8302   2.9081   2.9469   3.0585   3.0706
     3.1305   3.2372   3.2731   3.3162   3.4094   3.4981   3.5358   3.6103
     3.7057   3.7306   3.7507   3.8842   3.9711   4.0060   4.0539   4.0869
     4.1475   4.1757   4.2758   4.3039   4.3597   4.4333   4.4944   4.5538
     4.5645   4.6740   4.6824   4.7364   4.8337   4.8902   4.9782   5.0170
     5.1116   5.1737   5.1997   5.3016   5.3677   5.4576   5.4998   5.5791
     5.6559   5.7054   5.7566   5.7941   5.8335   5.8488   5.9628   6.0521
     6.1041   6.2458

     the Fermi energy is     4.5692 ev

!    total energy              =    -500.13539012 Ry
     estimated scf accuracy    <       0.00000083 Ry
     smearing contrib. (-TS)   =      -0.15495348 Ry
     internal energy E=F+TS    =    -499.98043664 Ry

     The total energy is F=E-TS. E is the sum of the following terms:
     one-electron contribution =      -4.24994477 Ry
     hartree contribution      =      96.36907786 Ry
     xc contribution           =    -151.04945422 Ry
     ewald contribution        =    -441.05011550 Ry

     convergence has been achieved in  21 iterations

     Forces acting on atoms (cartesian axes, Ry/au):

     atom    1 type  1   force =     0.03542799    0.02951870   -0.00117119
     atom    2 type  1   force =     0.01041501   -0.03870870    0.01469280
     atom    3 type  1   force =    -0.00721169    0.01206608   -0.07634678
     atom    4 type  1   force =     0.04852690    0.01229571    0.04553931
     atom    5 type  1   force =    -0.00217804   -0.05172294   -0.03030402
     atom    6 type  1   force =     0.07091727   -0.05355764   -0.09602032
     atom    7 type  1   force =     0.00861959    0.02022790    0.08184579
     atom    8 type  1   force =    -0.06475480   -0.03303868    0.08933186
     atom    9 type  1   force =    -0.02681382   -0.00111672   -0.05053878
     atom   10 type  1   force =    -0.05813901    0.04430345    0.07824485
     atom   11 type  1   force =     0.02312305    0.00776506   -0.01747368
     atom   12 type  1   force =    -0.03165219   -0.08389081   -0.06234473
     atom   13 type  1   force =     0.01190754   -0.01922114    0.03607876
     atom   14 type  1   force =     0.01104646    0.04500320    0.01604976
     atom   15 type  1   force =     0.01416738    0.03857343    0.03969093
     atom   16 type  1   force =     0.01535551   -0.02542519    0.00598570
     atom   17 type  1   force =    -0.00148787   -0.04357127    0.01298394
     atom   18 type  1   force =    -0.04998691    0.04234242    0.05168661
     atom   19 type  1   force =    -0.00143548    0.06343427    0.00305803
     atom   20 type  1   force =     0.18731255    0.11892833    0.03535994
     atom   21 type  1   force =    -0.06555141   -0.00230462   -0.01007084
     atom   22 type  1   force =     0.02297707   -0.10528648    0.07839514
     atom   23 type  1   force =     0.04674993    0.00753214   -0.04426946
     atom   24 type  1   force =     0.02262217   -0.03657523    0.00322051
     atom   25 type  1   force =    -0.03822339    0.02097580   -0.01721630
     atom   26 type  1   force =     0.02095873   -0.00566529   -0.03311074
     atom   27 type  1   force =     0.08797802    0.11083461    0.04584365
     atom   28 type  1   force =    -0.07369137    0.08183166    0.00265790
     atom   29 type  1   force =    -0.00498931   -0.02879024   -0.04251145
     atom   30 type  1   force =    -0.02109678   -0.01017997   -0.13665962
     atom   31 type  1   force =    -0.00187279    0.03841665   -0.02762222
     atom   32 type  1   force =     0.01207591   -0.00345226   -0.03381964
     atom   33 type  1   force =     0.00305533   -0.01993655   -0.04309638
     atom   34 type  1   force =    -0.03529691   -0.00472366    0.02755171
     atom   35 type  1   force =    -0.03342700    0.02910268    0.04539219
     atom   36 type  1   force =    -0.17695000    0.10424925    0.08278541
     atom   37 type  1   force =    -0.03737308    0.00229252    0.02968432
     atom   38 type  1   force =     0.00686768   -0.03273723   -0.01935863
     atom   39 type  1   force =     0.04884825   -0.01544923    0.05567342
     atom   40 type  1   force =    -0.02082599   -0.07213446    0.00581123
     atom   41 type  1   force =     0.05866725    0.03015497    0.01721682
     atom   42 type  1   force =     0.13660118   -0.06049244    0.05699733
     atom   43 type  1   force =     0.00556581   -0.01456461   -0.08954042
     atom   44 type  1   force =    -0.21975231   -0.04263620   -0.13747013
     atom   45 type  1   force =    -0.06640442   -0.05686873    0.04904544
     atom   46 type  1   force =     0.05568430   -0.08391045   -0.01880566
     atom   47 type  1   force =    -0.05572384    0.05191825    0.10372837
     atom   48 type  1   force =    -0.01456359    0.04351416    0.01209070
     atom   49 type  1   force =    -0.10163832    0.03462382   -0.01695847
     atom   50 type  1   force =     0.01408993    0.00839666    0.01565485
     atom   51 type  1   force =     0.07068425    0.06535878    0.07706424
     atom   52 type  1   force =    -0.02391824    0.05976932    0.01550985
     atom   53 type  1   force =    -0.03523008    0.04556295   -0.03126167
     atom   54 type  1   force =    -0.05663868   -0.09293253   -0.11210081
     atom   55 type  1   force =    -0.00046131   -0.12955233   -0.07460970
     atom   56 type  1   force =     0.02398678   -0.00128844    0.00028000
     atom   57 type  1   force =     0.07020657    0.05801539    0.02509044
     atom   58 type  1   force =    -0.01058817    0.03159766   -0.05638636
     atom   59 type  1   force =     0.07528589   -0.04966307   -0.13907615
     atom   60 type  1   force =     0.01783175   -0.03785038    0.13154402
     atom   61 type  1   force =     0.05743272   -0.00294740    0.01157587
     atom   62 type  1   force =     0.00556293   -0.00716856    0.05253053
     atom   63 type  1   force =     0.04742037    0.06965465   -0.02336298
     atom   64 type  1   force =    -0.01009529   -0.06089697   -0.01438510

     Total force =     0.792162     Total SCF correction =     0.001631


     Computing stress (Cartesian axis) and pressure

          total   stress  (Ry/bohr**3)                   (kbar)     P=       31.82
   0.00025016   0.00004440   0.00003987           36.80        6.53        5.86
   0.00004440   0.00022304   0.00007138            6.53       32.81       10.50
   0.00003987   0.00007138   0.00017580            5.86       10.50       25.86

 
     init_run     :      0.82s CPU      4.46s WALL (       1 calls)
     electrons    :      2.75s CPU      2.90s WALL (       1 calls)
     forces       :      0.04s CPU      0.05s WALL (       1 calls)
     stress       :      0.19s CPU      0.19s WALL (       1 calls)

     Called by init_run:
     wfcinit      :      0.60s CPU      4.06s WALL (       1 calls)
                                        4.06s GPU  (       1 calls)
     potinit      :      0.05s CPU      0.13s WALL (       1 calls)
     hinit0       :      0.14s CPU      0.17s WALL (       1 calls)

     Called by electrons:
     c_bands      :      1.54s CPU      1.60s WALL (      22 calls)
     sum_band     :      0.61s CPU      0.66s WALL (      22 calls)
     v_of_rho     :      0.26s CPU      0.35s WALL (      22 calls)
     mix_rho      :      0.28s CPU      0.30s WALL (      22 calls)

     Called by c_bands:
     init_us_2    :      0.08s CPU      0.09s WALL (      45 calls)
     init_us_2:gp :      0.08s CPU      0.08s WALL (      45 calls)
     regterg      :      1.33s CPU      1.38s WALL (      22 calls)

     Called by *egterg:
     rdiaghg      :      0.40s CPU      1.11s WALL (      85 calls)
                                        1.09s GPU  (      85 calls)
     h_psi        :      1.30s CPU      4.10s WALL (      87 calls)
                                        4.10s GPU  (      87 calls)
     g_psi        :      0.00s CPU      0.00s WALL (      64 calls)
                                        0.00s GPU  (      64 calls)

     Called by h_psi:
     h_psi:calbec :      0.54s CPU      3.24s WALL (      87 calls)
                                        3.24s GPU  (      87 calls)
     vloc_psi     :      0.71s CPU      0.79s WALL (      87 calls)
                                        0.79s GPU  (      87 calls)
     add_vuspsi   :      0.03s CPU      0.05s WALL (      87 calls)
                                        0.05s GPU  (      87 calls)

     General routines
     calbec       :      0.54s CPU      3.25s WALL (      92 calls)
     fft          :      0.41s CPU      0.53s WALL (     183 calls)
                                        0.12s GPU  (     116 calls)
     ffts         :      0.09s CPU      0.10s WALL (      22 calls)
     fftw         :      0.78s CPU      1.02s WALL (    2276 calls)
                                        0.92s GPU  (    2276 calls)
 
     Parallel routines
 
     PWSCF        :      3.85s CPU      7.69s WALL

 
   This run was terminated on:  14: 8:46  10May2023            

=------------------------------------------------------------------------------=
   JOB DONE.
=------------------------------------------------------------------------------=
