An instance of this daemon is already running
An instance of this daemon is already running

     Program PWSCF v.7.1 starts on 10May2023 at 14:12:57 

     This program is part of the open-source Quantum ESPRESSO suite
     for quantum simulation of materials; please cite
         "P. Giannozzi et al., J. Phys.:Condens. Matter 21 395502 (2009);
         "P. Giannozzi et al., J. Phys.:Condens. Matter 29 465901 (2017);
         "P. Giannozzi et al., J. Chem. Phys. 152 154105 (2020);
          URL http://www.quantum-espresso.org", 
     in publications or presentations arising from this work. More details at
     http://www.quantum-espresso.org/quote

     Parallel version (MPI & OpenMP), running on       4 processor cores
     Number of MPI processes:                 4
     Threads/MPI process:                     1

     MPI processes distributed on     1 nodes
     752765 MiB available memory on the printing compute node when the environment starts
 
     Reading input from pw-si-92.in
Warning: card &CELL ignored
Warning: card / ignored

     Current dimensions of program PWSCF are:
     Max number of different atomic species (ntypx) = 10
     Max number of k-points (npk) =  40000
     Max angular momentum in pseudopotentials (lmaxx) =  4

     IMPORTANT: XC functional enforced from input :
     Exchange-correlation= PBE
                           (   1   4   3   4   0   0   0)
     Any further DFT definition will be discarded
     Please, verify this is what you really want


     gamma-point specific algorithms are used
 
     K-points division:     npool     =       2
     R & G space division:  proc/nbgrp/npool/nimage =       2
     Subspace diagonalization in iterative solution of the eigenvalue problem:
     a serial algorithm will be used

     Message from routine divide_et_impera:
     suboptimal parallelization: some nodes have no k-points
 
     Parallelization info
     --------------------
     sticks:   dense  smooth     PW     G-vecs:    dense   smooth      PW
     Min        2242    2242    591               112766   112766   15273
     Max        2243    2243    594               112769   112769   15278
     Sum        4485    4485   1185               225535   225535   30551
 
     Using Slab Decomposition
 


     bravais-lattice index     =            0
     lattice parameter (alat)  =      21.6563  a.u.
     unit-cell volume          =   10156.7090 (a.u.)^3
     number of atoms/cell      =           64
     number of atomic types    =            1
     number of electrons       =       256.00
     number of Kohn-Sham states=          154
     kinetic-energy cutoff     =      30.0000  Ry
     charge density cutoff     =     120.0000  Ry
     scf convergence threshold =      1.0E-06
     mixing beta               =       0.5000
     number of iterations used =            8  plain     mixing
     Exchange-correlation= PBE
                           (   1   4   3   4   0   0   0)

     GPU acceleration is ACTIVE.
     GPU-aware MPI enabled

     Message from routine print_cuda_info:
     High GPU oversubscription detected. Are you sure this is what you want?

     celldm(1)=  21.656304  celldm(2)=   0.000000  celldm(3)=   0.000000
     celldm(4)=   0.000000  celldm(5)=   0.000000  celldm(6)=   0.000000

     crystal axes: (cart. coord. in units of alat)
               a(1) = (   1.000000   0.000000   0.000000 )  
               a(2) = (   0.000000   1.000000   0.000000 )  
               a(3) = (   0.000000   0.000000   1.000000 )  

     reciprocal axes: (cart. coord. in units 2 pi/alat)
               b(1) = (  1.000000  0.000000  0.000000 )  
               b(2) = (  0.000000  1.000000  0.000000 )  
               b(3) = (  0.000000  0.000000  1.000000 )  


     PseudoPot. # 1 for Si read from file:
     /home/ppiaggi/pseudos/Si_ONCV_PBE_sr.upf
     MD5 check sum: 8553c464762ac42b85b1eed164b4d029
     Pseudo is Norm-conserving, Zval =  4.0
     Generated using ONCVPSP code by D. R. Hamann
     Using radial grid of 1510 points,  4 beta functions with: 
                l(1) =   0
                l(2) =   0
                l(3) =   1
                l(4) =   1

     atomic species   valence    mass     pseudopotential
        Si             4.00    28.08500     Si( 1.00)

     No symmetry found



   Cartesian axes

     site n.     atom                  positions (alat units)
         1           Si  tau(   1) = (   0.2984040   0.1278010   0.8460190  )
         2           Si  tau(   2) = (   0.0800415   0.1222200   0.2849210  )
         3           Si  tau(   3) = (   0.8348200   0.0703766   0.7003970  )
         4           Si  tau(   4) = (   0.4543070   0.6186960   0.0392209  )
         5           Si  tau(   5) = (   0.5874020   0.9161820   0.4815240  )
         6           Si  tau(   6) = (   0.3648200   0.2505030   0.4470020  )
         7           Si  tau(   7) = (   0.4515430   0.9460680   0.8776140  )
         8           Si  tau(   8) = (   0.7767780   0.4093960   0.1530240  )
         9           Si  tau(   9) = (   0.6379270   0.9986610   0.9575110  )
        10           Si  tau(  10) = (   0.2789680   0.3373020   0.6223950  )
        11           Si  tau(  11) = (   0.2721210   0.5382490   0.6541930  )
        12           Si  tau(  12) = (   0.9400050   0.4205560   0.2895800  )
        13           Si  tau(  13) = (   0.6342980   0.4291260   0.6812760  )
        14           Si  tau(  14) = (   0.6315850   0.7349740   0.3574860  )
        15           Si  tau(  15) = (   0.0681716   0.0190286   0.6626090  )
        16           Si  tau(  16) = (   0.4969090   0.7470640   0.5269390  )
        17           Si  tau(  17) = (   0.5568620   0.7570570   0.1702120  )
        18           Si  tau(  18) = (   0.3554960   0.0497699   0.6662960  )
        19           Si  tau(  19) = (   0.6255490   0.5914220   0.5372290  )
        20           Si  tau(  20) = (   0.2157860   0.1950970   0.1465920  )
        21           Si  tau(  21) = (   0.7235450   0.9066180   0.3234660  )
        22           Si  tau(  22) = (   0.1026290   0.0557186   0.0802680  )
        23           Si  tau(  23) = (   0.6601380   0.2578700   0.1974380  )
        24           Si  tau(  24) = (   0.5695130   0.2203050   0.0043531  )
        25           Si  tau(  25) = (   0.1964860   0.1596620   0.5318790  )
        26           Si  tau(  26) = (   0.0656722   0.5945960   0.2491460  )
        27           Si  tau(  27) = (   0.9819920   0.7324120   0.4201730  )
        28           Si  tau(  28) = (   0.3969900   0.2596500   0.2464430  )
        29           Si  tau(  29) = (   0.0640523   0.0283418   0.4577880  )
        30           Si  tau(  30) = (   0.0695739   0.4909930   0.4123330  )
        31           Si  tau(  31) = (   0.4226760   0.4028980   0.0624413  )
        32           Si  tau(  32) = (   0.8939150   0.5894420   0.9252690  )
        33           Si  tau(  33) = (   0.1798320   0.3808890   0.7916800  )
        34           Si  tau(  34) = (   0.8580480   0.5529470   0.4993430  )
        35           Si  tau(  35) = (   0.0436827   0.2744620   0.4090650  )
        36           Si  tau(  36) = (   0.1469870   0.8111350   0.4290670  )
        37           Si  tau(  37) = (   0.7272970   0.8863750   0.1005130  )
        38           Si  tau(  38) = (   0.9106480   0.3809100   0.9841800  )
        39           Si  tau(  39) = (   0.4741750   0.5633290   0.6502760  )
        40           Si  tau(  40) = (   0.9247780   0.9341370   0.5699670  )
        41           Si  tau(  41) = (   0.7500570   0.0492818   0.5036740  )
        42           Si  tau(  42) = (   0.3235910   0.7244780   0.4027020  )
        43           Si  tau(  43) = (   0.5200410   0.4015970   0.5229060  )
        44           Si  tau(  44) = (   0.8867790   0.9694620   0.0448411  )
        45           Si  tau(  45) = (   0.9735520   0.7560370   0.9804020  )
        46           Si  tau(  46) = (   0.5483150   0.0887635   0.2536750  )
        47           Si  tau(  47) = (   0.1642680   0.6702150   0.0093737  )
        48           Si  tau(  48) = (   0.3382680   0.7810340   0.0616243  )
        49           Si  tau(  49) = (   0.1614470   0.6440830   0.5206360  )
        50           Si  tau(  50) = (   0.7913830   0.4357480   0.8277200  )
        51           Si  tau(  51) = (   0.5942050   0.0611649   0.7652400  )
        52           Si  tau(  52) = (   0.7000140   0.2051250   0.6786440  )
        53           Si  tau(  53) = (   0.0789374   0.9637580   0.8981620  )
        54           Si  tau(  54) = (   0.5215740   0.8955480   0.6724300  )
        55           Si  tau(  55) = (   0.2718590   0.4900170   0.9530770  )
        56           Si  tau(  56) = (   0.4016930   0.1445430   0.0593810  )
        57           Si  tau(  57) = (   0.7799140   0.1518760   0.0255501  )
        58           Si  tau(  58) = (   0.1239260   0.5985900   0.8248230  )
        59           Si  tau(  59) = (   0.2397930   0.6868660   0.2179360  )
        60           Si  tau(  60) = (   0.9894130   0.4525110   0.8015120  )
        61           Si  tau(  61) = (   0.2747270   0.9593880   0.9768480  )
        62           Si  tau(  62) = (   0.5406540   0.3346830   0.3441220  )
        63           Si  tau(  63) = (   0.8486330   0.6508080   0.1151340  )
        64           Si  tau(  64) = (   0.6347660   0.5810980   0.1103550  )

     number of k points=     1  Fermi-Dirac smearing, width (Ry)=  0.0100
                       cart. coord. in units 2pi/alat
        k(    1) = (   0.0000000   0.0000000   0.0000000), wk =   2.0000000

     Dense  grid:   112768 G-vectors     FFT dimensions: (  75,  75,  75)

     Estimated max dynamical RAM per process >     178.96 MB

     Estimated total dynamical RAM >     688.30 MB

     Initial potential from superposition of free atoms

     starting charge     255.9608, renormalised to     256.0000
     Starting wfcs are  256 randomized atomic wfcs

     total cpu time spent up to now is        4.5 secs

     Self-consistent Calculation

     iteration #  1     ecut=    30.00 Ry     beta= 0.50
     Davidson diagonalization with overlap
     ethr =  1.00E-02,  avg # of iterations =  3.0

     Threshold (ethr) on eigenvalues was too large:
     Diagonalizing with lowered threshold

     Davidson diagonalization with overlap
     ethr =  7.75E-04,  avg # of iterations =  4.0

     total cpu time spent up to now is        4.9 secs

     total energy              =    -499.70776256 Ry
     estimated scf accuracy    <       2.56779179 Ry

     iteration #  2     ecut=    30.00 Ry     beta= 0.50
     Davidson diagonalization with overlap
     ethr =  1.00E-03,  avg # of iterations =  3.0

     total cpu time spent up to now is        5.0 secs

     total energy              =    -499.24362656 Ry
     estimated scf accuracy    <       5.49713267 Ry

     iteration #  3     ecut=    30.00 Ry     beta= 0.50
     Davidson diagonalization with overlap
     ethr =  1.00E-03,  avg # of iterations =  4.0

     total cpu time spent up to now is        5.2 secs

     total energy              =    -499.75513158 Ry
     estimated scf accuracy    <       6.64789208 Ry

     iteration #  4     ecut=    30.00 Ry     beta= 0.50
     Davidson diagonalization with overlap
     ethr =  1.00E-03,  avg # of iterations =  3.0

     total cpu time spent up to now is        5.3 secs

     total energy              =    -500.17536019 Ry
     estimated scf accuracy    <       1.13205493 Ry

     iteration #  5     ecut=    30.00 Ry     beta= 0.50
     Davidson diagonalization with overlap
     ethr =  4.42E-04,  avg # of iterations =  2.0

     total cpu time spent up to now is        5.4 secs

     total energy              =    -500.27432713 Ry
     estimated scf accuracy    <       0.67950868 Ry

     iteration #  6     ecut=    30.00 Ry     beta= 0.50
     Davidson diagonalization with overlap
     ethr =  2.65E-04,  avg # of iterations =  2.0

     total cpu time spent up to now is        5.5 secs

     total energy              =    -500.33135735 Ry
     estimated scf accuracy    <       0.08992663 Ry

     iteration #  7     ecut=    30.00 Ry     beta= 0.50
     Davidson diagonalization with overlap
     ethr =  3.51E-05,  avg # of iterations = 10.0

     total cpu time spent up to now is        5.7 secs

     total energy              =    -500.33718122 Ry
     estimated scf accuracy    <       0.11679083 Ry

     iteration #  8     ecut=    30.00 Ry     beta= 0.50
     Davidson diagonalization with overlap
     ethr =  3.51E-05,  avg # of iterations =  2.0

     total cpu time spent up to now is        5.8 secs

     total energy              =    -500.34627980 Ry
     estimated scf accuracy    <       0.03591893 Ry

     iteration #  9     ecut=    30.00 Ry     beta= 0.50
     Davidson diagonalization with overlap
     ethr =  1.40E-05,  avg # of iterations =  2.0

     total cpu time spent up to now is        5.9 secs

     total energy              =    -500.34898560 Ry
     estimated scf accuracy    <       0.01020549 Ry

     iteration # 10     ecut=    30.00 Ry     beta= 0.50
     Davidson diagonalization with overlap
     ethr =  3.99E-06,  avg # of iterations = 10.0

     total cpu time spent up to now is        6.1 secs

     total energy              =    -500.34982836 Ry
     estimated scf accuracy    <       0.00930010 Ry

     iteration # 11     ecut=    30.00 Ry     beta= 0.50
     Davidson diagonalization with overlap
     ethr =  3.63E-06,  avg # of iterations =  2.0

     total cpu time spent up to now is        6.2 secs

     total energy              =    -500.35056818 Ry
     estimated scf accuracy    <       0.00074571 Ry

     iteration # 12     ecut=    30.00 Ry     beta= 0.50
     Davidson diagonalization with overlap
     ethr =  2.91E-07,  avg # of iterations =  5.0

     total cpu time spent up to now is        6.4 secs

     total energy              =    -500.35066639 Ry
     estimated scf accuracy    <       0.00087582 Ry

     iteration # 13     ecut=    30.00 Ry     beta= 0.50
     Davidson diagonalization with overlap
     ethr =  2.91E-07,  avg # of iterations =  2.0

     total cpu time spent up to now is        6.5 secs

     total energy              =    -500.35074224 Ry
     estimated scf accuracy    <       0.00033837 Ry

     iteration # 14     ecut=    30.00 Ry     beta= 0.50
     Davidson diagonalization with overlap
     ethr =  1.32E-07,  avg # of iterations =  2.0

     total cpu time spent up to now is        6.6 secs

     total energy              =    -500.35076593 Ry
     estimated scf accuracy    <       0.00012867 Ry

     iteration # 15     ecut=    30.00 Ry     beta= 0.50
     Davidson diagonalization with overlap
     ethr =  5.03E-08,  avg # of iterations =  2.0

     total cpu time spent up to now is        6.8 secs

     total energy              =    -500.35077500 Ry
     estimated scf accuracy    <       0.00014696 Ry

     iteration # 16     ecut=    30.00 Ry     beta= 0.50
     Davidson diagonalization with overlap
     ethr =  5.03E-08,  avg # of iterations =  1.0

     total cpu time spent up to now is        6.9 secs

     total energy              =    -500.35078521 Ry
     estimated scf accuracy    <       0.00001173 Ry

     iteration # 17     ecut=    30.00 Ry     beta= 0.50
     Davidson diagonalization with overlap
     ethr =  4.58E-09,  avg # of iterations =  5.0

     total cpu time spent up to now is        7.0 secs

     total energy              =    -500.35078612 Ry
     estimated scf accuracy    <       0.00002201 Ry

     iteration # 18     ecut=    30.00 Ry     beta= 0.50
     Davidson diagonalization with overlap
     ethr =  4.58E-09,  avg # of iterations =  3.0

     total cpu time spent up to now is        7.2 secs

     total energy              =    -500.35078768 Ry
     estimated scf accuracy    <       0.00000978 Ry

     iteration # 19     ecut=    30.00 Ry     beta= 0.50
     Davidson diagonalization with overlap
     ethr =  3.82E-09,  avg # of iterations =  2.0

     total cpu time spent up to now is        7.3 secs

     total energy              =    -500.35078812 Ry
     estimated scf accuracy    <       0.00000290 Ry

     iteration # 20     ecut=    30.00 Ry     beta= 0.50
     Davidson diagonalization with overlap
     ethr =  1.13E-09,  avg # of iterations =  3.0

     total cpu time spent up to now is        7.4 secs

     total energy              =    -500.35078855 Ry
     estimated scf accuracy    <       0.00000204 Ry

     iteration # 21     ecut=    30.00 Ry     beta= 0.50
     Davidson diagonalization with overlap
     ethr =  7.98E-10,  avg # of iterations =  1.0

     total cpu time spent up to now is        7.5 secs

     End of self-consistent calculation

          k = 0.0000 0.0000 0.0000 ( 14129 PWs)   bands (ev):

    -7.9679  -7.6554  -7.4865  -7.4221  -7.1970  -7.0410  -6.7600  -6.6705
    -6.5070  -6.3646  -6.2742  -6.0722  -5.9455  -5.8301  -5.6646  -5.4316
    -5.2642  -5.1519  -4.9489  -4.7655  -4.5312  -4.3710  -4.2312  -4.0542
    -4.0296  -3.8085  -3.7411  -3.6235  -3.5315  -3.3199  -3.2583  -3.0404
    -2.9389  -2.8663  -2.7662  -2.5766  -2.4992  -2.4026  -2.2608  -2.1733
    -2.0328  -1.9854  -1.7960  -1.7696  -1.7362  -1.5880  -1.4435  -1.3781
    -1.2731  -1.1868  -1.0570  -0.9436  -0.8836  -0.5893  -0.5283  -0.4028
    -0.3002  -0.2006  -0.0608  -0.0100   0.1205   0.2851   0.2905   0.3897
     0.4528   0.5789   0.6644   0.7489   0.8125   0.8751   0.9198   1.0120
     1.0462   1.1085   1.2758   1.3626   1.3966   1.4588   1.5270   1.5571
     1.5917   1.5977   1.7280   1.7912   1.8471   1.9355   2.0485   2.1312
     2.1823   2.2275   2.3824   2.4508   2.4968   2.5220   2.5544   2.7021
     2.7891   2.8015   2.8927   2.9818   3.0673   3.0871   3.1050   3.2075
     3.2137   3.3330   3.4163   3.4723   3.5397   3.6276   3.7071   3.7193
     3.8181   3.9145   3.9206   4.0487   4.0855   4.1468   4.1853   4.3042
     4.3380   4.3437   4.4018   4.4575   4.5365   4.6508   4.6899   4.7173
     4.8085   4.8884   4.9458   4.9776   5.0530   5.1486   5.1974   5.2562
     5.2853   5.3571   5.4254   5.4642   5.5076   5.5761   5.6505   5.7038
     5.7592   5.8120   5.8567   6.0084   6.0245   6.0722   6.1507   6.2261
     6.3219   6.3295

     the Fermi energy is     4.7762 ev

!    total energy              =    -500.35078850 Ry
     estimated scf accuracy    <       0.00000031 Ry
     smearing contrib. (-TS)   =      -0.14239063 Ry
     internal energy E=F+TS    =    -500.20839787 Ry

     The total energy is F=E-TS. E is the sum of the following terms:
     one-electron contribution =       3.77862019 Ry
     hartree contribution      =      93.53164521 Ry
     xc contribution           =    -151.27479264 Ry
     ewald contribution        =    -446.24387063 Ry

     convergence has been achieved in  21 iterations

     Forces acting on atoms (cartesian axes, Ry/au):

     atom    1 type  1   force =    -0.00119949    0.00603537    0.03092857
     atom    2 type  1   force =     0.00179223   -0.01467586   -0.04650292
     atom    3 type  1   force =     0.06198898   -0.03596893    0.03979869
     atom    4 type  1   force =    -0.02968810   -0.04448960   -0.03087793
     atom    5 type  1   force =     0.02284948    0.06752021   -0.03744638
     atom    6 type  1   force =     0.00238758   -0.00191029    0.02393328
     atom    7 type  1   force =    -0.01560670   -0.01477812   -0.00276430
     atom    8 type  1   force =     0.02955784    0.04494487   -0.01578224
     atom    9 type  1   force =     0.00258617    0.02155377    0.00958135
     atom   10 type  1   force =     0.02688618   -0.03244616   -0.02356045
     atom   11 type  1   force =    -0.03681591    0.02854128    0.02557046
     atom   12 type  1   force =    -0.06757382   -0.02735072   -0.04090262
     atom   13 type  1   force =     0.04206508   -0.01872541    0.04614612
     atom   14 type  1   force =    -0.00533416   -0.05540260    0.03450003
     atom   15 type  1   force =     0.04659786    0.04040442    0.10680374
     atom   16 type  1   force =    -0.05430903   -0.01810731    0.00819073
     atom   17 type  1   force =    -0.00372562    0.03838937   -0.00873573
     atom   18 type  1   force =     0.01523009   -0.00016516   -0.01692487
     atom   19 type  1   force =     0.13721402   -0.00870280   -0.07778249
     atom   20 type  1   force =     0.04928387    0.04875616    0.01288933
     atom   21 type  1   force =     0.04128277    0.05363633   -0.02960842
     atom   22 type  1   force =    -0.07022473   -0.04242239   -0.00622028
     atom   23 type  1   force =     0.01169020   -0.05190427   -0.02621700
     atom   24 type  1   force =     0.05668785    0.04625691   -0.02331681
     atom   25 type  1   force =     0.00733867    0.01229832    0.02668312
     atom   26 type  1   force =    -0.06072710    0.03450935   -0.05152857
     atom   27 type  1   force =    -0.13778030   -0.07721339    0.00255861
     atom   28 type  1   force =    -0.06871567   -0.00756224   -0.04860049
     atom   29 type  1   force =     0.01332290   -0.05813973   -0.05758976
     atom   30 type  1   force =     0.04651637   -0.00772275    0.12109674
     atom   31 type  1   force =     0.02193389   -0.01323745    0.01499214
     atom   32 type  1   force =    -0.04685314   -0.02020841   -0.02535821
     atom   33 type  1   force =     0.00856447   -0.01889038    0.04720511
     atom   34 type  1   force =     0.02979795    0.01978823   -0.03867411
     atom   35 type  1   force =    -0.01283295    0.03059480    0.01734552
     atom   36 type  1   force =     0.07268395    0.18345618   -0.02419288
     atom   37 type  1   force =    -0.08050150   -0.06848005    0.05628959
     atom   38 type  1   force =    -0.02620419   -0.05534084    0.04825141
     atom   39 type  1   force =    -0.07089277   -0.00013692    0.07229376
     atom   40 type  1   force =    -0.07201310   -0.06709566   -0.05557516
     atom   41 type  1   force =    -0.00626137    0.00028144   -0.01838526
     atom   42 type  1   force =     0.00796586   -0.02798734    0.01234360
     atom   43 type  1   force =    -0.02985953    0.00840940    0.01338952
     atom   44 type  1   force =     0.09492133    0.04850309   -0.04339943
     atom   45 type  1   force =     0.03492308    0.08666841    0.01223917
     atom   46 type  1   force =     0.00000355    0.00255843   -0.00702803
     atom   47 type  1   force =     0.01490557   -0.00075819    0.01497307
     atom   48 type  1   force =    -0.02463137    0.01007923    0.01332450
     atom   49 type  1   force =     0.01691503   -0.07037338    0.02963844
     atom   50 type  1   force =    -0.05310034    0.00513157   -0.02392659
     atom   51 type  1   force =     0.01524326    0.00066073   -0.00315398
     atom   52 type  1   force =    -0.01426002    0.06022746   -0.03355996
     atom   53 type  1   force =    -0.01675012   -0.01196206   -0.02444086
     atom   54 type  1   force =    -0.05066123    0.00589941    0.03490697
     atom   55 type  1   force =    -0.01108048    0.00054573    0.00442585
     atom   56 type  1   force =    -0.07531562   -0.07085929   -0.02083217
     atom   57 type  1   force =     0.01069012    0.01536428   -0.00312903
     atom   58 type  1   force =     0.03439684    0.03512434   -0.04795745
     atom   59 type  1   force =     0.03121205    0.02573515   -0.00246288
     atom   60 type  1   force =     0.00431511   -0.04021131   -0.03222069
     atom   61 type  1   force =    -0.00799740    0.00867570    0.02786294
     atom   62 type  1   force =     0.07352079    0.02321063    0.00084331
     atom   63 type  1   force =    -0.00718877    0.00526223    0.04459161
     atom   64 type  1   force =     0.07083353   -0.03579380   -0.00493935

     Total force =     0.598163     Total SCF correction =     0.000921


     Computing stress (Cartesian axis) and pressure

          total   stress  (Ry/bohr**3)                   (kbar)     P=       25.70
   0.00021251   0.00016466  -0.00001430           31.26       24.22       -2.10
   0.00016466   0.00013779   0.00001333           24.22       20.27        1.96
  -0.00001430   0.00001333   0.00017374           -2.10        1.96       25.56

 
     init_run     :      0.82s CPU      4.46s WALL (       1 calls)
     electrons    :      2.84s CPU      2.99s WALL (       1 calls)
     forces       :      0.04s CPU      0.05s WALL (       1 calls)
     stress       :      0.19s CPU      0.19s WALL (       1 calls)

     Called by init_run:
     wfcinit      :      0.60s CPU      4.07s WALL (       1 calls)
                                        4.07s GPU  (       1 calls)
     potinit      :      0.05s CPU      0.13s WALL (       1 calls)
     hinit0       :      0.14s CPU      0.17s WALL (       1 calls)

     Called by electrons:
     c_bands      :      1.63s CPU      1.68s WALL (      22 calls)
     sum_band     :      0.60s CPU      0.66s WALL (      22 calls)
     v_of_rho     :      0.27s CPU      0.36s WALL (      22 calls)
     mix_rho      :      0.28s CPU      0.29s WALL (      22 calls)

     Called by c_bands:
     init_us_2    :      0.08s CPU      0.08s WALL (      45 calls)
     init_us_2:gp :      0.08s CPU      0.08s WALL (      45 calls)
     regterg      :      1.42s CPU      1.47s WALL (      22 calls)

     Called by *egterg:
     rdiaghg      :      0.44s CPU      1.16s WALL (      94 calls)
                                        1.14s GPU  (      94 calls)
     h_psi        :      1.35s CPU      4.13s WALL (      96 calls)
                                        4.13s GPU  (      96 calls)
     g_psi        :      0.00s CPU      0.00s WALL (      73 calls)
                                        0.00s GPU  (      73 calls)

     Called by h_psi:
     h_psi:calbec :      0.56s CPU      3.25s WALL (      96 calls)
                                        3.25s GPU  (      96 calls)
     vloc_psi     :      0.73s CPU      0.81s WALL (      96 calls)
                                        0.81s GPU  (      96 calls)
     add_vuspsi   :      0.04s CPU      0.06s WALL (      96 calls)
                                        0.06s GPU  (      96 calls)

     General routines
     calbec       :      0.56s CPU      3.26s WALL (     101 calls)
     fft          :      0.41s CPU      0.53s WALL (     183 calls)
                                        0.12s GPU  (     116 calls)
     ffts         :      0.09s CPU      0.10s WALL (      22 calls)
     fftw         :      0.80s CPU      1.04s WALL (    2298 calls)
                                        0.93s GPU  (    2298 calls)
 
     Parallel routines
 
     PWSCF        :      3.93s CPU      7.79s WALL

 
   This run was terminated on:  14:13: 5  10May2023            

=------------------------------------------------------------------------------=
   JOB DONE.
=------------------------------------------------------------------------------=
