An instance of this daemon is already running
An instance of this daemon is already running

     Program PWSCF v.7.1 starts on 10May2023 at 13:59:58 

     This program is part of the open-source Quantum ESPRESSO suite
     for quantum simulation of materials; please cite
         "P. Giannozzi et al., J. Phys.:Condens. Matter 21 395502 (2009);
         "P. Giannozzi et al., J. Phys.:Condens. Matter 29 465901 (2017);
         "P. Giannozzi et al., J. Chem. Phys. 152 154105 (2020);
          URL http://www.quantum-espresso.org", 
     in publications or presentations arising from this work. More details at
     http://www.quantum-espresso.org/quote

     Parallel version (MPI & OpenMP), running on       4 processor cores
     Number of MPI processes:                 4
     Threads/MPI process:                     1

     MPI processes distributed on     1 nodes
     752403 MiB available memory on the printing compute node when the environment starts
 
     Reading input from pw-si-16.in
Warning: card &CELL ignored
Warning: card / ignored

     Current dimensions of program PWSCF are:
     Max number of different atomic species (ntypx) = 10
     Max number of k-points (npk) =  40000
     Max angular momentum in pseudopotentials (lmaxx) =  4

     IMPORTANT: XC functional enforced from input :
     Exchange-correlation= PBE
                           (   1   4   3   4   0   0   0)
     Any further DFT definition will be discarded
     Please, verify this is what you really want


     gamma-point specific algorithms are used
 
     K-points division:     npool     =       2
     R & G space division:  proc/nbgrp/npool/nimage =       2
     Subspace diagonalization in iterative solution of the eigenvalue problem:
     a serial algorithm will be used

     Message from routine divide_et_impera:
     suboptimal parallelization: some nodes have no k-points
 
     Parallelization info
     --------------------
     sticks:   dense  smooth     PW     G-vecs:    dense   smooth      PW
     Min        1953    1953    519                91815    91815   12442
     Max        1956    1956    522                91820    91820   12443
     Sum        3909    3909   1041               183635   183635   24885
 
     Using Slab Decomposition
 


     bravais-lattice index     =            0
     lattice parameter (alat)  =      20.2170  a.u.
     unit-cell volume          =    8263.2512 (a.u.)^3
     number of atoms/cell      =           64
     number of atomic types    =            1
     number of electrons       =       256.00
     number of Kohn-Sham states=          154
     kinetic-energy cutoff     =      30.0000  Ry
     charge density cutoff     =     120.0000  Ry
     scf convergence threshold =      1.0E-06
     mixing beta               =       0.5000
     number of iterations used =            8  plain     mixing
     Exchange-correlation= PBE
                           (   1   4   3   4   0   0   0)

     GPU acceleration is ACTIVE.
     GPU-aware MPI enabled

     Message from routine print_cuda_info:
     High GPU oversubscription detected. Are you sure this is what you want?

     celldm(1)=  20.217013  celldm(2)=   0.000000  celldm(3)=   0.000000
     celldm(4)=   0.000000  celldm(5)=   0.000000  celldm(6)=   0.000000

     crystal axes: (cart. coord. in units of alat)
               a(1) = (   1.000000   0.000000   0.000000 )  
               a(2) = (   0.000000   1.000000   0.000000 )  
               a(3) = (   0.000000   0.000000   1.000000 )  

     reciprocal axes: (cart. coord. in units 2 pi/alat)
               b(1) = (  1.000000  0.000000  0.000000 )  
               b(2) = (  0.000000  1.000000  0.000000 )  
               b(3) = (  0.000000  0.000000  1.000000 )  


     PseudoPot. # 1 for Si read from file:
     /home/ppiaggi/pseudos/Si_ONCV_PBE_sr.upf
     MD5 check sum: 8553c464762ac42b85b1eed164b4d029
     Pseudo is Norm-conserving, Zval =  4.0
     Generated using ONCVPSP code by D. R. Hamann
     Using radial grid of 1510 points,  4 beta functions with: 
                l(1) =   0
                l(2) =   0
                l(3) =   1
                l(4) =   1

     atomic species   valence    mass     pseudopotential
        Si             4.00    28.08500     Si( 1.00)

     No symmetry found



   Cartesian axes

     site n.     atom                  positions (alat units)
         1           Si  tau(   1) = (   0.1491090   0.1841500   0.6573560  )
         2           Si  tau(   2) = (   0.1818640   0.0877694   0.2854510  )
         3           Si  tau(   3) = (   0.8996920   0.0727930   0.6680130  )
         4           Si  tau(   4) = (   0.3860130   0.8631950   0.0211734  )
         5           Si  tau(   5) = (   0.6451910   0.0184427   0.7987140  )
         6           Si  tau(   6) = (   0.4133620   0.3144130   0.3201520  )
         7           Si  tau(   7) = (   0.2024720   0.0155040   0.9010690  )
         8           Si  tau(   8) = (   0.4215510   0.0942908   0.0957302  )
         9           Si  tau(   9) = (   0.5540470   0.7536720   0.8447940  )
        10           Si  tau(  10) = (   0.1871750   0.3242100   0.4327890  )
        11           Si  tau(  11) = (   0.3697740   0.7218920   0.6223280  )
        12           Si  tau(  12) = (   0.7751460   0.5082240   0.1592780  )
        13           Si  tau(  13) = (   0.6310310   0.5366950   0.7987170  )
        14           Si  tau(  14) = (   0.5594220   0.1829220   0.2392310  )
        15           Si  tau(  15) = (   0.1201160   0.9678320   0.6380920  )
        16           Si  tau(  16) = (   0.4868550   0.9136460   0.6944400  )
        17           Si  tau(  17) = (   0.5259660   0.5406930   0.0380031  )
        18           Si  tau(  18) = (   0.2356760   0.3130980   0.8417850  )
        19           Si  tau(  19) = (   0.7175630   0.5980650   0.6136210  )
        20           Si  tau(  20) = (   0.1035440   0.2985110   0.1751670  )
        21           Si  tau(  21) = (   0.6241070   0.9115930   0.4871170  )
        22           Si  tau(  22) = (   0.0125165   0.0090753   0.8396490  )
        23           Si  tau(  23) = (   0.5998630   0.8937570   0.0441496  )
        24           Si  tau(  24) = (   0.7708850   0.6845240   0.0675742  )
        25           Si  tau(  25) = (   0.9611390   0.3541920   0.4418120  )
        26           Si  tau(  26) = (   0.0375620   0.4907470   0.2511490  )
        27           Si  tau(  27) = (   0.7643290   0.6941930   0.2842960  )
        28           Si  tau(  28) = (   0.3098920   0.2848570   0.1282020  )
        29           Si  tau(  29) = (   0.2625360   0.0722579   0.4916640  )
        30           Si  tau(  30) = (   0.1199670   0.4939960   0.5557180  )
        31           Si  tau(  31) = (   0.5823160   0.3212210   0.9554750  )
        32           Si  tau(  32) = (   0.9491050   0.5041090   0.8732080  )
        33           Si  tau(  33) = (   0.2079710   0.7216190   0.7717940  )
        34           Si  tau(  34) = (   0.8854590   0.6021530   0.4149260  )
        35           Si  tau(  35) = (   0.8294570   0.1307390   0.4284410  )
        36           Si  tau(  36) = (   0.1764140   0.8207140   0.4981160  )
        37           Si  tau(  37) = (   0.0056569   0.7126680   0.2740760  )
        38           Si  tau(  38) = (   0.8207430   0.1336540   0.9064370  )
        39           Si  tau(  39) = (   0.5311190   0.3674680   0.6026270  )
        40           Si  tau(  40) = (   0.9497630   0.8437470   0.5206330  )
        41           Si  tau(  41) = (   0.7774450   0.9082640   0.6346330  )
        42           Si  tau(  42) = (   0.5715190   0.6905000   0.4833520  )
        43           Si  tau(  43) = (   0.5831700   0.4542080   0.4095660  )
        44           Si  tau(  44) = (   0.0175440   0.1925840   0.0041371  )
        45           Si  tau(  45) = (   0.9982900   0.9545830   0.3168200  )
        46           Si  tau(  46) = (   0.5720910   0.9133870   0.2618520  )
        47           Si  tau(  47) = (   0.1642120   0.6402240   0.3711910  )
        48           Si  tau(  48) = (   0.4814170   0.6884400   0.2493300  )
        49           Si  tau(  49) = (   0.3422930   0.5027630   0.5818410  )
        50           Si  tau(  50) = (   0.8185230   0.4204520   0.6784410  )
        51           Si  tau(  51) = (   0.5716780   0.2023720   0.7252240  )
        52           Si  tau(  52) = (   0.7306770   0.2356070   0.5850780  )
        53           Si  tau(  53) = (   0.9864430   0.8617350   0.1380330  )
        54           Si  tau(  54) = (   0.3699850   0.1410540   0.8666700  )
        55           Si  tau(  55) = (   0.3826510   0.6551300   0.9077660  )
        56           Si  tau(  56) = (   0.3568790   0.4341940   0.9801620  )
        57           Si  tau(  57) = (   0.8764550   0.8623980   0.9664840  )
        58           Si  tau(  58) = (   0.9951150   0.7165920   0.8202160  )
        59           Si  tau(  59) = (   0.3398690   0.9099520   0.3167000  )
        60           Si  tau(  60) = (   0.0249888   0.3112330   0.7919060  )
        61           Si  tau(  61) = (   0.1870980   0.9283450   0.1323120  )
        62           Si  tau(  62) = (   0.7629650   0.3638460   0.3380850  )
        63           Si  tau(  63) = (   0.7645830   0.7207090   0.7974330  )
        64           Si  tau(  64) = (   0.7899650   0.3930440   0.9776960  )

     number of k points=     1  Fermi-Dirac smearing, width (Ry)=  0.0100
                       cart. coord. in units 2pi/alat
        k(    1) = (   0.0000000   0.0000000   0.0000000), wk =   2.0000000

     Dense  grid:    91818 G-vectors     FFT dimensions: (  72,  72,  72)

     Estimated max dynamical RAM per process >     147.06 MB

     Estimated total dynamical RAM >     565.81 MB

     Initial potential from superposition of free atoms

     starting charge     255.9608, renormalised to     256.0000
     Starting wfcs are  256 randomized atomic wfcs

     total cpu time spent up to now is        4.8 secs

     Self-consistent Calculation

     iteration #  1     ecut=    30.00 Ry     beta= 0.50
     Davidson diagonalization with overlap
     ethr =  1.00E-02,  avg # of iterations =  3.0

     Threshold (ethr) on eigenvalues was too large:
     Diagonalizing with lowered threshold

     Davidson diagonalization with overlap
     ethr =  6.70E-04,  avg # of iterations =  4.0

     total cpu time spent up to now is        5.1 secs

     total energy              =    -500.22656783 Ry
     estimated scf accuracy    <       2.17834440 Ry

     iteration #  2     ecut=    30.00 Ry     beta= 0.50
     Davidson diagonalization with overlap
     ethr =  8.51E-04,  avg # of iterations =  4.0

     total cpu time spent up to now is        5.2 secs

     total energy              =    -499.57056256 Ry
     estimated scf accuracy    <       8.87768673 Ry

     iteration #  3     ecut=    30.00 Ry     beta= 0.50
     Davidson diagonalization with overlap
     ethr =  8.51E-04,  avg # of iterations =  4.0

     total cpu time spent up to now is        5.3 secs

     total energy              =    -500.40516810 Ry
     estimated scf accuracy    <       4.50944076 Ry

     iteration #  4     ecut=    30.00 Ry     beta= 0.50
     Davidson diagonalization with overlap
     ethr =  8.51E-04,  avg # of iterations =  2.0

     total cpu time spent up to now is        5.4 secs

     total energy              =    -500.75846095 Ry
     estimated scf accuracy    <       0.75438998 Ry

     iteration #  5     ecut=    30.00 Ry     beta= 0.50
     Davidson diagonalization with overlap
     ethr =  2.95E-04,  avg # of iterations =  2.0

     total cpu time spent up to now is        5.5 secs

     total energy              =    -500.78863038 Ry
     estimated scf accuracy    <       0.66208273 Ry

     iteration #  6     ecut=    30.00 Ry     beta= 0.50
     Davidson diagonalization with overlap
     ethr =  2.59E-04,  avg # of iterations =  2.0

     total cpu time spent up to now is        5.6 secs

     total energy              =    -500.84518005 Ry
     estimated scf accuracy    <       0.19982923 Ry

     iteration #  7     ecut=    30.00 Ry     beta= 0.50
     Davidson diagonalization with overlap
     ethr =  7.81E-05,  avg # of iterations =  2.0

     total cpu time spent up to now is        5.7 secs

     total energy              =    -500.86168542 Ry
     estimated scf accuracy    <       0.04487550 Ry

     iteration #  8     ecut=    30.00 Ry     beta= 0.50
     Davidson diagonalization with overlap
     ethr =  1.75E-05,  avg # of iterations =  9.0

     total cpu time spent up to now is        5.9 secs

     total energy              =    -500.86593148 Ry
     estimated scf accuracy    <       0.04386470 Ry

     iteration #  9     ecut=    30.00 Ry     beta= 0.50
     Davidson diagonalization with overlap
     ethr =  1.71E-05,  avg # of iterations =  2.0

     total cpu time spent up to now is        6.0 secs

     total energy              =    -500.86907395 Ry
     estimated scf accuracy    <       0.00358748 Ry

     iteration # 10     ecut=    30.00 Ry     beta= 0.50
     Davidson diagonalization with overlap
     ethr =  1.40E-06,  avg # of iterations = 14.0

     total cpu time spent up to now is        6.2 secs

     total energy              =    -500.86937958 Ry
     estimated scf accuracy    <       0.00756613 Ry

     iteration # 11     ecut=    30.00 Ry     beta= 0.50
     Davidson diagonalization with overlap
     ethr =  1.40E-06,  avg # of iterations =  3.0

     total cpu time spent up to now is        6.3 secs

     total energy              =    -500.86995328 Ry
     estimated scf accuracy    <       0.00102364 Ry

     iteration # 12     ecut=    30.00 Ry     beta= 0.50
     Davidson diagonalization with overlap
     ethr =  4.00E-07,  avg # of iterations =  2.0

     total cpu time spent up to now is        6.4 secs

     total energy              =    -500.87004878 Ry
     estimated scf accuracy    <       0.00036218 Ry

     iteration # 13     ecut=    30.00 Ry     beta= 0.50
     Davidson diagonalization with overlap
     ethr =  1.41E-07,  avg # of iterations =  3.0

     total cpu time spent up to now is        6.5 secs

     total energy              =    -500.87006782 Ry
     estimated scf accuracy    <       0.00063451 Ry

     iteration # 14     ecut=    30.00 Ry     beta= 0.50
     Davidson diagonalization with overlap
     ethr =  1.41E-07,  avg # of iterations =  2.0

     total cpu time spent up to now is        6.6 secs

     total energy              =    -500.87010279 Ry
     estimated scf accuracy    <       0.00005987 Ry

     iteration # 15     ecut=    30.00 Ry     beta= 0.50
     Davidson diagonalization with overlap
     ethr =  2.34E-08,  avg # of iterations =  4.0

     total cpu time spent up to now is        6.7 secs

     total energy              =    -500.87010646 Ry
     estimated scf accuracy    <       0.00012350 Ry

     iteration # 16     ecut=    30.00 Ry     beta= 0.50
     Davidson diagonalization with overlap
     ethr =  2.34E-08,  avg # of iterations =  2.0

     total cpu time spent up to now is        6.8 secs

     total energy              =    -500.87011331 Ry
     estimated scf accuracy    <       0.00004747 Ry

     iteration # 17     ecut=    30.00 Ry     beta= 0.50
     Davidson diagonalization with overlap
     ethr =  1.85E-08,  avg # of iterations =  2.0

     total cpu time spent up to now is        6.9 secs

     total energy              =    -500.87011622 Ry
     estimated scf accuracy    <       0.00000963 Ry

     iteration # 18     ecut=    30.00 Ry     beta= 0.50
     Davidson diagonalization with overlap
     ethr =  3.76E-09,  avg # of iterations =  2.0

     total cpu time spent up to now is        7.0 secs

     total energy              =    -500.87011748 Ry
     estimated scf accuracy    <       0.00000739 Ry

     iteration # 19     ecut=    30.00 Ry     beta= 0.50
     Davidson diagonalization with overlap
     ethr =  2.89E-09,  avg # of iterations =  1.0

     total cpu time spent up to now is        7.1 secs

     End of self-consistent calculation

          k = 0.0000 0.0000 0.0000 ( 11492 PWs)   bands (ev):

    -6.2681  -5.6795  -5.4651  -5.0686  -4.9264  -4.7471  -4.5691  -4.4162
    -4.2360  -4.1300  -3.9008  -3.8176  -3.6653  -3.5770  -3.4660  -3.4229
    -3.2729  -3.1454  -2.9132  -2.7579  -2.5706  -2.4925  -2.3731  -2.3034
    -2.2348  -1.7854  -1.7059  -1.5112  -1.3848  -1.1723  -1.1141  -1.0011
    -0.8219  -0.8195  -0.6885  -0.4825  -0.4028  -0.3085  -0.2485  -0.1165
    -0.0027   0.0516   0.1248   0.1574   0.2118   0.2691   0.4464   0.4848
     0.6641   0.6889   0.8969   1.0828   1.1196   1.1568   1.3189   1.4247
     1.4717   1.5779   1.6773   1.7081   1.8709   1.9934   2.0361   2.1182
     2.2726   2.3015   2.3541   2.4517   2.6453   2.6754   2.7182   2.8590
     2.9088   3.0217   3.1147   3.1871   3.2875   3.3809   3.4433   3.5513
     3.5866   3.7382   3.8681   3.9237   4.0356   4.0794   4.1807   4.2187
     4.2659   4.3604   4.5781   4.6212   4.6416   4.7119   4.7482   4.8276
     4.8889   4.9038   5.0175   5.1592   5.2098   5.2527   5.2910   5.3324
     5.3950   5.5031   5.5741   5.6141   5.6700   5.7466   5.7559   5.8340
     5.9002   5.9537   5.9792   6.0889   6.1307   6.2259   6.2806   6.3476
     6.4204   6.4929   6.5316   6.6153   6.6485   6.7081   6.8169   6.8391
     6.9517   6.9938   7.0384   7.0735   7.1312   7.2210   7.2245   7.3071
     7.3393   7.4744   7.5016   7.5536   7.6579   7.7312   7.7594   7.8376
     8.0013   8.0235   8.1149   8.1324   8.1767   8.2404   8.3136   8.3866
     8.4269   8.5263

     the Fermi energy is     6.8811 ev

!    total energy              =    -500.87011741 Ry
     estimated scf accuracy    <       0.00000086 Ry
     smearing contrib. (-TS)   =      -0.14766888 Ry
     internal energy E=F+TS    =    -500.72244853 Ry

     The total energy is F=E-TS. E is the sum of the following terms:
     one-electron contribution =     125.78234375 Ry
     hartree contribution      =      52.62608488 Ry
     xc contribution           =    -152.75091438 Ry
     ewald contribution        =    -526.37996277 Ry

     convergence has been achieved in  19 iterations

     Forces acting on atoms (cartesian axes, Ry/au):

     atom    1 type  1   force =     0.01077109    0.03502314   -0.01787128
     atom    2 type  1   force =    -0.02102202    0.04018236   -0.01132222
     atom    3 type  1   force =     0.00912004    0.07080057   -0.02621530
     atom    4 type  1   force =    -0.03721199   -0.01252140    0.00998064
     atom    5 type  1   force =     0.05809808   -0.03105652    0.05346181
     atom    6 type  1   force =    -0.02774434    0.01836768    0.04069365
     atom    7 type  1   force =     0.04959435   -0.03926267    0.06103334
     atom    8 type  1   force =    -0.01266824   -0.01521438   -0.03932990
     atom    9 type  1   force =     0.02751332    0.05282126    0.01839516
     atom   10 type  1   force =     0.02473336   -0.03912386   -0.02371904
     atom   11 type  1   force =     0.00570206    0.00509544   -0.02460647
     atom   12 type  1   force =     0.01135248   -0.11884882    0.07559322
     atom   13 type  1   force =    -0.01197052   -0.06840493    0.04134759
     atom   14 type  1   force =     0.05288769   -0.02725005   -0.00568288
     atom   15 type  1   force =    -0.03709442   -0.01201338    0.04432083
     atom   16 type  1   force =    -0.04202919   -0.01247263   -0.05252255
     atom   17 type  1   force =     0.09148036    0.04491059    0.04061380
     atom   18 type  1   force =     0.01063028    0.00631227   -0.02638395
     atom   19 type  1   force =     0.02545793    0.02232211   -0.03848300
     atom   20 type  1   force =    -0.01428450   -0.02651198    0.03510790
     atom   21 type  1   force =    -0.01150870    0.00220037   -0.00034965
     atom   22 type  1   force =    -0.06999446   -0.02204553    0.02011944
     atom   23 type  1   force =     0.03453246   -0.01972048   -0.04966949
     atom   24 type  1   force =    -0.03708642    0.10544535   -0.08274529
     atom   25 type  1   force =    -0.01775396    0.00463513    0.01134252
     atom   26 type  1   force =    -0.02244516   -0.02407440   -0.00937855
     atom   27 type  1   force =    -0.08951535    0.06342941   -0.03422650
     atom   28 type  1   force =     0.01620154   -0.00053670    0.00764742
     atom   29 type  1   force =     0.04223207    0.00269644   -0.02450172
     atom   30 type  1   force =    -0.00314094    0.04095029    0.00972868
     atom   31 type  1   force =    -0.01309188   -0.01037292   -0.01396827
     atom   32 type  1   force =    -0.01039748    0.00333768   -0.02913031
     atom   33 type  1   force =     0.00092532    0.02208908   -0.00557412
     atom   34 type  1   force =     0.04212723   -0.05859242    0.11929511
     atom   35 type  1   force =     0.01316776   -0.01177383   -0.02178914
     atom   36 type  1   force =     0.04440478   -0.02547494   -0.01898424
     atom   37 type  1   force =    -0.05183765    0.01149557   -0.03923051
     atom   38 type  1   force =    -0.00842606    0.01964015    0.00003031
     atom   39 type  1   force =    -0.03374693    0.05292306    0.00924142
     atom   40 type  1   force =     0.05051325   -0.00891568   -0.04005984
     atom   41 type  1   force =    -0.03270992   -0.05448204    0.03881984
     atom   42 type  1   force =    -0.02917499   -0.00408946   -0.02289453
     atom   43 type  1   force =    -0.04705707    0.03263877    0.00295411
     atom   44 type  1   force =     0.00601913   -0.01021054   -0.05037363
     atom   45 type  1   force =    -0.01399379    0.06908669    0.11539123
     atom   46 type  1   force =    -0.01908777    0.00626691    0.02983839
     atom   47 type  1   force =     0.08563124   -0.06220590    0.06828663
     atom   48 type  1   force =     0.01451539    0.01981883   -0.00283068
     atom   49 type  1   force =     0.00615264   -0.00403144    0.02142783
     atom   50 type  1   force =     0.02407749   -0.02294547    0.02146880
     atom   51 type  1   force =    -0.05810882    0.01062570    0.05360343
     atom   52 type  1   force =     0.02341688    0.01589495    0.01566043
     atom   53 type  1   force =     0.00027925   -0.00389577   -0.05356942
     atom   54 type  1   force =     0.04815418    0.00377915    0.00224908
     atom   55 type  1   force =    -0.07054438   -0.00392489    0.02272299
     atom   56 type  1   force =    -0.03094788   -0.00879342   -0.04062217
     atom   57 type  1   force =    -0.04162115   -0.00841136   -0.08507643
     atom   58 type  1   force =    -0.01209431   -0.01187293    0.01555441
     atom   59 type  1   force =     0.00155210   -0.00907952   -0.01439518
     atom   60 type  1   force =    -0.01920518    0.01465363    0.02104018
     atom   61 type  1   force =     0.08292529    0.01728647   -0.03088276
     atom   62 type  1   force =     0.00844066   -0.03200864   -0.03664379
     atom   63 type  1   force =     0.02132626    0.03500639   -0.02748485
     atom   64 type  1   force =     0.00357952   -0.02959651   -0.02645251

     Total force =     0.527527     Total SCF correction =     0.001710


     Computing stress (Cartesian axis) and pressure

          total   stress  (Ry/bohr**3)                   (kbar)     P=       34.11
   0.00029760  -0.00002455   0.00004478           43.78       -3.61        6.59
  -0.00002455   0.00020003  -0.00001574           -3.61       29.43       -2.32
   0.00004478  -0.00001574   0.00019809            6.59       -2.32       29.14

 
     init_run     :      1.13s CPU      4.75s WALL (       1 calls)
     electrons    :      2.08s CPU      2.23s WALL (       1 calls)
     forces       :      0.04s CPU      0.04s WALL (       1 calls)
     stress       :      0.16s CPU      0.16s WALL (       1 calls)

     Called by init_run:
     wfcinit      :      0.59s CPU      4.04s WALL (       1 calls)
                                        4.03s GPU  (       1 calls)
     potinit      :      0.05s CPU      0.14s WALL (       1 calls)
     hinit0       :      0.47s CPU      0.50s WALL (       1 calls)

     Called by electrons:
     c_bands      :      1.22s CPU      1.28s WALL (      20 calls)
     sum_band     :      0.41s CPU      0.47s WALL (      20 calls)
     v_of_rho     :      0.21s CPU      0.30s WALL (      20 calls)
     mix_rho      :      0.20s CPU      0.21s WALL (      20 calls)

     Called by c_bands:
     init_us_2    :      0.07s CPU      0.08s WALL (      41 calls)
     init_us_2:gp :      0.07s CPU      0.07s WALL (      41 calls)
     regterg      :      1.06s CPU      1.10s WALL (      20 calls)

     Called by *egterg:
     rdiaghg      :      0.44s CPU      1.16s WALL (      88 calls)
                                        1.14s GPU  (      88 calls)
     h_psi        :      1.02s CPU      3.77s WALL (      90 calls)
                                        3.77s GPU  (      90 calls)
     g_psi        :      0.00s CPU      0.00s WALL (      69 calls)
                                        0.00s GPU  (      69 calls)

     Called by h_psi:
     h_psi:calbec :      0.56s CPU      3.24s WALL (      90 calls)
                                        3.24s GPU  (      90 calls)
     vloc_psi     :      0.40s CPU      0.47s WALL (      90 calls)
                                        0.47s GPU  (      90 calls)
     add_vuspsi   :      0.04s CPU      0.05s WALL (      90 calls)
                                        0.05s GPU  (      90 calls)

     General routines
     calbec       :      0.56s CPU      3.24s WALL (      95 calls)
     fft          :      0.64s CPU      0.77s WALL (     167 calls)
                                        0.13s GPU  (     106 calls)
     ffts         :      0.05s CPU      0.06s WALL (      20 calls)
     fftw         :      0.49s CPU      0.64s WALL (    2106 calls)
                                        0.56s GPU  (    2106 calls)
 
     Parallel routines
 
     PWSCF        :      3.46s CPU      7.27s WALL

 
   This run was terminated on:  14: 0: 5  10May2023            

=------------------------------------------------------------------------------=
   JOB DONE.
=------------------------------------------------------------------------------=
