6.832979385270303 0.36852306477139607 8.305460666072388 8.564288320610116 8.928900692753151 5.864035930979501 10.543788597751524 8.246516427414834 4.515602120265209 9.077230661302996 6.021920371795844 4.789425583292957 1.971745301893712 1.1463117348523921 1.2662996253561019 5.244366279004799 8.729092255915425 10.253651837344991 4.069230457976234 8.984128113163536 3.2214638475765645 5.129991105393068 3.467630755232006 1.3140505641050337 3.9376101046009815 1.119726308657944 9.22890255288776 10.1076462191111 9.935119442433429 8.887822888782278 10.670653137577085 7.652532453125179 8.345478052157182 10.00074752716082 7.743289228365131 2.204383848032801 7.400699272118867 0.6878855847957983 10.427924554582571 10.328127449081494 1.8811277734468828 5.642944157377727 8.727046399185717 4.624964409324562 7.949492306394672 2.6813898048085285 10.217297713048474 5.3203843167574165 3.9110782348654265 0.7714068824393151 2.723827942835282 9.221897368064568 5.069225947133155 2.6593352550364213 4.854796597017661 9.656047446434176 7.950820506575217 7.373738950712169 3.8165939300865275 0.7514324655306097 5.176038948749205 0.1143269727987274 5.878774668466833 9.61423056333058 1.937522724661133 8.861055370627593 2.0940146975462604 8.30839556001972 1.9231481710942722 2.2492534492932936 1.7375429071549504 6.12595914884124 4.20983758515372 5.166495187774486 3.0577310414491135 0.6750020430445162 5.158729501235011 5.319334610163115 10.587030082661673 10.479788629374479 0.6276120748285224 6.807625757630392 10.02944307783565 4.400155817475619 5.286097471774166 0.5636570938769468 0.752013017545009 9.028462149835098 0.3162412496001225 6.86138573106711 4.9727172082081035 4.375069972130173 9.50249036749638 3.1523010365622404 3.751147937319373 4.775265255561667 2.6376234666012297 9.155980078459155 7.7972848502209775 6.9569947214827605 3.1611164296960164 8.984770790670252 10.092532586411515 5.684996688900451 9.864756966739904 6.285814467344844 6.634113542109094 9.930567143427531 4.798358800636296 2.2679982099058176 6.975900151471963 8.048646734389033 8.870224236390063 10.071056446395453 8.49023044925298 3.6682211163695677 5.663595527926839 10.559748422501615 1.8425135665850838 3.3953830921854498 0.8680291610572193 10.290102363267517 3.3869211716803673 9.386101471030274 2.255455287233094 0.6688451925301855 2.771011183119949 2.823796429004816 10.666122261154744 0.8164596467892217 4.129417206480103 0.6903973827178764 2.3820091995970762 5.765974054746555 1.6455757559440192 3.957340304057135 6.958912042711128 4.882731645976211 8.288183352433531 6.177876780092042 0.5051755830242283 0.4699868472732207 3.8850712184270213 7.393608396961444 8.171333870420947 0.7925188385349062 2.8629247778719873 6.65382231898169 7.387063797684728 4.937755551842802 2.0485666865297243 5.7271884672162985 8.254528473665216 0.6888206805680688 3.9549838198658462 3.3755350685197314 5.007657441989847 2.336796836999669 4.24866601785109 2.2231500312288817 9.702427339835449 10.250363470768967 7.266486786133196 3.1179499238283186 3.606256293430453 1.4847135760132293 1.8622223434576803 8.576606306155488 6.078111808466301 8.463216571387388 1.9329490030716774 5.528386891805759 7.289226858579132 7.4825870977661495 4.166896016413372 5.023038856983896 7.094870469256707 8.176196796888425 7.163969012520359 7.714175937310937 3.239897980727509 6.708685555471602 10.244750753876987 1.60900740581193 7.253611813415338 6.185139035917922 8.60119943207912 9.405531754316629 1.8007073947732666 6.55866320282074 6.198838778102733 2.8660953202384487
6.855126397946363 0.4060020973766135 8.260122813843036 8.619573379960904 9.001783472106023 5.917819498770557 10.54643233970589 8.218191734126952 4.515286466867421 9.119779565396467 6.0041557525614495 4.934275953072572 1.9455913884610585 1.0203561418901046 1.3201596132322813 5.252887896723666 8.769796962105932 10.239655349588965 4.101020251710749 9.09046529587337 3.3112593433826465 5.114863420529245 3.5069484257562227 1.262612821070209 3.8532573737868296 1.1150775405876947 9.255522733805568 10.174300701203897 9.829298417726385 8.80785088962349 10.687487849248882 7.6345625142319875 8.380593001492207 9.901989666266118 7.6787641913682005 2.217859581938081 7.5031891748201165 0.7055870772689286 10.46126351572063 10.330104383612547 1.995544531703922 5.583945284724719 8.591126650018142 4.57031632321001 8.006533497256141 2.705095515129408 10.249166153877056 5.360773405275417 3.830594241046285 0.7073018067357344 2.646466976083217 9.194462941861408 4.9945645987231035 2.6097090027535623 4.934340215263707 9.73239103349366 8.031038812809243 7.337049990003801 3.7820227349128404 0.8216788676287156 5.260749304772608 0.12400246608859894 5.83412870518142 9.659089294138136 1.90434577211709 8.768201117692726 2.18165854759827 8.30431378061406 1.9151096891323298 2.2420007450747477 1.807941775048262 6.235210460790071 4.1529869436092 5.085549151006149 3.0454709208451463 0.6018047096211963 5.194741324110994 5.455720792678502 10.645963763409991 10.499681595654625 0.5862061337595096 6.8616490103466425 9.926773451314142 4.431435017800445 5.273194749122566 0.3898990633145112 0.7244426751846793 9.055431691339193 0.34935283381740384 6.807658059427416 4.901170214272467 4.416761817491113 9.480708161910458 3.042632674069983 3.6679680560120573 4.697137757416431 2.6066565486746143 9.127694525271353 7.86574574684288 6.8750369668332585 2.9759499404014442 8.832666805767083 10.109695778382081 5.523078279353967 9.901903983344603 6.222090263433188 6.695456273704379 9.921364716893548 4.866211582294614 2.2905615408430036 7.1111790985267955 8.124497459451016 8.728690580509426 9.944766864832154 8.413730871387878 3.780951698393911 5.709738523872969 10.566010887271919 1.8278523439351582 3.4941495393550173 0.8304549408648223 10.385519813101949 3.36636417228156 9.391555082074781 2.3546844972313017 0.6350282624383838 2.7806357208094927 2.841888299327061 0.023926955832881035 0.950189326425488 4.199020093192782 0.6686609512058024 2.4273329043102776 5.774354157059974 1.5949233217984091 3.857155946715732 6.928524530588589 4.915554234721688 8.359407899147783 6.2723111658057835 0.4107253684250918 0.4538999215396517 3.7975420540721263 7.4147108479913655 8.23809159264866 0.8261504450952455 2.8085255117624124 6.638648496740369 7.41129424149598 4.805847964087757 1.9561410981725122 5.721959050553951 8.288515991959851 0.6867571842296323 3.9463197369165983 3.362304943874818 4.920138271022704 2.391581705308417 4.253235961780985 2.2285485263969957 9.727142954550905 10.330896950636554 7.399073714814998 3.11102906616881 3.489426268306539 1.4739497469853424 1.9010469796387877 8.55116627749689 6.14719267966446 8.470795697116433 1.9275979749430456 5.563542039039116 7.283840895743391 7.535063221623453 4.077468158659494 5.146523260028795 7.103167745365205 8.274078419684685 7.274887030445143 7.6324311515593175 3.214362669515111 6.7263770980058695 10.280119109274114 1.5913996116511318 7.411337082956738 6.196010524197258 8.53613963513631 9.333944027721573 1.7934613613123376 6.524990101351589 6.064540791498685 2.8283289769974154
6.892689778020854 0.46244588601495007 8.185607849570909 8.663552262371743 9.042213588010274 5.935076990271523 10.542017825119306 8.202269247718508 4.515463762627383 9.146165293162522 5.9882307051845585 5.07639393098342 1.8977825050729293 0.8678832349233326 1.373633765146844 5.249421908275874 8.830551726067089 10.258238664638792 4.117399831948073 9.182807519679926 3.4096223536973214 5.0539717152243755 3.551736798565534 1.2030685909224799 3.762895392055675 1.1068051144784452 9.28682347186873 10.2218855497859 9.755055874309752 8.749461258090372 0.0026030757645767386 7.565120678324803 8.407945427422291 9.82862943900908 7.549819175784366 2.243142450095116 7.618231561880132 0.7310948693858501 10.512464188302227 10.312345377260785 2.13843048834359 5.636574550579603 8.468776663204112 4.51301166739872 8.068988770377139 2.734535909215606 10.28268466204944 5.400895004802829 3.7813985385846283 0.6492816222478469 2.5814138054169744 9.151540628554613 4.933058792420589 2.5594841502715475 5.012253972818819 9.7896529034967 8.097878521149775 7.339870568149418 3.754586108660728 0.8917306641100412 5.31598183815086 0.16082960661781037 5.798080892649167 9.714055557145768 1.867158084313203 8.68392928080033 2.2670744712132938 8.29176536964501 1.8904583429052186 2.2311175464191813 1.8816136675389479 6.340058185220338 4.110375489284304 5.005872100520638 3.038049617759117 0.5426347539119566 5.233306609939024 5.592329758069397 0.0033258549258639862 10.523996531364544 0.5317770047335082 6.946775074963993 9.801463650384106 4.443110891622673 5.257281462414908 0.20514935400400172 0.6683244438838949 9.092005041343397 0.40873857580356565 6.800580943274292 4.831655553051845 4.467738922303572 9.471865644997695 2.896481272701655 3.5892356522370594 4.62582946359609 2.5633068489468003 9.099500528941931 7.922473403504644 6.789990890081505 2.7866081323465672 8.686188634919317 10.160379720120213 5.3459637885449975 9.900114975020244 6.154555574996038 6.727639141101126 9.899718784961465 4.926055865435672 2.3151740859170316 7.251755757508932 8.206295395342863 8.594283249121858 9.813156611037819 8.341578238656984 3.887727384089552 5.738834417102465 10.54936340296587 1.7709909784240065 3.502084547144957 0.8129948500232077 10.44870971235698 3.3478488280459713 9.390047043939978 2.4337955310835517 0.5872104186604408 2.8066960391106397 2.85180816661439 0.0714833944432801 1.0541257568520026 4.2728241212233975 0.6537446497208028 2.4746352306561383 5.822933787958021 1.5434922219690603 3.767467639490781 6.900731365430139 4.950898052905101 8.397655193733447 6.374066283238831 0.3484480859127827 0.4308374148119304 3.711305021698905 7.440277978451499 8.309112069515903 0.8655756955269266 2.7669806626778333 6.6233233694083795 7.443276173490912 4.68796705578794 1.8595662261598305 5.726241997936928 8.31993769517607 0.696389691020693 3.966772654735811 3.3418738536459967 4.861037864438099 2.417027054541688 4.247607159374042 2.2265667146629284 9.749809032990775 10.422678954711213 7.5224285225314365 3.101557813397557 3.3745434717361804 1.4754224867349413 1.9470171507558738 8.52912604621174 6.210964473094721 8.475469062845661 1.9260726168376836 5.609323099239217 7.2649371078429255 7.5780557483519875 3.993606500338564 5.279414566509438 7.113849493535326 8.370168169925678 7.382980329680417 7.55485186031481 3.2028539743720366 6.75194593659923 10.298767836868011 1.5754122912993906 7.567101628618701 6.208298221077529 8.428033334186363 9.307061288384775 1.758612716046998 6.482161922249123 5.933181702693036 2.7772066493301195
6.9632597077475324 0.5221438535595505 8.09928914617338 8.713023794257406 9.067275633670041 5.9102454995711335 10.53058097595358 8.199378430871297 4.511018708966925 9.14698310039311 6.000368674744583 5.210926484518141 1.838602693323564 0.7238564116716626 1.4153374187828567 5.236542918559008 8.884652831857586 10.304678925153565 4.117362735118672 9.244010830500267 3.5185826036895103 4.9520752552903 3.6100438709043763 1.1291141787558099 3.663171477316757 1.092000857895096 9.320314191069972 10.25506247225786 9.720607101443651 8.716042529902841 0.04300092584294439 7.440401920243814 8.425366119561962 9.751939864685447 7.380305530479739 2.274649423043877 7.730382522723156 0.7624138014634726 10.566495366345185 10.26850762109001 2.307223935700108 5.762627185562121 8.358654202745125 4.445955321545114 8.142718261469579 2.7703857625476744 10.322373854309252 5.443529700261566 3.7880743408306916 0.6102845115644385 2.53407870803361 9.099636051599646 4.889313386179724 2.5150992105181653 5.069420574954316 9.823650893369011 8.140909161029583 7.369450927839772 3.7380618126907272 0.9741395699399089 5.347807947986832 0.22282765052565642 5.766727099577019 9.780029092818852 1.8311843110459538 8.621776621769166 2.367223982837201 8.271838791098057 1.8503243796063682 2.231338059847324 1.9494395332981336 6.4137962965968 4.082872074659132 4.925377642879968 3.0384751792294518 0.5153003156229325 5.271236969008842 5.726070510990636 0.05193402831143757 10.54001184866148 0.4526947356627941 7.045643358553432 9.678034365053959 4.436256830428931 5.24824319536915 0.02954400180083202 0.6039858447070853 9.139468375488518 0.4879454324018571 6.832223030315747 4.76410008531218 4.524645838316706 9.472985140627372 2.715470465167962 3.5104470040777014 4.552702952241116 2.524059074827487 9.083118643440407 7.980113316596706 6.710820615582157 2.620380292336776 8.553972821846536 10.221481714386485 5.160036167999007 9.862252172579781 6.087012810610352 6.7296181325799695 9.878876628102333 4.9586051444524095 2.3339108433741083 7.388355492200898 8.2977549577562 8.462736354094627 9.676300197768283 8.26799579075511 3.9714036552410144 5.750006301427486 10.504354371941826 1.7151128550053647 3.4524166284255724 0.8219813772527802 10.457778064164218 3.338593167014562 9.388781684645146 2.4936897378555094 0.5201677592327874 2.850896084495592 2.837932648798354 0.10774959401661464 1.1256030252391342 4.3376662088174 0.6511016711957921 2.5270885152092526 5.912975207335622 1.518070773354611 3.6895586523734805 6.873853749908283 4.991136838163315 8.41914666775346 6.482456475425938 0.3011392196311192 0.3947071789559906 3.649448005339995 7.471263675087032 8.387995885029296 0.8984121241848287 2.730382162877502 6.601236229758353 7.46068739559168 4.572324733936441 1.7556731009647664 5.738198977254031 8.355635467099692 0.7054988593370682 3.9997069781010453 3.325533388690342 4.82269781198987 2.409721786072573 4.229623305025307 2.2220463487117317 9.762430506290148 10.515144746163804 7.638236152383086 3.1012156388673646 3.2730159522488473 1.4970680806725458 1.9843583832109255 8.544274330730353 6.245988849866903 8.471974541548564 1.9326438019942802 5.664475458140174 7.240426740838276 7.606475199688035 3.917152051513844 5.4345163122705875 7.12953637718205 8.45800486063618 7.4765197006257145 7.485383222308053 3.211089052572115 6.7934718847963405 10.282637873047362 1.5586524287866754 7.717815162270177 6.214174373490197 8.318597079393296 9.312574666702423 1.7043010713107234 6.428622356415689 5.808422047587541 2.717300975080619
7.0685187489522905 0.5177509802404868 8.004690403173969 8.786752812521543 9.108692258720104 5.852587281426618 10.516363925003995 8.207754136974678 4.4958929283822116 9.122220565235894 6.0641276123479795 5.336991839898378 1.80004606911253 0.6323787615812848 1.4615494313159252 5.218833213368055 8.844954498307041 10.333507028783837 4.099162496477683 9.26066094876576 3.631815160782658 4.844792662645073 3.681882738220053 1.0437056368610003 3.565950288711316 1.0650405468361401 9.350521440464004 10.284723784243509 9.713142131177214 8.709639324826709 0.08827220001553351 7.300287323002484 8.432094985770158 9.658472360858656 7.209923800919557 2.305345441915936 7.8247446615205 0.789022423372272 10.61637064658908 10.192861873780668 2.4671499813983107 5.859501273522505 8.264243378897417 4.364537781334508 8.222834345741093 2.8081510683441993 10.367969961521846 5.49118670696562 3.855620870871025 0.6009029731063731 2.5001145257564077 9.061193347076845 4.870329481748456 2.48010033811042 5.100546153548025 9.832927579377158 8.155749357417536 7.393519188555532 3.73539660893125 1.0541997069074658 5.3636417475125535 0.2970490746533686 5.7355417434070874 9.854943185787745 1.8082122857830585 8.61726368120504 2.4868644913683156 8.256408948225298 1.805772053278628 2.257782313627824 2.000755192601945 6.432484990001431 4.068028126497908 4.846858298054525 3.0486209977720335 0.5310973395958594 5.308340513519602 5.850339698856747 0.04099911690667639 10.538903967347553 0.3362169469043078 7.1303272696237245 9.60271090757759 4.410805873951408 5.249978286121971 10.654804308533862 0.5877182256405484 9.187700137438116 0.5457462265643424 6.874316912141357 4.696751890709618 4.586845103042962 9.480142738100664 2.5412666923333185 3.4288691574975143 4.481711752643744 2.499472359307873 9.089726942940056 8.045114781109207 6.7039501533451915 2.5606387135307713 8.495455408692214 10.262462014027651 4.9890553553083175 9.796709391679821 6.02775958581265 6.709066079385181 9.876669817296492 4.891413946808668 2.3331191408150467 7.475513141259228 8.386672412310494 8.354671117625196 9.547784270679617 8.194504102586585 4.014246686433155 5.749573080307564 10.44235424181041 1.7065252286576424 3.41436689853478 0.8554192233184823 10.402432894259857 3.3560902933302867 9.402140920152023 2.537413693642112 0.43178094694294905 2.8956890580535752 2.8029388173369285 0.13206260041850593 1.1736126985672592 4.3784727932677034 0.672023977558968 2.582525886651651 6.019282988691996 1.5338680761950365 3.625425604619741 6.852269197408345 5.0348204175405336 8.438987572317759 6.575377727574469 0.2632293786413064 0.35342807800244297 3.647387697159616 7.522466211421232 8.45801710474266 0.9086633841212948 2.6903242278122863 6.5646214395615194 7.431321386825921 4.453113940135681 1.6633074266712795 5.746255220323469 8.393597107180522 0.6900560114338129 4.030782472482914 3.3071143988553993 4.783273116875481 2.377161056410362 4.202390753079581 2.228820606798924 9.748001066558489 10.58181138888379 7.7430931975893555 3.107892960971755 3.2150705412321403 1.5435005729230522 2.0009478425365055 8.619051044486794 6.221693853270027 8.452451662188697 1.9517900009012 5.723865016817904 7.221589824734599 7.610817611965419 3.8532662605597325 5.6083499755007145 7.155682141566689 8.527531622796506 7.530065181062223 7.422598625899997 3.2420736403930106 6.851862491990939 10.224863168465964 1.5420985095104185 7.853310365706135 6.206292561279344 8.263654726319594 9.344463670299495 1.6396971069134996 6.365774598772854 5.704385967879029 2.659211263380796
7.191972051226052 0.4360406590917731 7.904155418441024 8.894494774582531 9.183878469849837 5.782964476566369 10.509111728466424 8.223732974134748 4.458801542672449 9.083193023188613 6.175431145873673 5.469509178286297 1.7874315836056027 0.6001792366115508 1.5251378070689834 5.191074904931869 8.695435782661042 10.326739098971302 4.061582631596508 9.240413021701075 3.744445416270464 4.766016847819376 3.7704007907951236 0.957714788269914 3.4907035342679493 1.0116388181225682 9.37751091542741 10.321762089010903 9.71749956358238 8.722140384491567 0.10379152900640273 7.200663087974103 8.42817569941125 9.549833195776694 7.063340426056008 2.335491357846915 7.900323655933879 0.8006585494400196 10.664597800928167 10.075790764494945 2.5988554591062005 5.882322720571489 8.190681346698812 4.276246957974474 8.301813162653259 2.8439277108551186 10.41849803744549 5.547439521343636 3.9704444814614672 0.61690199007849 2.4761855426414083 9.05756944932798 4.875821461117718 2.4532056708457617 5.112063533904639 9.822262947436965 8.148713914323062 7.390966823664183 3.7493046905113694 1.1044680813194219 5.371799234354086 0.37609284169995266 5.705387340667511 9.943305970323303 1.8017418251476522 8.689998533069897 2.6298627663218452 8.274819573147614 1.7724470374882735 2.310220991144762 2.034837143249933 6.412732840136032 4.057461881414243 4.767258424497669 3.068535353906655 0.5776296353544158 5.352501279604411 5.963100127391119 10.677505917083524 10.527521313696285 0.1841525795089161 7.1865562081293595 9.586470411033565 4.361808716304424 5.2647881685819025 10.697970525780905 0.6342680087037518 9.242007805537849 0.56046269712757 6.901122011088694 4.625076488338669 4.659401802194579 9.484051038321619 2.4123406729343597 3.3391027405494853 4.42152213258198 2.4915768121533506 9.122184952835347 8.123143856698563 6.769311521492331 2.6015847871489997 8.518404073532025 10.269819230219905 4.830696570810105 9.717670815538007 5.987246653134473 6.662931947306522 9.897934905329477 4.710616840174165 2.3114090515869217 7.516537320127401 8.471127830531852 8.289354582881423 9.432643341891954 8.123411437879229 4.023928607853105 5.745792098948168 10.402560902324987 1.742627790714789 3.411221220362745 0.8968432806424325 10.30490447462891 3.4183067700267964 9.439493420117019 2.5785835088588995 0.31596520975472425 2.9094315838822995 2.7539026984316504 0.1398978632008299 1.2144653530678442 4.398799138719773 0.7237418038950466 2.6415935252822687 6.104993075874998 1.5740730533892895 3.5676705850748878 6.843121114367404 5.078530260343501 8.457449080576176 6.635949061048103 0.24319062088647012 0.327479763121169 3.706727173043702 7.618464343466919 8.493411991257766 0.8836311922658389 2.63684128351363 6.509896918459685 7.352049816748035 4.3216394294627545 1.625641298527355 5.721784715418759 8.43019861313709 0.6242722461187706 4.060608636098882 3.266973557488999 4.722657993304162 2.3276030646408636 4.166174763495465 2.2516207125787786 9.701123595325583 10.610171788780582 7.838651545413843 3.1032780944044047 3.230850098099009 1.604994734627121 2.0102838941119665 8.73258675378479 6.142390221684961 8.418350118457173 1.9852382956015737 5.789118843721701 7.215733260069245 7.5898973766189535 3.799588545982235 5.798580514270071 7.200770120446369 8.579637350915768 7.5336518124428355 7.342320565018996 3.2899534292846457 6.921650839269435 10.139378756268554 1.530179036512742 7.9779971210577765 6.184443280038524 8.269767640456628 9.397633020213538 1.5662168699249184 6.29022347237964 5.624759779309054 2.605577098364545
7.282261199064218 0.33435041196697396 7.8228688279059195 9.015087767132293 9.284759905510413 5.724601609557537 10.52104627849748 8.236948533476514 4.390512513683217 9.045911416742847 6.285861833084462 5.593341469152751 1.783703255441937 0.6047334535525063 1.5907315775744115 5.1446908832096385 8.55187651308555 10.323192494265795 4.008648286291904 9.198819844578177 3.8414147305722657 4.7349044334548935 3.8711784491958636 0.891174984909094 3.4703960596434364 0.9135984137886848 9.404542813409984 10.365686091106465 9.72388181894453 8.724281247256698 0.056582113868291456 7.185036620351667 8.412393877751656 9.44872801728034 6.98843548183184 2.365765962884563 7.954396627650845 0.7929589960006646 0.005242911154667511 9.937366908640406 2.6962395969689448 5.851322247553544 8.167817479105087 4.224745731147548 8.361153173675202 2.870175342565695 10.468060435523313 5.610803564503502 4.100241312487902 0.6462955958894866 2.4774548523382927 9.089968144129934 4.873380669669861 2.433505188687261 5.110269892067601 9.79513273528987 8.128043301160243 7.360096535177006 3.777444148278743 1.1170923156358044 5.379074814183666 0.45058843956572764 5.683446309417569 10.039912555034945 1.7986707657425807 8.813583109501096 2.7892993963489126 8.349365456335427 1.768639387778843 2.379662835824645 2.0514375401974414 6.388643019698323 4.042587490621689 4.684777192233424 3.096315365863402 0.6328226953441862 5.409502327970812 6.054079550896597 10.603014274822034 10.523198259592206 0.041763422160765826 7.206224533717171 9.610180131252946 4.2921209402476554 5.300372261808822 0.07178195247617682 0.6839274284758473 9.331000733113045 0.5495581571759921 6.909090547040661 4.548442230739579 4.741681567947245 9.469305667350323 2.348764241598853 3.248399402931101 4.3731467756949165 2.5009339296553965 9.17459132110868 8.207409648698635 6.814456910740668 2.6285431966606696 8.576469053257638 10.244115218814756 4.690290974640313 9.659354505223515 5.987721447289022 6.5733922026367395 9.92867333327265 4.494514226888119 2.276774585474728 7.548250344922007 8.5529257376989 8.274891921534799 9.339233934415759 8.06012206700625 4.0233802563732235 5.744536877211183 10.409871294976819 1.7940027868505344 3.443051981454707 0.9355057954604851 10.204244683507461 3.5213905171269593 9.492495672580075 2.629217698197823 0.1839322866323084 2.869318832677246 2.6991945560840933 0.1317783288872975 1.250065475817488 4.408456395846221 0.7983421606495655 2.7007148611360905 6.137278780185797 1.6116304188525634 3.51236504417743 6.85693980120773 5.111822316240414 8.463206326883883 6.6572766398367 0.2461448823797905 0.3227682570004244 3.7829258115648154 7.738181412685539 8.483034530801474 0.8274099649887984 2.573790802041577 6.4458471738731 7.255195486589234 4.185967245948027 1.6814466811347502 5.650492091459501 8.462542531720336 0.5110633908770191 4.088025340203901 3.195488504572173 4.63551716727401 2.2715498751551895 4.123185071124726 2.2748260254785064 9.642095830971272 10.60575510646507 7.923026952986406 3.0776541566688227 3.321170624328436 1.6533638631672336 2.0373265397852465 8.840798711206558 6.042752207621861 8.382758635611326 2.0269627701350155 5.86247828885059 7.226770064666337 7.5536035317248125 3.758525986117629 5.987999813002769 7.27030217974675 8.607185639132133 7.5086474689548535 7.243664722215992 3.338793315283271 6.989848723147781 10.052695965120044 1.5282063557176457 8.091320439692998 6.157717247398908 8.30832792630512 9.4505588071669 1.4893315131556737 6.2032728670907815 5.568995175573592 2.5525279440608344
7.316998266054147 0.2437924603266408 7.769557664544303 9.121772495596128 9.390634299868863 5.677260491872185 10.550463716029697 8.231747581882223 4.294675782140259 9.034497927128124 6.317748913884397 5.6406345253087755 1.782910059388157 0.6207367527669311 1.6503645536001843 5.089166805882682 8.485601202722568 10.343273654812112 3.946113132230855 9.149100030168594 3.9211637680523865 4.737004762944525 3.977554258836181 0.8483726518853426 3.51076868789905 0.7676155557944018 9.43734070940863 10.418057472472004 9.719989474478998 8.669780858506341 10.684358994203453 7.226509953810471 8.384603948332444 9.371758911426413 7.021623075632117 2.3979349182177936 7.98957056342682 0.7733574446736027 0.05082000157262933 9.811838271587709 2.757156484983177 5.808756174693439 8.208608626697384 4.240952698690273 8.38702496864345 2.883681577431391 10.511331029321262 5.677089092204149 4.213250227343979 0.6709322167991548 2.515322265863846 9.129517618095496 4.823775844887674 2.4127074271066333 5.103339415933396 9.751816250337406 8.10048757360452 7.314887907641455 3.8131069898350356 1.1180721720356022 5.390144622953633 0.5163082912723143 5.673628961405676 10.141461258179152 1.7658343674600858 8.931904513329416 2.964839320246365 8.461326724736992 1.8017425979135961 2.447694384344451 2.0534858603412496 6.376474725145181 4.017094019756201 4.590233084709577 3.131589772286742 0.6832933466083152 5.485207163838017 6.127248895341803 10.544282615501155 10.544057653436857 10.674599925604662 7.200907128397616 9.653711365345385 4.209897221338027 5.368237602882801 0.12744208067220533 0.6882307282956729 9.473323927216907 0.5475458807718477 6.916533654167638 4.460987022531294 4.8256291037983114 9.42562125710668 2.3295571631507417 3.168301438684171 4.319625146318727 2.5253812838817 9.240723865213006 8.286359801110146 6.784052423255178 2.563989059106775 8.645817042419079 10.18648580847632 4.591850669076665 9.66759473845629 6.047023138221774 6.442774259237298 9.958631374781163 4.3016817435712245 2.237622666208013 7.593315955886442 8.63655074786589 8.29408349865101 9.270183183156668 7.994476878924346 4.04089714865468 5.750983774086105 10.44644554249044 1.8320482017181847 3.4983100745286944 0.9837109010143744 10.132377075773253 3.6464850875456856 9.538691475614078 2.6976915126539898 0.07156900263629412 2.788779723735791 2.6479106215688275 0.12464290984359486 1.2767989771160508 4.413991376051715 0.8820783966045924 2.759191856041103 6.133151471409788 1.6375524284145047 3.4549031085986153 6.900379235455259 5.13170606099333 8.446907727663476 6.650617781689269 0.2604053731510155 0.33719028193522554 3.8298398824270357 7.819788479758059 8.447518338980853 0.7678855102715583 2.5211070046600557 6.381606002707005 7.171662060038999 4.058240652564057 1.8027924208803157 5.573777942295541 8.4984240403875 0.39106226884681816 4.101304819158064 3.1044336373823125 4.527897167940789 2.2246284288750453 4.0813688952696445 2.2841362511212417 9.59311087021546 10.587700293910485 8.00080795416242 3.0362701319003054 3.4499860806218368 1.6828876406099869 2.092136485483334 8.923248830093605 5.941430230232438 8.354169794776828 2.0687404307964403 5.94870400364471 7.256376345965718 7.516711016753669 3.738762383824486 6.172069908533179 7.359505383727038 8.589372989239022 7.526073723620127 7.18978757493379 3.3661823554315586 7.045019130319011 9.97593202877353 1.5366944362546595 8.199288769747934 6.135433229490516 8.359847408780515 9.48041558848189 1.406955600030774 6.106177448652646 5.524671937403271 2.485670123293644