-0.09096717250819171 0.42137629733093235 -2.0023674286999706 -0.011052401159419675 -0.4190749028912653 -0.25942045231900485 -0.1688703127435737 0.36848844819296533 0.6546591720226209 0.05348357374043693 -0.235707167862465 0.41091602122955684 -0.670271167528265 -1.3961429551399698 0.6348264535674099 -0.3936186676016898 0.11246802269444502 0.5890027103650759 -0.21745207830701904 -0.054381917184990206 0.48656507532343946 -0.8581596732455543 -0.07457896095815542 0.09261576385520824 -0.17197980490683284 -0.5371078212679975 0.6939294303771533 -0.32646916633838613 -0.1581531834363857 0.7812654338906609 -0.1998464494101139 -0.7230086071312967 -0.3181313358966521 1.5217930237423274 -1.899555441038051 0.5097435703224318 0.8920133885702055 0.518435698779791 1.4793369114606458 0.11161647332742712 1.0820341101391493 1.0667111066288337 0.10263663842632001 -0.06715978567594885 0.0811051921124474 0.27524250695292596 0.24368735785446424 -0.04144618295992862 0.045324434968412264 -0.4387631253488121 -0.2658078439025874 -0.6879534152993765 0.3517477383995168 -0.48822240842120435 1.0365399823620922 -0.20851080995333124 0.4031641451982799 0.969824997533046 0.1905521685923815 0.12049654942587636 -0.6587040315159559 0.4833131440450451 -0.2541813154072526 0.23134014914302095 0.008921985079978184 0.6187861122750956 -0.7101772596945833 -0.3057972398113314 -0.6329675459818002 -0.3723574442300684 0.3981571789019917 0.41053138419662843 0.5445830465991202 -0.12305119752693001 -0.4243958008835465 -0.375283873848244 0.2934279196127011 1.187989014305425 0.5013010959820334 0.5211135027222703 -0.37667638332039644 0.46120834172620573 -0.8476009238931015 -0.2854796112999019 -0.3676713516083087 0.14692491882073405 -0.6163422787202933 -0.5932499156772041 -0.23231382591019992 1.4069693563315122 -0.2576019110530273 0.9035771821484051 0.23573262178376173 -0.4743178825249702 0.15058668394303742 0.593291567548417 -1.0900294696398 -0.514780618525707 -0.5469723727669031 0.42303183065648436 -0.46365346083258857 -0.07529681296078646 0.5549296799407669 -0.25339301517800233 -0.6544408853642277 -0.3612088838124166 -0.40581315278535274 -0.5071017618242105 0.09005520221688361 0.14040922918940335 0.12568323583313837 0.33816640017065636 0.3005809857177146 -0.08252264128526432 0.7870768983661155 0.5174522518205992 0.047072528007770544 -0.7224532488484591 -1.8167821171945615 -1.1298008360004672 0.6128592052676993 -0.34848937936321916 0.0046539538322435976 0.04110448334979372 -0.5799663111944205 -0.6038891405586051 0.48887212619006126 0.7200572378124567 -1.1074954876350476 -0.4993676264047465 0.5145623318673138 0.09725300551690347 -0.0015148939826296489 1.1618822899160441 -0.5824674803497194 0.4025779336775067 0.6095401681967955 -0.13592625371738526 -0.6003394755341338 -0.277311987887445 1.031760558695578 -0.3840549351726547 -0.2800579260636983 -0.07951470769687595 0.21848977554291402 0.799902589375874 0.5475590985083085 -0.05313107549702462 0.5199333663712401 0.4538503586992377 0.4215727296124546 0.3292405584359362 -0.36974186098409223 0.7179587034122151 0.35419748549158997 -1.1722507776345619 0.43859574653301237 -0.5320982838685482 0.012702020947700706 -0.0034095399021812248 0.24990325685718898 0.5463373102860656 -0.26282433579423126 -0.5438543959632117 -0.4442431746267769 0.011164244146935611 0.3624946925033757 -0.25199664905110797 0.2627145496892443 0.3659970492296793 0.031068182159714235 0.5041424220855705 -0.7941237779105679 -0.38367415479446826 -0.4917260506990886 0.2104237107053279 0.080036641638617 0.08659552580305732 0.09396559301488333 -0.1686168019718709 0.5763814220566396 0.07550892897159255 0.019597205405637218 0.14015006199074573 0.34268048599092593 0.23160343010673665 -1.4821057324550346 1.0980816505203155 -1.0814448132945826 -0.3051781181700937 -0.4303946987794588 -0.3439806928595882
0.48141618413264825 0.5608077359880986 -1.0981405287827086 0.08897122512408548 -0.7925219806410867 -0.630633755642301 -0.2427262794927755 0.48889963699388705 0.4664042841048483 -0.5659160037489415 -0.045147028850283544 -0.5342076169020671 -0.6303511914048756 -0.32009822981503583 -0.2123918901752923 -0.5032011412182237 0.4295205237046215 0.7252056147826156 -0.23712847369002388 -0.7335915248534656 0.11446422718886737 -1.4286036467718364 -0.06523968583510055 0.21426828126239872 -0.13576581688012102 -0.6113957333482954 0.6301295623123729 -0.420779801397514 0.7588371867941318 0.9309172647242547 -0.017679933778266325 -1.7122068669846315 -0.4973030305662339 1.7299117404635627 -1.9355406008834088 0.4625450582597583 0.21198976964086716 0.37287937817180944 0.7206863867560234 -0.43495069358125743 0.8845463907691992 3.296251440468013 0.5953574489385102 -0.0213704952559761 0.17018414645899077 0.31324855388305406 0.3542640770634673 0.06900043842911342 0.9763147190224477 0.25022464475234973 0.430229119735872 -0.7859885503979431 0.702680694207222 0.35265662336703135 -0.15979123326044092 -0.45275892540727186 -0.3303685013927923 1.2611906353000797 0.4511172760387908 0.1628791281571453 -1.0988650656535592 0.8326188486619724 0.3234100677970882 0.20931145147775562 0.12276734773792407 0.6711440570515216 -0.46108749987762526 -0.297400531107204 -0.500696372518499 -0.2816011021811021 0.1029963357585839 -0.0964608486329113 0.7310127083826959 0.09567280551397715 -0.2854850106165406 0.11636992885201249 0.07403851507365314 0.31449476758532935 -0.05474238584820249 0.04050618764416249 -0.20831797721623477 0.6854764145137936 -0.6126589163314352 -0.5399645739905024 0.005063787676152569 0.1398325307503269 -0.7887607138264416 -0.18857061938597847 0.43647715752811284 1.5561553032722812 0.21235203807629233 0.5193468977401507 0.17503196146959535 -0.97130903827774 0.47099627435090496 0.6304969729541207 -0.18998061235962765 -0.19026394792800136 -0.4453389787941169 -0.3258880970239355 0.010516583260607695 0.14916666366705925 0.793618299029059 -0.09616902842410535 -1.2774307513080259 -0.17729916023721723 -0.9629254421997352 -0.36998920110820793 0.20987786550418694 0.00043683042710247354 -0.008501095492475682 0.18179421989409336 0.37735721143750495 0.09953948755823502 0.7913773255136822 0.002230174882099385 -0.19645002213405524 -0.735597499539901 -1.4962611980198102 -3.109202142822568 0.8044074192247629 -0.9229620144329201 -0.13130341023339323 0.12115963693117197 -1.0736443434135574 -0.6959384903873821 0.47305161421803693 -0.1516140967662873 -0.7463138575161404 -1.0524329994432648 0.2447556512179785 0.26090603572559584 0.031030386943243334 1.4740442956031388 -0.12924858458689353 0.6938780083139275 0.5476711986061407 -0.1365489749030487 -1.032966663188537 0.14453430710137044 1.2637100592878234 -0.669007470324493 0.047705790716395254 -0.09777853900307032 0.3418957853061015 0.2752047117364551 0.5018073461944905 -0.12937354020053204 0.2823744900120169 0.49056905427651 0.5203059192193104 0.6553281730651875 -0.10902223023768966 0.8774889697017856 0.6783066362382318 -0.5296503365486879 1.0779257443977306 -1.2804284004837692 -0.5693304287471291 0.04515679904229643 0.11128634368151802 0.35507500300053685 -0.7958582441031713 -0.4444730312493958 -0.1953490757603926 0.15064247688163734 0.06516358118152649 0.336820170555407 -0.0573055185896884 0.0340203228095027 0.46980996735228764 0.43427012257446496 -0.49975971963684246 -0.3059965003063311 -0.3007401370033982 0.12673224592294302 0.1333446090331381 -0.03416044793179278 -0.12324094494023291 0.05812441494655796 0.6698960435770334 0.20256179145874795 -0.46960685020254606 -0.00927808286781628 -0.20448960460908006 0.15582633507542196 -1.4611931506720834 1.7387835890318954 -1.1102812779103006 -0.24562262720396408 -0.06188259643740956 -0.33524202743500975
0.9158349164698357 0.037490540746290275 -0.42755748644097974 0.4397614847063394 -0.38734440455720387 -0.8545146202937993 -0.24678605138444595 0.48519750555195157 0.1744686327669576 -1.1514086440782298 0.8184528415742356 -0.8576367108625488 -0.32430095504247375 1.0826444900296386 -0.4669537288504152 -0.5023429069829864 -0.30803512800291466 0.35766410388395176 -0.29613760523438026 -1.2810719476050387 -0.1181002812795579 -1.148935499947389 0.050401592381003515 0.10210107763782415 -0.05946575946580081 -0.6220064189846062 0.4486459316801628 -0.2792899375494222 1.0608453918766763 0.8634144938865903 0.20669252579766986 -1.8570486780240922 -0.5117721707166863 0.8934845737990935 -0.9454172581126427 0.24776384191668294 -0.5272458408722532 0.12661037563309807 0.03478805421346267 -0.436177624009823 0.564393396456828 1.9352847761188605 0.5804309095356648 -0.20923431838291706 0.21057592001247605 0.34722568215944716 0.3227924888177473 0.12242050592146657 1.7110925508745307 0.875016596901893 0.6688390630674288 -0.4506958722306561 0.8395173755540186 0.5772481409323091 -0.7098371027463453 -0.6515139415254199 -0.8987458221980328 0.6096525254049436 0.47204965531608384 0.44904085312573633 -0.9631139040614575 0.7005788173728709 0.37157197221429555 0.1584465463070884 0.25154876288041195 0.934794488291474 -0.16349722135711842 -0.1280234539305408 -0.28506823479409615 0.026589063342438077 -0.07168338457791525 -0.8783963120074034 0.810195743771766 0.22089195722650345 -0.22775294601239485 0.8026097038943919 -0.04836502156694896 -0.10754641702311155 -1.0419848075267475 -0.4372001517370664 -0.3357336223594476 0.22474192710021296 0.24466309150417218 -0.4978069667858459 0.259260786812689 0.9231610178176036 -0.25743530356817595 -0.17952213603046502 0.2585938426526514 1.3196395234655918 0.4036809369336983 0.3575052097085843 0.11922231069914305 -0.9147005457550763 0.4377557671302203 0.5034029728163847 0.2525684623941779 0.11572946705453617 -0.2739793239697862 -0.13482427890245813 1.0501033228688237 0.6262495105316763 -0.020360565934222998 0.3342416111949534 -1.0894923661894074 -0.07758843720844057 -1.1801972861751482 -0.019685137133753194 -0.4393961309471207 -0.14156494006040132 -0.505105300219472 0.025890494613516703 0.6114679813471275 0.0974347825104064 0.5479887298465596 -0.6019106766759957 -0.27932541877304795 -0.7581010799590557 0.009241316092609891 -1.9445404903891736 1.0507101032148871 -1.7288439613206807 0.04672260086751954 0.19722572395781518 -1.2562191502274171 -0.673952215924278 0.3244397946131832 -0.71294556646834 -0.49617868715380353 -1.239307462073743 -0.1641435966918657 0.42372165763465736 0.1730388422989665 1.3502168820318166 0.6183433683107221 0.7742560924523634 0.4166421250800566 -0.03640656365349214 -0.4304422641879425 0.019448338532598763 0.743485644038726 -0.7789774091874325 0.7143715002815891 -0.15351028534773564 0.28450799141525196 -0.14976341671079368 0.3256754667924972 -0.14242497406785148 -0.5664173688653922 0.41541905130623297 0.5209646358492318 0.7688081819639145 0.13162556945950235 0.4881061945583143 0.21868877892759755 -0.2705543574486373 0.9535684264648675 -1.482832326208414 -0.7592596190435311 0.2826737664199906 -0.30841359438825594 -0.14318190683853405 -0.9067437528018448 -0.33930077088541566 0.13613502729408167 0.30802330092837277 -0.4180240930292478 1.4501178666945282 -0.8094637507017478 -0.3737134440373306 0.7931639851004598 0.36095768703355896 -0.13628517971870074 -0.41034317944522236 -0.08793121389534533 0.07828237795167163 0.2598845364396169 -0.3664673039978786 -0.6704652858169421 0.38039574115351266 0.851044916577644 0.379776619512275 -1.1164910062654383 -0.07897400470205754 -0.6072251469103735 -0.03033593197938001 0.0040325181981607965 1.2652738042305178 -0.7727039174738951 -0.12325200068382644 0.32280662988513437 -0.18919359768195804
0.8774527171472115 -1.9049308464173516 -0.38494170865298216 0.9600105825457853 0.4706910844056603 -0.7103379536421638 -0.09102450810868841 0.3082153623345208 -0.12363149551043225 -1.2721437918774736 1.6713759490111988 -0.7465144035627208 0.48989902479267894 2.2502032615051695 0.2016426220785882 -0.48975298613311785 -3.1164038027773295 -1.1593278989253066 -0.3869823932320949 -1.4483335211005959 -0.26243095701055447 -0.30162151116708696 0.09118263095310748 0.03051539498003777 0.1550524330238749 -0.6358950040412403 0.19579644771045634 0.09320531781009109 0.5206599601246195 0.6179726152348648 -0.06921641109466144 -0.7329685465574861 -0.42978688999213077 0.14351435047728833 -0.19032256908007866 0.23856186370244076 -1.012991762728507 -0.17819338991671246 -0.2961987974896189 -0.43130281241602497 -0.31392012602878194 -0.858417040671999 0.17261126784324465 -0.46026140443190405 0.07953887606659205 0.31462280852276137 0.23513509740907892 0.06760278675063841 1.7706698962175311 1.2773268787403098 0.5087359549935239 0.162086714162837 1.0345836299666697 0.4978838427703683 -0.5110730877671327 -0.5677800535408738 -1.1200694676453162 -0.4427933295541278 0.49387986381729776 0.32340338292886883 -0.6122179721392746 0.34066576955374234 0.2091337882493108 0.1826218580017113 0.5509454984820382 1.6250778372756076 0.15131276347578454 0.24580003332209283 0.05994732708790966 0.35151299668089137 -0.12317075382392982 -1.4264732306923948 0.6985173068581518 0.29368965791452006 -0.16627555543320396 1.1993507191751474 0.04818324457344605 -0.33327693328883895 -2.183594463236685 -0.6185855662285152 -0.8158971650319174 -0.49386212320548495 1.6051823839032613 -0.5742582050660496 0.30536195204612576 3.635791838168061 1.462291525942585 -0.5164158401362848 -0.7270151571875285 0.5120354516804021 0.3436400216907179 0.5168449572539033 0.07304066993675808 -0.10373655635871813 0.13128592673189649 0.36720906725990954 0.2544489672463425 0.2777565316240313 0.031458475619597435 1.93259977308753 3.368452902332928 2.2395133858914917 -0.815904364120769 0.5921757087764189 -0.6843505284394665 0.05218850907809722 -0.9952619495489118 0.49889428631275373 -2.8592173819951663 -0.51356705783358 -1.9615753343842735 -0.08973278588045837 0.9463490258982927 -0.03860511396670771 0.19699535311456395 -1.0576158291957851 -0.11044199340335172 -0.36933536957429297 1.565966118715116 0.06320491479325889 1.0990954364968104 -2.1709160964380674 0.6039454477178372 0.41131428510924 -1.0842894818322295 -0.6394837498337631 -0.09393808221105757 -0.677055280329634 -0.29995929297331564 -0.7578491118492497 -0.4125502143988702 0.7122991911335926 0.1336192028507634 0.5864169519157707 1.082774844959916 0.623807476749087 0.3325716796916982 0.1337061061376149 0.18729638065924517 -0.6042066717990239 0.20704682381329503 -0.4836813260177412 1.5654241301687168 0.3179253905334331 -0.2577021840763175 -0.4473377543917006 0.06750868437493535 -0.20734867132443 -1.689389354869484 0.26879700843789833 0.7829266236431678 0.4500980907456571 0.23494097912040185 -0.18961165905598315 -0.2519909926241531 -0.45225781740113724 0.358062367763635 -1.3083703783096756 -0.7253138582257057 0.7450853844256781 -0.9687423059918285 -0.8955154881861933 -0.9908170264036807 -0.5315046161486072 0.8740966561907848 0.379432863019611 -0.8470831037164186 2.186738408182305 -1.7713036731467882 -0.8365559789328496 0.9440116360143678 0.3399319767115114 0.17428017090523534 -0.7076467799632458 0.06799796530652805 0.016689544840538997 0.3362892377526015 -0.6918810324885568 -1.3128135016826938 0.4560936462074597 0.9744229013163734 0.4673766753204467 -1.5526670876133648 0.04687223907150637 -0.7984167488589669 -0.3665423802101881 1.562407197719264 0.8548192960184117 -0.4700786476326421 -0.02289644498219928 0.6054282029109509 -0.017358031662473333
0.22334170431857667 -2.242033581210184 -0.1436606462471655 1.1203785142453027 0.8562238896754222 -0.02823019849028686 0.2519611678274822 0.05327891392879856 -0.4457642392569936 -0.9189233255871722 1.4090552923262636 -0.37796553444546516 0.568238481234531 2.341909369061915 0.5674049295896422 -0.7556654739343696 -3.877609746913954 -1.7685615916252768 -0.41565687834865195 -1.165707062978773 -0.6115302020436306 0.6947701811108937 0.15017710720944458 0.30402986349826344 0.7998290558254613 -0.92381742045468 -0.0037155011783742468 0.41838713279562134 0.08326029078223725 0.2417531169462288 -1.229170116529425 1.048156483555098 -0.4073069637220598 -0.13178112120076013 0.3319350745489638 0.40142453679935386 -1.207899894296739 -0.4348707322729414 -0.47447600536938933 -0.6718557384065655 -1.068362526189328 -2.244603141709573 0.19945384195738555 -0.3536434127603329 -0.28079120468529706 0.18365646991381274 0.19183772017302445 -0.07490677661121938 1.2785548376101399 1.2079047793927453 0.5747909376410681 0.7756414028356642 1.2270756958942417 0.45435429491884977 -0.17223511545074854 -0.39207934813902795 -0.9492646568831911 -1.145452169384479 0.5292929532092691 -0.4475048760971842 -0.35847194449722775 0.08844929118234444 0.16856640834990969 0.16900863809365088 0.7890252803417379 2.236367384063342 0.4309027487641288 0.9348615940839835 0.4565883264556911 0.37722017163900845 -0.05031314643225528 -0.8831135149774146 0.39396345253561826 0.3316339983687772 -0.06588477561826718 0.9215417370466259 0.4175060157422487 -0.6019284172878085 -2.033804821273646 -0.2107582112266112 -0.8519622861855909 -1.0311805178223918 2.134067817261467 -0.774231409862015 0.4129716182070049 4.541983060900545 1.9431659786391504 -0.5301450167969192 -1.4119886639229746 -0.386453003091186 0.2734856721628193 0.6802599033098607 -0.13528630614054118 0.9648332007454091 -0.09244504260529886 0.4371656989547052 0.08233289387196144 0.1982693347309811 0.33208471275295065 2.167479045732061 3.3015340290231916 2.342969177784997 -1.0523905762411037 0.4275903965614442 -0.36895227520326135 0.43389191329943977 -1.0274706730709724 0.6798498123556356 -3.5678337249605327 -0.6018438279938023 -2.0430600213233263 -0.010308066794227407 1.4165374596359217 0.0644729828724051 0.09212262626887359 -0.8743905332821199 0.09245892656236981 0.8770570243706894 1.5189972061647452 0.7301699007664263 0.6091943548216024 -1.390670876281805 1.1652820596262126 0.6361906809047883 -0.6651333320810674 -0.6271015741193264 -0.8685556717678978 -0.5447211148388812 -0.10730781864974423 -0.22843891633582591 -0.30669532614556855 0.9692688679192597 -0.0029750234679239086 -0.6002515438060178 0.698495452481281 0.40990300658401013 0.34057063873677473 0.1469244046001018 0.2529759822452417 -1.1734697376433274 0.09821048433416635 0.21044967884725693 1.774204391733351 1.3442226121215946 -1.1576566818704708 -0.6750886435215664 -0.12274137959599507 -0.19050280341168482 -1.8580768621782902 0.12443136570390828 1.84463230663761 -0.629374172203587 0.2396612674142066 -1.010076388853925 -0.34492325927851564 -1.027285810753676 -0.020035578494636462 -1.1538213672847806 -0.6811430772457624 0.8868125610955565 -1.27588371853588 -1.3458035834554694 -1.1008178185045556 -1.022129463363717 1.9014660277972026 -0.0935246488227228 -0.6070261435256902 1.3449615471701482 -1.575221575875113 -0.779783964249128 0.8843635853344317 0.36896461649843554 0.4155740888268585 -0.853914267705639 0.20280630336938618 -0.061832459925764485 0.39980705580058884 -0.8125845557189167 -1.520976184267987 -0.19868251100899975 0.8363718879465015 0.34987031887114584 -1.2581089110509622 0.2757857810509057 -0.7599995825333492 -0.5198379784439564 1.5797351474747503 0.36503802775051974 -0.3305250815753146 0.06831961031200492 0.641110743914225 0.09689305107432344
-1.288018554126201 -0.3321816433421311 0.6931907524389159 0.46161354758442436 0.7241393783016303 0.695878583683724 0.67039303781811 -0.3030266190447298 -0.8124539436783234 -0.37867721580050917 -0.10476525473354861 -0.5576599343877363 0.09531182263013263 1.5088112667706788 0.10021671613091772 -1.2210526296286133 0.029770032173580988 -0.2985554706472536 -0.2792233459775449 -0.6825006197149214 -1.1123816120827552 1.250462450249298 0.13663587818990017 0.6697561755650594 1.920671139970744 -1.4521678072450215 -0.011004321530303628 0.4680073669259101 -0.07328646739897701 -0.513626964537238 -2.243984534288968 2.153825202394052 -0.4855677444071766 0.024097150158519792 1.3714400530766508 0.5323613077219478 -1.3281223641256223 -0.47119399218400787 -0.6207730607981373 -0.2581482704748006 -1.066450910988912 -1.6552834143247104 1.2251915914976512 0.938515645896803 -0.6749868278363795 -0.0998063680663765 0.11216848917615521 -0.19871670668104485 0.31183958935066936 0.7893944907556986 1.1213341932903527 0.840875689354126 0.45246556253656917 0.4207553759174818 0.06366257115596777 -0.29381847018290047 -0.6167865653465635 -1.2029865161555218 0.44226548207511573 -0.656494939679779 -0.07847366802687131 -0.03637905284966638 0.38794912802073833 -0.00015143797619973922 0.4301046783428657 1.8645074482949824 0.6078972332767337 1.445216572738169 0.7330091699874344 0.2941910230309707 0.027747859537229635 0.12058988047063104 0.0836554693381269 0.45258331906135607 0.011908835622444006 0.4396095325095074 0.8209396125518313 -0.7550651213462093 -0.843576890335373 0.476940921970114 0.11721247935796587 -1.1420241175395365 1.4841104215898893 -0.7141300736947443 0.7578730231086497 1.4836735911627867 -0.14429519450737086 0.2778596328607989 -0.995180188468383 -0.6258605026233737 0.2224364188954879 0.7112920900253169 -0.5617487597451293 1.2536241358067313 -0.021330386046660037 0.3660096476351697 0.02254574651099988 -0.07704567733109312 0.3228151145255666 -0.8736120032448825 -0.3950183761626939 0.7090693713423853 -0.9351297601437056 0.3712644682762058 0.2060255816376323 1.220958270142594 -1.6668577494258712 0.2484184447815464 -1.0436459972792542 -0.5088213156184785 -0.6508385127249501 0.21390832681981867 1.4963473299757133 0.3431779944526348 0.003886736648915887 -0.1730550402488826 0.18651373685694977 1.4477951320986229 0.8035304159364485 0.8018049486049095 0.30381286239145094 -0.25010534556566605 1.0991358028164424 0.6362374749823235 -0.13803687230248485 -0.33776299408465055 -1.4350535161622382 -0.5815547387274629 0.18764939312328974 -0.272435376521434 -0.08811941864675146 0.8641390307574408 -0.034365879074379525 -1.636563212207388 -0.04804800454716242 0.2354533999804461 0.381908064032981 -0.12780645282372827 -0.03944740736234496 -1.2762886672837825 0.007861147915631621 0.23084135512973147 0.6963809772414393 0.9208434254280206 -1.4336517507187052 -0.5353664130968587 0.10564122958059871 0.0995284318146415 -0.8648717951584073 0.23068271806468013 2.7552476265797194 -1.4620544702311142 0.31724919040201494 -1.1145799052856546 -0.3673309375497545 -1.3723548515814366 -0.04702907636434481 -0.9059081442744269 -0.581324882104844 0.3516500364793879 -0.7700813922493834 -1.119561417660646 -1.1079631713000853 -1.228804248549574 2.0132856182743715 -0.9812790050062585 0.10173135300323126 -0.03283221603867249 -0.4930167444860541 -0.19105610481199353 0.5784768711330875 0.3764709521778097 0.5660674417251413 -0.5665819194677145 0.38925139177192963 -0.0960391877144604 0.5366182832260888 -0.9585157431678137 -0.8785312949233709 -0.5848943446236572 0.43227417519035877 0.11765085244696512 -0.5075501622155388 0.4362264749698875 -0.6254318997263874 -0.31410113169133647 0.5188326771078935 -0.41494802520708535 -0.26259447917161227 0.18977800943051834 0.4372505453590277 0.0075549295291224726
-2.0112282215247106 0.562291776732793 1.0082514198300443 -0.4915100780335406 0.0856681288927815 0.5942385048427186 0.7179147375481572 -0.7269791617432706 -0.795724032518152 0.6009102604359393 -2.7630756072645704 -2.7999138591388424 0.052303694499722816 0.7349814632224568 -0.2215732995642442 -1.050145746070985 2.30752523515509 0.3836353311367328 -0.048895697259438375 -0.3246722223389634 -1.274999516158714 0.716502944802295 -0.34616484499510064 0.6641717394987465 2.2209446217503683 -1.5168845306971166 0.09224629633093145 0.4043193418486456 -0.37154908939616016 -1.7512866065949129 -1.0128444385173654 0.9635191099196759 -0.5527439851433578 0.1746982322792604 2.519300574792306 0.5967928958334561 -1.3862910020465544 -0.2030729267672116 -0.6110344933541347 0.7951540189472951 -1.086246091337968 -0.5065577163952825 2.0356534444466106 2.290528186376462 -0.8660622159220827 -0.3721003339139398 -0.12475249648875288 -0.27683196292723294 -0.867790511467099 0.19634306424254575 1.489180379913629 0.24291576979576232 -0.7888170209856736 0.2502855798972722 0.17297867848499243 -0.32356767642087503 -0.3338371766676831 -0.7502286191895144 0.3011219458228491 0.15854887621290756 0.145229276285866 -0.11263488728961246 0.7143756140466471 -0.06770743064930275 -0.4540015395651213 0.42593537745652454 0.7023317955082357 0.632657213830233 0.7431082060946492 -0.13059867085688476 0.04967422729667574 0.5386903352637691 -0.1886384965094364 0.6360765239244272 -0.005791409870796477 0.07822118569643302 0.9713900280273204 -0.6543732653510859 0.008605996501456147 1.0703533313671114 1.678229738708239 -0.7287131137152417 0.8460158387941689 -0.3862239177995155 1.1944846493320977 -0.03428411799385063 -1.6394852709501893 0.8059505953421667 0.04456904485962647 -0.16363528959687945 0.05927704049376244 0.48400297102321804 -0.9815397148668128 0.45776820569640514 0.4010383571045287 -0.181489544169481 0.08396245905558443 -0.4619796726745914 -0.07993996815975266 -2.5012951393538208 -2.8097452434069674 0.2099817380719029 -0.927458359641377 1.0727562843816494 1.500959631936744 1.91097782394238 -1.7079815160493745 -0.20067614440026083 0.7868382999927481 -0.46518660964766334 0.0955517065550806 0.275746443172538 0.9599018248820629 0.5773808098554315 -0.48345172650543833 0.618392990601735 0.15834987282822405 0.7923458600745387 -0.03703725525895557 0.5026884632478633 0.5514273232144632 0.7915596167278175 0.4261878597869628 0.16023731965892402 0.25890597457643155 0.8145375656802295 -0.9311278380731642 -0.4088192866015282 0.6881166803501181 -0.5709563943863264 0.056610035184560564 0.520049323123814 0.04760500347247285 -1.3428380730692422 -0.46136080814367 0.11432924427289987 0.3589596827669237 -0.4088596529211604 -0.34146024043057965 -0.8713322060717702 -0.45438129150204326 0.009820328524531475 -0.7028763551577959 -1.156771193941724 -0.8102898461474691 0.23162914113834945 0.8826612579313444 0.4322309806572492 0.13761675404593074 0.6552016747896522 1.5280413186448845 -0.246422240287124 0.46401984303307187 -0.047431711119402184 -0.5685572980265305 -0.9745491424815927 0.25563604557590813 -0.41980252508590926 -0.17639078949033493 -0.2887593104924382 -0.10586131601120477 -0.5361688543934959 -1.1007514840429946 -0.9247108788032269 0.9461703342285834 -0.9857007882230379 0.37477890918736745 -0.7434529910285776 -0.06554924665571937 0.24999555946067914 0.038361116276701676 0.2356773430657941 0.6175864355400396 -0.0414127586188319 0.700211406731123 0.04254738644390737 0.5740406897386049 -1.6208969664250408 1.4011851455495674 1.5384679132948473 -0.3429098283929127 -0.31586182313618505 -0.05679515461217315 0.3754486815608824 -0.4343282295059101 0.03201280546117067 -0.04112299529255498 -1.2851797991258254 -0.36996554695912415 0.31915386362389553 0.01573952222244386 -0.29860226472478896