An instance of this daemon is already running

     Program PWSCF v.7.1 starts on 10May2023 at 14:31: 1 

     This program is part of the open-source Quantum ESPRESSO suite
     for quantum simulation of materials; please cite
         "P. Giannozzi et al., J. Phys.:Condens. Matter 21 395502 (2009);
         "P. Giannozzi et al., J. Phys.:Condens. Matter 29 465901 (2017);
         "P. Giannozzi et al., J. Chem. Phys. 152 154105 (2020);
          URL http://www.quantum-espresso.org", 
     in publications or presentations arising from this work. More details at
     http://www.quantum-espresso.org/quote

     Parallel version (MPI & OpenMP), running on       4 processor cores
     Number of MPI processes:                 4
     Threads/MPI process:                     1

     MPI processes distributed on     1 nodes
     752721 MiB available memory on the printing compute node when the environment starts
 
     Reading input from pw-si-87.in
Warning: card &CELL ignored
Warning: card / ignored

     Current dimensions of program PWSCF are:
     Max number of different atomic species (ntypx) = 10
     Max number of k-points (npk) =  40000
     Max angular momentum in pseudopotentials (lmaxx) =  4

     IMPORTANT: XC functional enforced from input :
     Exchange-correlation= PBE
                           (   1   4   3   4   0   0   0)
     Any further DFT definition will be discarded
     Please, verify this is what you really want


     gamma-point specific algorithms are used
 
     K-points division:     npool     =       2
     R & G space division:  proc/nbgrp/npool/nimage =       2
     Subspace diagonalization in iterative solution of the eigenvalue problem:
     a serial algorithm will be used

     Message from routine divide_et_impera:
     suboptimal parallelization: some nodes have no k-points
 
     Parallelization info
     --------------------
     sticks:   dense  smooth     PW     G-vecs:    dense   smooth      PW
     Min        2411    2411    631               125861   125861   16939
     Max        2414    2414    634               125866   125866   16942
     Sum        4825    4825   1265               251727   251727   33881
 
     Using Slab Decomposition
 


     bravais-lattice index     =            0
     lattice parameter (alat)  =      22.4578  a.u.
     unit-cell volume          =   11326.5945 (a.u.)^3
     number of atoms/cell      =           64
     number of atomic types    =            1
     number of electrons       =       256.00
     number of Kohn-Sham states=          154
     kinetic-energy cutoff     =      30.0000  Ry
     charge density cutoff     =     120.0000  Ry
     scf convergence threshold =      1.0E-06
     mixing beta               =       0.5000
     number of iterations used =            8  plain     mixing
     Exchange-correlation= PBE
                           (   1   4   3   4   0   0   0)

     GPU acceleration is ACTIVE.
     GPU-aware MPI enabled

     Message from routine print_cuda_info:
     High GPU oversubscription detected. Are you sure this is what you want?

     celldm(1)=  22.457761  celldm(2)=   0.000000  celldm(3)=   0.000000
     celldm(4)=   0.000000  celldm(5)=   0.000000  celldm(6)=   0.000000

     crystal axes: (cart. coord. in units of alat)
               a(1) = (   1.000000   0.000000   0.000000 )  
               a(2) = (   0.000000   1.000000   0.000000 )  
               a(3) = (   0.000000   0.000000   1.000000 )  

     reciprocal axes: (cart. coord. in units 2 pi/alat)
               b(1) = (  1.000000  0.000000  0.000000 )  
               b(2) = (  0.000000  1.000000  0.000000 )  
               b(3) = (  0.000000  0.000000  1.000000 )  


     PseudoPot. # 1 for Si read from file:
     /home/ppiaggi/pseudos/Si_ONCV_PBE_sr.upf
     MD5 check sum: 8553c464762ac42b85b1eed164b4d029
     Pseudo is Norm-conserving, Zval =  4.0
     Generated using ONCVPSP code by D. R. Hamann
     Using radial grid of 1510 points,  4 beta functions with: 
                l(1) =   0
                l(2) =   0
                l(3) =   1
                l(4) =   1

     atomic species   valence    mass     pseudopotential
        Si             4.00    28.08500     Si( 1.00)

     No symmetry found



   Cartesian axes

     site n.     atom                  positions (alat units)
         1           Si  tau(   1) = (   0.7718050   0.1046620   0.7684150  )
         2           Si  tau(   2) = (   0.8982920   0.8202140   0.3170160  )
         3           Si  tau(   3) = (   0.0332447   0.9242920   0.4195860  )
         4           Si  tau(   4) = (   0.9104760   0.4567050   0.3721940  )
         5           Si  tau(   5) = (   0.1886510   0.9683330   0.2698290  )
         6           Si  tau(   6) = (   0.6958070   0.9414640   0.0762246  )
         7           Si  tau(   7) = (   0.4136260   0.6803070   0.2198930  )
         8           Si  tau(   8) = (   0.4294220   0.3394070   0.8401870  )
         9           Si  tau(   9) = (   0.0210388   0.8194940   0.8632570  )
        10           Si  tau(  10) = (   0.8756260   0.9381710   0.8232610  )
        11           Si  tau(  11) = (   0.9343700   0.6530660   0.5937190  )
        12           Si  tau(  12) = (   0.7295100   0.5142280   0.3373300  )
        13           Si  tau(  13) = (   0.8161900   0.1068580   0.3766010  )
        14           Si  tau(  14) = (   0.7550010   0.2727710   0.8572010  )
        15           Si  tau(  15) = (   0.7786500   0.4747950   0.7423970  )
        16           Si  tau(  16) = (   0.3621650   0.1513530   0.4947770  )
        17           Si  tau(  17) = (   0.4646930   0.0032642   0.4142250  )
        18           Si  tau(  18) = (   0.6473320   0.4711330   0.1705320  )
        19           Si  tau(  19) = (   0.2870450   0.0437483   0.7567410  )
        20           Si  tau(  20) = (   0.4545100   0.7764050   0.9918120  )
        21           Si  tau(  21) = (   0.5521570   0.0969078   0.5745590  )
        22           Si  tau(  22) = (   0.1847920   0.9228660   0.9041890  )
        23           Si  tau(  23) = (   0.3007800   0.6764520   0.0639677  )
        24           Si  tau(  24) = (   0.1765920   0.2191250   0.4637360  )
        25           Si  tau(  25) = (   0.3013590   0.1965550   0.1276220  )
        26           Si  tau(  26) = (   0.9615960   0.5551020   0.7689310  )
        27           Si  tau(  27) = (   0.1483950   0.0469744   0.0827311  )
        28           Si  tau(  28) = (   0.5893990   0.7547980   0.1547490  )
        29           Si  tau(  29) = (   0.6981950   0.9389910   0.3843060  )
        30           Si  tau(  30) = (   0.6803770   0.9133990   0.8841840  )
        31           Si  tau(  31) = (   0.5853200   0.3117870   0.9652050  )
        32           Si  tau(  32) = (   0.2887370   0.2546050   0.3136360  )
        33           Si  tau(  33) = (   0.4264190   0.1823690   0.6971330  )
        34           Si  tau(  34) = (   0.8280900   0.9682820   0.2141000  )
        35           Si  tau(  35) = (   0.9051410   0.4076970   0.9166440  )
        36           Si  tau(  36) = (   0.5524050   0.4904090   0.9495540  )
        37           Si  tau(  37) = (   0.8204310   0.0554906   0.9547780  )
        38           Si  tau(  38) = (   0.4820740   0.9158530   0.8466550  )
        39           Si  tau(  39) = (   0.9051740   0.4610700   0.5872420  )
        40           Si  tau(  40) = (   0.9783490   0.3105850   0.2501510  )
        41           Si  tau(  41) = (   0.3678460   0.8939550   0.2615640  )
        42           Si  tau(  42) = (   0.7512010   0.2401950   0.2495060  )
        43           Si  tau(  43) = (   0.2317220   0.3489870   0.7904950  )
        44           Si  tau(  44) = (   0.2635800   0.3457570   0.9821450  )
        45           Si  tau(  45) = (   0.3075470   0.3925660   0.1701510  )
        46           Si  tau(  46) = (   0.0246523   0.8222960   0.5748620  )
        47           Si  tau(  47) = (   0.7421280   0.5203110   0.9926600  )
        48           Si  tau(  48) = (   0.1179530   0.3509360   0.5959540  )
        49           Si  tau(  49) = (   0.0244295   0.1091770   0.3304300  )
        50           Si  tau(  50) = (   0.5490270   0.6016460   0.3164980  )
        51           Si  tau(  51) = (   0.1008700   0.4674990   0.8859560  )
        52           Si  tau(  52) = (   0.8383950   0.3747870   0.1072810  )
        53           Si  tau(  53) = (   0.3683310   0.0740690   0.2822210  )
        54           Si  tau(  54) = (   0.2835550   0.7579700   0.8729740  )
        55           Si  tau(  55) = (   0.9851310   0.3212440   0.4515230  )
        56           Si  tau(  56) = (   0.2224880   0.1892570   0.6475090  )
        57           Si  tau(  57) = (   0.6937910   0.7507170   0.3179820  )
        58           Si  tau(  58) = (   0.6039660   0.0269285   0.7387110  )
        59           Si  tau(  59) = (   0.1620000   0.8399950   0.7400800  )
        60           Si  tau(  60) = (   0.8298100   0.6438570   0.4290650  )
        61           Si  tau(  61) = (   0.1177470   0.6542570   0.8063720  )
        62           Si  tau(  62) = (   0.8543560   0.8570920   0.5017840  )
        63           Si  tau(  63) = (   0.7317650   0.2120790   0.0597944  )
        64           Si  tau(  64) = (   0.4267020   0.5233520   0.1031060  )

     number of k points=     1  Fermi-Dirac smearing, width (Ry)=  0.0100
                       cart. coord. in units 2pi/alat
        k(    1) = (   0.0000000   0.0000000   0.0000000), wk =   2.0000000

     Dense  grid:   125864 G-vectors     FFT dimensions: (  80,  80,  80)

     Estimated max dynamical RAM per process >     200.47 MB

     Estimated total dynamical RAM >     771.14 MB

     Initial potential from superposition of free atoms

     starting charge     255.9608, renormalised to     256.0000
     Starting wfcs are  256 randomized atomic wfcs

     total cpu time spent up to now is        5.2 secs

     Self-consistent Calculation

     iteration #  1     ecut=    30.00 Ry     beta= 0.50
     Davidson diagonalization with overlap
     ethr =  1.00E-02,  avg # of iterations =  3.0

     Threshold (ethr) on eigenvalues was too large:
     Diagonalizing with lowered threshold

     Davidson diagonalization with overlap
     ethr =  8.38E-04,  avg # of iterations =  4.0

     total cpu time spent up to now is        5.5 secs

     total energy              =    -499.58767484 Ry
     estimated scf accuracy    <       2.80654568 Ry

     iteration #  2     ecut=    30.00 Ry     beta= 0.50
     Davidson diagonalization with overlap
     ethr =  1.10E-03,  avg # of iterations =  4.0

     total cpu time spent up to now is        5.6 secs

     total energy              =    -499.13732580 Ry
     estimated scf accuracy    <       5.49608240 Ry

     iteration #  3     ecut=    30.00 Ry     beta= 0.50
     Davidson diagonalization with overlap
     ethr =  1.10E-03,  avg # of iterations =  4.0

     total cpu time spent up to now is        5.8 secs

     total energy              =    -499.55568818 Ry
     estimated scf accuracy    <       9.58836671 Ry

     iteration #  4     ecut=    30.00 Ry     beta= 0.50
     Davidson diagonalization with overlap
     ethr =  1.10E-03,  avg # of iterations =  2.0

     total cpu time spent up to now is        5.9 secs

     total energy              =    -500.16412443 Ry
     estimated scf accuracy    <       0.95163153 Ry

     iteration #  5     ecut=    30.00 Ry     beta= 0.50
     Davidson diagonalization with overlap
     ethr =  3.72E-04,  avg # of iterations =  3.0

     total cpu time spent up to now is        6.0 secs

     total energy              =    -500.25308187 Ry
     estimated scf accuracy    <       0.62113847 Ry

     iteration #  6     ecut=    30.00 Ry     beta= 0.50
     Davidson diagonalization with overlap
     ethr =  2.43E-04,  avg # of iterations =  2.0

     total cpu time spent up to now is        6.2 secs

     total energy              =    -500.30704089 Ry
     estimated scf accuracy    <       0.11326827 Ry

     iteration #  7     ecut=    30.00 Ry     beta= 0.50
     Davidson diagonalization with overlap
     ethr =  4.42E-05,  avg # of iterations =  3.0

     total cpu time spent up to now is        6.3 secs

     total energy              =    -500.31388661 Ry
     estimated scf accuracy    <       0.11021157 Ry

     iteration #  8     ecut=    30.00 Ry     beta= 0.50
     Davidson diagonalization with overlap
     ethr =  4.31E-05,  avg # of iterations =  2.0

     total cpu time spent up to now is        6.4 secs

     total energy              =    -500.32248565 Ry
     estimated scf accuracy    <       0.03139240 Ry

     iteration #  9     ecut=    30.00 Ry     beta= 0.50
     Davidson diagonalization with overlap
     c_bands:  1 eigenvalues not converged
     ethr =  1.23E-05,  avg # of iterations = 20.0

     total cpu time spent up to now is        6.6 secs

     total energy              =    -500.32512666 Ry
     estimated scf accuracy    <       0.01555069 Ry

     iteration # 10     ecut=    30.00 Ry     beta= 0.50
     Davidson diagonalization with overlap
     ethr =  6.07E-06,  avg # of iterations =  3.0

     total cpu time spent up to now is        6.8 secs

     total energy              =    -500.32654022 Ry
     estimated scf accuracy    <       0.00372314 Ry

     iteration # 11     ecut=    30.00 Ry     beta= 0.50
     Davidson diagonalization with overlap
     ethr =  1.45E-06,  avg # of iterations =  7.0

     total cpu time spent up to now is        6.9 secs

     total energy              =    -500.32695061 Ry
     estimated scf accuracy    <       0.00098816 Ry

     iteration # 12     ecut=    30.00 Ry     beta= 0.50
     Davidson diagonalization with overlap
     ethr =  3.86E-07,  avg # of iterations =  5.0

     total cpu time spent up to now is        7.1 secs

     total energy              =    -500.32698884 Ry
     estimated scf accuracy    <       0.00178922 Ry

     iteration # 13     ecut=    30.00 Ry     beta= 0.50
     Davidson diagonalization with overlap
     ethr =  3.86E-07,  avg # of iterations =  2.0

     total cpu time spent up to now is        7.2 secs

     total energy              =    -500.32712109 Ry
     estimated scf accuracy    <       0.00018261 Ry

     iteration # 14     ecut=    30.00 Ry     beta= 0.50
     Davidson diagonalization with overlap
     ethr =  7.13E-08,  avg # of iterations =  4.0

     total cpu time spent up to now is        7.3 secs

     total energy              =    -500.32713858 Ry
     estimated scf accuracy    <       0.00015169 Ry

     iteration # 15     ecut=    30.00 Ry     beta= 0.50
     Davidson diagonalization with overlap
     ethr =  5.93E-08,  avg # of iterations =  2.0

     total cpu time spent up to now is        7.5 secs

     total energy              =    -500.32714927 Ry
     estimated scf accuracy    <       0.00014985 Ry

     iteration # 16     ecut=    30.00 Ry     beta= 0.50
     Davidson diagonalization with overlap
     ethr =  5.85E-08,  avg # of iterations =  1.0

     total cpu time spent up to now is        7.6 secs

     total energy              =    -500.32715835 Ry
     estimated scf accuracy    <       0.00001029 Ry

     iteration # 17     ecut=    30.00 Ry     beta= 0.50
     Davidson diagonalization with overlap
     ethr =  4.02E-09,  avg # of iterations =  5.0

     total cpu time spent up to now is        7.8 secs

     total energy              =    -500.32715692 Ry
     estimated scf accuracy    <       0.00007434 Ry

     iteration # 18     ecut=    30.00 Ry     beta= 0.50
     Davidson diagonalization with overlap
     ethr =  4.02E-09,  avg # of iterations =  3.0

     total cpu time spent up to now is        7.9 secs

     total energy              =    -500.32716167 Ry
     estimated scf accuracy    <       0.00000367 Ry

     iteration # 19     ecut=    30.00 Ry     beta= 0.50
     Davidson diagonalization with overlap
     ethr =  1.43E-09,  avg # of iterations =  3.0

     total cpu time spent up to now is        8.0 secs

     total energy              =    -500.32716207 Ry
     estimated scf accuracy    <       0.00000263 Ry

     iteration # 20     ecut=    30.00 Ry     beta= 0.50
     Davidson diagonalization with overlap
     ethr =  1.03E-09,  avg # of iterations =  2.0

     total cpu time spent up to now is        8.1 secs

     total energy              =    -500.32716225 Ry
     estimated scf accuracy    <       0.00000172 Ry

     iteration # 21     ecut=    30.00 Ry     beta= 0.50
     Davidson diagonalization with overlap
     ethr =  6.73E-10,  avg # of iterations =  2.0

     total cpu time spent up to now is        8.3 secs

     End of self-consistent calculation

          k = 0.0000 0.0000 0.0000 ( 15720 PWs)   bands (ev):

    -9.1387  -8.8273  -8.7749  -8.6913  -8.4768  -8.4069  -8.0412  -7.8896
    -7.7953  -7.5162  -7.2816  -7.1384  -7.0336  -6.6941  -6.5795  -6.4241
    -6.3841  -6.1929  -6.0825  -5.9006  -5.7987  -5.6381  -5.3658  -5.2935
    -5.0295  -5.0014  -4.8085  -4.6956  -4.6251  -4.5286  -4.3710  -4.1845
    -4.1501  -4.0123  -3.9380  -3.8345  -3.7077  -3.6660  -3.4711  -3.4084
    -3.2118  -3.0350  -2.9324  -2.7850  -2.6733  -2.5671  -2.4791  -2.2880
    -2.2532  -2.1262  -2.0155  -1.8466  -1.7198  -1.5991  -1.5222  -1.4760
    -1.3831  -1.1307  -1.0351  -0.9406  -0.8193  -0.8027  -0.7061  -0.6518
    -0.6096  -0.4986  -0.4524  -0.3622  -0.2857  -0.1925  -0.1605  -0.0850
     0.0606   0.1217   0.1687   0.2218   0.2892   0.4724   0.4901   0.5452
     0.6268   0.6903   0.7629   0.9027   0.9697   1.0039   1.0772   1.1178
     1.1882   1.3206   1.3874   1.4328   1.4593   1.5474   1.5505   1.6456
     1.6780   1.7485   1.9085   1.9207   1.9284   1.9984   2.1211   2.1472
     2.2475   2.2987   2.3914   2.4813   2.5128   2.5861   2.6528   2.7107
     2.8114   2.8467   2.9257   2.9890   3.0705   3.1246   3.2240   3.2874
     3.3303   3.3771   3.4512   3.5237   3.5861   3.6591   3.7019   3.7824
     3.8347   3.9195   3.9611   4.0323   4.0952   4.1009   4.1419   4.2745
     4.3194   4.4740   4.4770   4.5148   4.5302   4.5773   4.6299   4.7113
     4.7853   4.9144   4.9394   4.9828   5.1486   5.1727   5.2006   5.2296
     5.3456   5.3753

     the Fermi energy is     3.8042 ev

!    total energy              =    -500.32716213 Ry
     estimated scf accuracy    <       0.00000037 Ry
     smearing contrib. (-TS)   =      -0.14447927 Ry
     internal energy E=F+TS    =    -500.18268286 Ry

     The total energy is F=E-TS. E is the sum of the following terms:
     one-electron contribution =    -183.04751134 Ry
     hartree contribution      =     177.47782878 Ry
     xc contribution           =    -152.03295183 Ry
     ewald contribution        =    -342.58004847 Ry

     convergence has been achieved in  21 iterations

     Forces acting on atoms (cartesian axes, Ry/au):

     atom    1 type  1   force =     0.02286163    0.00095400   -0.04267220
     atom    2 type  1   force =     0.01918147   -0.04079091   -0.04174550
     atom    3 type  1   force =     0.04696449    0.02033069   -0.04699310
     atom    4 type  1   force =    -0.04947253    0.10837998   -0.07867062
     atom    5 type  1   force =    -0.03883680   -0.00482747   -0.01502501
     atom    6 type  1   force =    -0.03952861   -0.00459105    0.02255382
     atom    7 type  1   force =    -0.05651771    0.07802053    0.03587050
     atom    8 type  1   force =     0.00817100    0.00077166    0.00073436
     atom    9 type  1   force =    -0.02660004   -0.01371934    0.06971851
     atom   10 type  1   force =    -0.00928243   -0.03039284   -0.04602591
     atom   11 type  1   force =     0.00399452    0.01094859    0.01045636
     atom   12 type  1   force =    -0.02384035   -0.04424772    0.03098730
     atom   13 type  1   force =     0.02140369   -0.00730851   -0.00172618
     atom   14 type  1   force =     0.00458054    0.07193994   -0.02269352
     atom   15 type  1   force =    -0.01107104   -0.03454566    0.01870973
     atom   16 type  1   force =     0.03037036    0.00837490    0.00084496
     atom   17 type  1   force =     0.08860567   -0.08093897    0.07189125
     atom   18 type  1   force =    -0.00461709   -0.00723309   -0.02406773
     atom   19 type  1   force =    -0.00679191   -0.04830469    0.02546106
     atom   20 type  1   force =     0.05141882    0.00908057    0.00474024
     atom   21 type  1   force =     0.00918523    0.01960963   -0.07393302
     atom   22 type  1   force =     0.00777411    0.09237748    0.10599911
     atom   23 type  1   force =    -0.04854106   -0.01609904   -0.02007938
     atom   24 type  1   force =    -0.07392475   -0.01245751   -0.05954886
     atom   25 type  1   force =    -0.01430346   -0.05851421   -0.05316075
     atom   26 type  1   force =    -0.04925853   -0.01309347   -0.03534240
     atom   27 type  1   force =     0.00996200    0.00961165    0.00867405
     atom   28 type  1   force =     0.00458867    0.02799812   -0.04707537
     atom   29 type  1   force =    -0.00447696    0.01545757    0.02209519
     atom   30 type  1   force =     0.03960039   -0.04069968   -0.00112543
     atom   31 type  1   force =     0.02242756   -0.10124744   -0.00262864
     atom   32 type  1   force =     0.01265424    0.05050239    0.00179304
     atom   33 type  1   force =     0.01288727    0.00679582    0.03668570
     atom   34 type  1   force =     0.00497734    0.03720678    0.01322171
     atom   35 type  1   force =    -0.00652945   -0.01006537    0.00412251
     atom   36 type  1   force =    -0.04085059    0.07921222   -0.02785842
     atom   37 type  1   force =    -0.00277813    0.04913450    0.09275935
     atom   38 type  1   force =    -0.04225897   -0.00223844    0.00233360
     atom   39 type  1   force =     0.00709032   -0.04109460   -0.00220593
     atom   40 type  1   force =    -0.02008006   -0.01073167   -0.04304391
     atom   41 type  1   force =     0.01866189   -0.12648842   -0.00026793
     atom   42 type  1   force =    -0.00065880    0.03070982    0.00871071
     atom   43 type  1   force =    -0.03241492   -0.00712374   -0.04971042
     atom   44 type  1   force =    -0.00295209   -0.01406008    0.02326859
     atom   45 type  1   force =    -0.03789027   -0.00759463    0.04490557
     atom   46 type  1   force =     0.08889055    0.00060299    0.07441558
     atom   47 type  1   force =     0.01406187    0.03560466   -0.00679777
     atom   48 type  1   force =    -0.00308027    0.06051277    0.02910533
     atom   49 type  1   force =     0.00592654    0.01127196    0.01018611
     atom   50 type  1   force =     0.03423943   -0.02468304    0.03508127
     atom   51 type  1   force =     0.02948978   -0.02084186    0.02902825
     atom   52 type  1   force =     0.03575069   -0.00704658    0.01375622
     atom   53 type  1   force =    -0.03001377    0.13716616   -0.08765665
     atom   54 type  1   force =     0.03361007   -0.02857900    0.00821778
     atom   55 type  1   force =     0.03159617   -0.13667162    0.09490107
     atom   56 type  1   force =    -0.00467062   -0.01176115    0.05760091
     atom   57 type  1   force =    -0.00331452   -0.00463078    0.00232641
     atom   58 type  1   force =    -0.05414462   -0.01096975    0.00536564
     atom   59 type  1   force =     0.00469900    0.01791627   -0.19554377
     atom   60 type  1   force =     0.04289641    0.04991593    0.00555578
     atom   61 type  1   force =     0.03590272    0.00104860    0.01700565
     atom   62 type  1   force =    -0.09258424    0.03016703    0.02771384
     atom   63 type  1   force =    -0.00854464   -0.03548836    0.00100149
     atom   64 type  1   force =     0.03540481   -0.01254252   -0.04220008

     Total force =     0.605692     Total SCF correction =     0.001024


     Computing stress (Cartesian axis) and pressure

          total   stress  (Ry/bohr**3)                   (kbar)     P=       34.83
   0.00017071  -0.00005146   0.00006838           25.11       -7.57       10.06
  -0.00005146   0.00024402  -0.00003206           -7.57       35.90       -4.72
   0.00006838  -0.00003206   0.00029551           10.06       -4.72       43.47

 
     init_run     :      1.14s CPU      5.10s WALL (       1 calls)
     electrons    :      2.88s CPU      3.08s WALL (       1 calls)
     forces       :      0.05s CPU      0.05s WALL (       1 calls)
     stress       :      0.21s CPU      0.21s WALL (       1 calls)

     Called by init_run:
     wfcinit      :      0.57s CPU      4.34s WALL (       1 calls)
                                        4.34s GPU  (       1 calls)
     potinit      :      0.07s CPU      0.16s WALL (       1 calls)
     hinit0       :      0.47s CPU      0.50s WALL (       1 calls)

     Called by electrons:
     c_bands      :      1.53s CPU      1.61s WALL (      22 calls)
     sum_band     :      0.63s CPU      0.70s WALL (      22 calls)
     v_of_rho     :      0.32s CPU      0.43s WALL (      22 calls)
     mix_rho      :      0.32s CPU      0.34s WALL (      22 calls)

     Called by c_bands:
     init_us_2    :      0.08s CPU      0.09s WALL (      45 calls)
     init_us_2:gp :      0.08s CPU      0.08s WALL (      45 calls)
     regterg      :      1.33s CPU      1.40s WALL (      22 calls)

     Called by *egterg:
     rdiaghg      :      0.48s CPU      1.26s WALL (     107 calls)
                                        1.24s GPU  (     107 calls)
     h_psi        :      1.18s CPU      4.22s WALL (     109 calls)
                                        4.22s GPU  (     109 calls)
     g_psi        :      0.00s CPU      0.01s WALL (      86 calls)
                                        0.00s GPU  (      86 calls)

     Called by h_psi:
     h_psi:calbec :      0.54s CPU      3.47s WALL (     109 calls)
                                        3.47s GPU  (     109 calls)
     vloc_psi     :      0.57s CPU      0.67s WALL (     109 calls)
                                        0.66s GPU  (     109 calls)
     add_vuspsi   :      0.04s CPU      0.07s WALL (     109 calls)
                                        0.07s GPU  (     109 calls)

     General routines
     calbec       :      0.55s CPU      3.48s WALL (     114 calls)
     fft          :      0.80s CPU      0.94s WALL (     183 calls)
                                        0.14s GPU  (     116 calls)
     ffts         :      0.12s CPU      0.13s WALL (      22 calls)
     fftw         :      0.65s CPU      0.85s WALL (    2326 calls)
                                        0.73s GPU  (    2326 calls)
 
     Parallel routines
 
     PWSCF        :      4.32s CPU      8.54s WALL

 
   This run was terminated on:  14:31:10  10May2023            

=------------------------------------------------------------------------------=
   JOB DONE.
=------------------------------------------------------------------------------=
