An instance of this daemon is already running
An instance of this daemon is already running

     Program PWSCF v.7.1 starts on 10May2023 at 14:31:57 

     This program is part of the open-source Quantum ESPRESSO suite
     for quantum simulation of materials; please cite
         "P. Giannozzi et al., J. Phys.:Condens. Matter 21 395502 (2009);
         "P. Giannozzi et al., J. Phys.:Condens. Matter 29 465901 (2017);
         "P. Giannozzi et al., J. Chem. Phys. 152 154105 (2020);
          URL http://www.quantum-espresso.org", 
     in publications or presentations arising from this work. More details at
     http://www.quantum-espresso.org/quote

     Parallel version (MPI & OpenMP), running on       4 processor cores
     Number of MPI processes:                 4
     Threads/MPI process:                     1

     MPI processes distributed on     1 nodes
     752775 MiB available memory on the printing compute node when the environment starts
 
     Reading input from pw-si-92.in
Warning: card &CELL ignored
Warning: card / ignored

     Current dimensions of program PWSCF are:
     Max number of different atomic species (ntypx) = 10
     Max number of k-points (npk) =  40000
     Max angular momentum in pseudopotentials (lmaxx) =  4

     IMPORTANT: XC functional enforced from input :
     Exchange-correlation= PBE
                           (   1   4   3   4   0   0   0)
     Any further DFT definition will be discarded
     Please, verify this is what you really want


     gamma-point specific algorithms are used
 
     K-points division:     npool     =       2
     R & G space division:  proc/nbgrp/npool/nimage =       2
     Subspace diagonalization in iterative solution of the eigenvalue problem:
     a serial algorithm will be used

     Message from routine divide_et_impera:
     suboptimal parallelization: some nodes have no k-points
 
     Parallelization info
     --------------------
     sticks:   dense  smooth     PW     G-vecs:    dense   smooth      PW
     Min        2424    2424    640               126940   126940   17132
     Max        2425    2425    641               126947   126947   17133
     Sum        4849    4849   1281               253887   253887   34265
 
     Using Slab Decomposition
 


     bravais-lattice index     =            0
     lattice parameter (alat)  =      22.5268  a.u.
     unit-cell volume          =   11431.4223 (a.u.)^3
     number of atoms/cell      =           64
     number of atomic types    =            1
     number of electrons       =       256.00
     number of Kohn-Sham states=          154
     kinetic-energy cutoff     =      30.0000  Ry
     charge density cutoff     =     120.0000  Ry
     scf convergence threshold =      1.0E-06
     mixing beta               =       0.5000
     number of iterations used =            8  plain     mixing
     Exchange-correlation= PBE
                           (   1   4   3   4   0   0   0)

     GPU acceleration is ACTIVE.
     GPU-aware MPI enabled

     Message from routine print_cuda_info:
     High GPU oversubscription detected. Are you sure this is what you want?

     celldm(1)=  22.526830  celldm(2)=   0.000000  celldm(3)=   0.000000
     celldm(4)=   0.000000  celldm(5)=   0.000000  celldm(6)=   0.000000

     crystal axes: (cart. coord. in units of alat)
               a(1) = (   1.000000   0.000000   0.000000 )  
               a(2) = (   0.000000   1.000000   0.000000 )  
               a(3) = (   0.000000   0.000000   1.000000 )  

     reciprocal axes: (cart. coord. in units 2 pi/alat)
               b(1) = (  1.000000  0.000000  0.000000 )  
               b(2) = (  0.000000  1.000000  0.000000 )  
               b(3) = (  0.000000  0.000000  1.000000 )  


     PseudoPot. # 1 for Si read from file:
     /home/ppiaggi/pseudos/Si_ONCV_PBE_sr.upf
     MD5 check sum: 8553c464762ac42b85b1eed164b4d029
     Pseudo is Norm-conserving, Zval =  4.0
     Generated using ONCVPSP code by D. R. Hamann
     Using radial grid of 1510 points,  4 beta functions with: 
                l(1) =   0
                l(2) =   0
                l(3) =   1
                l(4) =   1

     atomic species   valence    mass     pseudopotential
        Si             4.00    28.08500     Si( 1.00)

     No symmetry found



   Cartesian axes

     site n.     atom                  positions (alat units)
         1           Si  tau(   1) = (   0.7711940   0.0999923   0.7705410  )
         2           Si  tau(   2) = (   0.9012650   0.8001940   0.2922850  )
         3           Si  tau(   3) = (   0.0571317   0.9096770   0.4054140  )
         4           Si  tau(   4) = (   0.9061220   0.4773920   0.3606950  )
         5           Si  tau(   5) = (   0.2078590   0.9643270   0.2964260  )
         6           Si  tau(   6) = (   0.7063250   0.9209520   0.0965047  )
         7           Si  tau(   7) = (   0.3922400   0.6940740   0.1935900  )
         8           Si  tau(   8) = (   0.4260550   0.3658390   0.8309500  )
         9           Si  tau(   9) = (   0.0186659   0.8212870   0.8830950  )
        10           Si  tau(  10) = (   0.8532630   0.9154400   0.8149810  )
        11           Si  tau(  11) = (   0.9342670   0.6442070   0.5802520  )
        12           Si  tau(  12) = (   0.7082290   0.5046870   0.3328580  )
        13           Si  tau(  13) = (   0.7972070   0.1150940   0.3702280  )
        14           Si  tau(  14) = (   0.7184060   0.2824690   0.8335420  )
        15           Si  tau(  15) = (   0.8118040   0.4050880   0.7301790  )
        16           Si  tau(  16) = (   0.3562640   0.1340890   0.4977070  )
        17           Si  tau(  17) = (   0.4793920   0.9805740   0.4245700  )
        18           Si  tau(  18) = (   0.6195200   0.4888100   0.1351390  )
        19           Si  tau(  19) = (   0.2870040   0.0883061   0.8542790  )
        20           Si  tau(  20) = (   0.4547020   0.7905780   0.9923230  )
        21           Si  tau(  21) = (   0.5330050   0.1033750   0.5695390  )
        22           Si  tau(  22) = (   0.1750970   0.9272240   0.9122530  )
        23           Si  tau(  23) = (   0.3127820   0.6590510   0.0122437  )
        24           Si  tau(  24) = (   0.1833270   0.1737820   0.4714740  )
        25           Si  tau(  25) = (   0.2768580   0.1868850   0.1131560  )
        26           Si  tau(  26) = (   0.9748960   0.5715550   0.7431320  )
        27           Si  tau(  27) = (   0.2106930   0.0051945   0.0986047  )
        28           Si  tau(  28) = (   0.5646720   0.7839680   0.1627730  )
        29           Si  tau(  29) = (   0.6834970   0.9540260   0.4127080  )
        30           Si  tau(  30) = (   0.6631830   0.9397570   0.8909650  )
        31           Si  tau(  31) = (   0.5513940   0.2843210   0.9649280  )
        32           Si  tau(  32) = (   0.3070670   0.2633860   0.3386880  )
        33           Si  tau(  33) = (   0.4263230   0.1791940   0.7012910  )
        34           Si  tau(  34) = (   0.8139250   0.9702990   0.2605420  )
        35           Si  tau(  35) = (   0.8975120   0.4040820   0.9091020  )
        36           Si  tau(  36) = (   0.5521930   0.4959200   0.9284840  )
        37           Si  tau(  37) = (   0.8051440   0.0505743   0.9530520  )
        38           Si  tau(  38) = (   0.4355650   0.9517990   0.8740830  )
        39           Si  tau(  39) = (   0.9433330   0.4398220   0.5718800  )
        40           Si  tau(  40) = (   0.9529730   0.2974860   0.2445940  )
        41           Si  tau(  41) = (   0.4021330   0.8861020   0.2709830  )
        42           Si  tau(  42) = (   0.7871930   0.2376620   0.2236760  )
        43           Si  tau(  43) = (   0.2239460   0.3498200   0.7992750  )
        44           Si  tau(  44) = (   0.3140210   0.3268500   0.9715640  )
        45           Si  tau(  45) = (   0.2840060   0.3757070   0.1708210  )
        46           Si  tau(  46) = (   0.0238458   0.8394590   0.5897470  )
        47           Si  tau(  47) = (   0.7613530   0.5168630   0.9909130  )
        48           Si  tau(  48) = (   0.0912555   0.3682450   0.6759390  )
        49           Si  tau(  49) = (   0.0678723   0.0931080   0.3207480  )
        50           Si  tau(  50) = (   0.5574750   0.6330530   0.2731320  )
        51           Si  tau(  51) = (   0.0836406   0.4678380   0.8625590  )
        52           Si  tau(  52) = (   0.8308950   0.3789160   0.1117870  )
        53           Si  tau(  53) = (   0.3645450   0.0829268   0.2889350  )
        54           Si  tau(  54) = (   0.3127660   0.7975230   0.8468480  )
        55           Si  tau(  55) = (   0.0375949   0.3096140   0.4568620  )
        56           Si  tau(  56) = (   0.2357990   0.2200040   0.6577830  )
        57           Si  tau(  57) = (   0.6926270   0.7750170   0.3380300  )
        58           Si  tau(  58) = (   0.5647010   0.0292822   0.7317910  )
        59           Si  tau(  59) = (   0.1578100   0.8381020   0.7472180  )
        60           Si  tau(  60) = (   0.8369720   0.6496300   0.4160610  )
        61           Si  tau(  61) = (   0.1368450   0.6604820   0.8228710  )
        62           Si  tau(  62) = (   0.8483580   0.8382380   0.5105460  )
        63           Si  tau(  63) = (   0.7270360   0.2244560   0.0307279  )
        64           Si  tau(  64) = (   0.4191830   0.5152420   0.0800235  )

     number of k points=     1  Fermi-Dirac smearing, width (Ry)=  0.0100
                       cart. coord. in units 2pi/alat
        k(    1) = (   0.0000000   0.0000000   0.0000000), wk =   2.0000000

     Dense  grid:   126944 G-vectors     FFT dimensions: (  80,  80,  80)

     Estimated max dynamical RAM per process >     202.12 MB

     Estimated total dynamical RAM >     777.49 MB

     Initial potential from superposition of free atoms

     starting charge     255.9608, renormalised to     256.0000
     Starting wfcs are  256 randomized atomic wfcs

     total cpu time spent up to now is        5.1 secs

     Self-consistent Calculation

     iteration #  1     ecut=    30.00 Ry     beta= 0.50
     Davidson diagonalization with overlap
     ethr =  1.00E-02,  avg # of iterations =  3.0

     Threshold (ethr) on eigenvalues was too large:
     Diagonalizing with lowered threshold

     Davidson diagonalization with overlap
     ethr =  8.21E-04,  avg # of iterations =  4.0

     total cpu time spent up to now is        5.4 secs

     total energy              =    -499.59523082 Ry
     estimated scf accuracy    <       2.75400289 Ry

     iteration #  2     ecut=    30.00 Ry     beta= 0.50
     Davidson diagonalization with overlap
     ethr =  1.08E-03,  avg # of iterations =  3.0

     total cpu time spent up to now is        5.5 secs

     total energy              =    -499.15196219 Ry
     estimated scf accuracy    <       5.14838537 Ry

     iteration #  3     ecut=    30.00 Ry     beta= 0.50
     Davidson diagonalization with overlap
     ethr =  1.08E-03,  avg # of iterations =  5.0

     total cpu time spent up to now is        5.7 secs

     total energy              =    -499.50493766 Ry
     estimated scf accuracy    <      10.42706438 Ry

     iteration #  4     ecut=    30.00 Ry     beta= 0.50
     Davidson diagonalization with overlap
     ethr =  1.08E-03,  avg # of iterations =  2.0

     total cpu time spent up to now is        5.8 secs

     total energy              =    -500.15402073 Ry
     estimated scf accuracy    <       0.86188467 Ry

     iteration #  5     ecut=    30.00 Ry     beta= 0.50
     Davidson diagonalization with overlap
     ethr =  3.37E-04,  avg # of iterations =  3.0

     total cpu time spent up to now is        6.0 secs

     total energy              =    -500.24774196 Ry
     estimated scf accuracy    <       0.36664646 Ry

     iteration #  6     ecut=    30.00 Ry     beta= 0.50
     Davidson diagonalization with overlap
     ethr =  1.43E-04,  avg # of iterations =  3.0

     total cpu time spent up to now is        6.1 secs

     total energy              =    -500.26945400 Ry
     estimated scf accuracy    <       0.36982073 Ry

     iteration #  7     ecut=    30.00 Ry     beta= 0.50
     Davidson diagonalization with overlap
     ethr =  1.43E-04,  avg # of iterations =  2.0

     total cpu time spent up to now is        6.2 secs

     total energy              =    -500.29359957 Ry
     estimated scf accuracy    <       0.07361430 Ry

     iteration #  8     ecut=    30.00 Ry     beta= 0.50
     Davidson diagonalization with overlap
     ethr =  2.88E-05,  avg # of iterations = 12.0

     total cpu time spent up to now is        6.4 secs

     total energy              =    -500.30099922 Ry
     estimated scf accuracy    <       0.03707921 Ry

     iteration #  9     ecut=    30.00 Ry     beta= 0.50
     Davidson diagonalization with overlap
     ethr =  1.45E-05,  avg # of iterations =  2.0

     total cpu time spent up to now is        6.5 secs

     total energy              =    -500.30344326 Ry
     estimated scf accuracy    <       0.01402242 Ry

     iteration # 10     ecut=    30.00 Ry     beta= 0.50
     Davidson diagonalization with overlap
     ethr =  5.48E-06,  avg # of iterations =  6.0

     total cpu time spent up to now is        6.7 secs

     total energy              =    -500.30471026 Ry
     estimated scf accuracy    <       0.00789409 Ry

     iteration # 11     ecut=    30.00 Ry     beta= 0.50
     Davidson diagonalization with overlap
     ethr =  3.08E-06,  avg # of iterations =  2.0

     total cpu time spent up to now is        6.8 secs

     total energy              =    -500.30531349 Ry
     estimated scf accuracy    <       0.00118581 Ry

     iteration # 12     ecut=    30.00 Ry     beta= 0.50
     Davidson diagonalization with overlap
     ethr =  4.63E-07,  avg # of iterations =  9.0

     total cpu time spent up to now is        7.0 secs

     total energy              =    -500.30530936 Ry
     estimated scf accuracy    <       0.00396438 Ry

     iteration # 13     ecut=    30.00 Ry     beta= 0.50
     Davidson diagonalization with overlap
     ethr =  4.63E-07,  avg # of iterations =  3.0

     total cpu time spent up to now is        7.1 secs

     total energy              =    -500.30555684 Ry
     estimated scf accuracy    <       0.00013387 Ry

     iteration # 14     ecut=    30.00 Ry     beta= 0.50
     Davidson diagonalization with overlap
     ethr =  5.23E-08,  avg # of iterations =  5.0

     total cpu time spent up to now is        7.3 secs

     total energy              =    -500.30558028 Ry
     estimated scf accuracy    <       0.00022268 Ry

     iteration # 15     ecut=    30.00 Ry     beta= 0.50
     Davidson diagonalization with overlap
     ethr =  5.23E-08,  avg # of iterations =  3.0

     total cpu time spent up to now is        7.4 secs

     total energy              =    -500.30559312 Ry
     estimated scf accuracy    <       0.00013790 Ry

     iteration # 16     ecut=    30.00 Ry     beta= 0.50
     Davidson diagonalization with overlap
     ethr =  5.23E-08,  avg # of iterations =  1.0

     total cpu time spent up to now is        7.5 secs

     total energy              =    -500.30560195 Ry
     estimated scf accuracy    <       0.00001886 Ry

     iteration # 17     ecut=    30.00 Ry     beta= 0.50
     Davidson diagonalization with overlap
     ethr =  7.37E-09,  avg # of iterations =  4.0

     total cpu time spent up to now is        7.7 secs

     total energy              =    -500.30560087 Ry
     estimated scf accuracy    <       0.00006383 Ry

     iteration # 18     ecut=    30.00 Ry     beta= 0.50
     Davidson diagonalization with overlap
     ethr =  7.37E-09,  avg # of iterations =  3.0

     total cpu time spent up to now is        7.8 secs

     total energy              =    -500.30560517 Ry
     estimated scf accuracy    <       0.00000419 Ry

     iteration # 19     ecut=    30.00 Ry     beta= 0.50
     Davidson diagonalization with overlap
     ethr =  1.64E-09,  avg # of iterations =  3.0

     total cpu time spent up to now is        7.9 secs

     total energy              =    -500.30560550 Ry
     estimated scf accuracy    <       0.00000313 Ry

     iteration # 20     ecut=    30.00 Ry     beta= 0.50
     Davidson diagonalization with overlap
     ethr =  1.22E-09,  avg # of iterations =  3.0

     total cpu time spent up to now is        8.1 secs

     total energy              =    -500.30560568 Ry
     estimated scf accuracy    <       0.00000472 Ry

     iteration # 21     ecut=    30.00 Ry     beta= 0.50
     Davidson diagonalization with overlap
     ethr =  1.22E-09,  avg # of iterations =  2.0

     total cpu time spent up to now is        8.2 secs

     End of self-consistent calculation

          k = 0.0000 0.0000 0.0000 ( 15780 PWs)   bands (ev):

    -9.1742  -8.8337  -8.7349  -8.6786  -8.5242  -8.4282  -8.1724  -7.9421
    -7.7584  -7.5160  -7.4205  -7.1421  -7.0196  -6.8801  -6.7578  -6.5627
    -6.5046  -6.4051  -6.0362  -6.0209  -5.7321  -5.6183  -5.4681  -5.2777
    -5.1798  -5.0024  -4.9460  -4.8143  -4.7258  -4.5545  -4.4631  -4.4069
    -4.1974  -4.1444  -4.0482  -3.8422  -3.7009  -3.6475  -3.5025  -3.3166
    -3.1955  -3.1930  -3.0517  -3.0220  -2.7171  -2.5738  -2.4288  -2.2847
    -2.2438  -2.2328  -1.9517  -1.9127  -1.7410  -1.6947  -1.6296  -1.4788
    -1.4053  -1.2908  -1.1625  -1.0830  -1.0205  -0.9347  -0.8698  -0.8021
    -0.6655  -0.6247  -0.5815  -0.4191  -0.3152  -0.2660  -0.1700  -0.1335
     0.0240   0.0477   0.1604   0.1632   0.2823   0.3069   0.4715   0.4942
     0.5845   0.6566   0.7828   0.8692   0.8904   0.9204   0.9592   1.0481
     1.1451   1.2216   1.2343   1.2757   1.3241   1.3826   1.4791   1.5779
     1.6976   1.7684   1.8092   1.8999   1.9704   2.0180   2.1394   2.1558
     2.1981   2.2620   2.3380   2.3868   2.4090   2.5052   2.5297   2.7029
     2.7647   2.8365   2.8527   2.9339   3.0365   3.1323   3.1942   3.2324
     3.3068   3.3823   3.4360   3.5122   3.5240   3.5915   3.6628   3.7167
     3.7404   3.8122   3.8332   3.9416   4.0089   4.0853   4.1064   4.1522
     4.2502   4.3512   4.3861   4.4991   4.5144   4.5695   4.6006   4.6643
     4.7600   4.7938   4.8282   4.8739   4.9748   5.0225   5.0773   5.1672
     5.2306   5.2673

     the Fermi energy is     3.7352 ev

!    total energy              =    -500.30560559 Ry
     estimated scf accuracy    <       0.00000053 Ry
     smearing contrib. (-TS)   =      -0.15468697 Ry
     internal energy E=F+TS    =    -500.15091862 Ry

     The total energy is F=E-TS. E is the sum of the following terms:
     one-electron contribution =    -204.52525287 Ry
     hartree contribution      =     187.65729549 Ry
     xc contribution           =    -152.03183425 Ry
     ewald contribution        =    -331.25112700 Ry

     convergence has been achieved in  21 iterations

     Forces acting on atoms (cartesian axes, Ry/au):

     atom    1 type  1   force =    -0.03786862   -0.01095244   -0.04891263
     atom    2 type  1   force =     0.04255859    0.00212668    0.02552020
     atom    3 type  1   force =    -0.03435752   -0.01755257    0.00608691
     atom    4 type  1   force =     0.01557046   -0.06401015   -0.01846153
     atom    5 type  1   force =     0.04724772   -0.05410393   -0.04518734
     atom    6 type  1   force =    -0.00087635   -0.00226269   -0.00638877
     atom    7 type  1   force =    -0.06889986   -0.00420262    0.02087304
     atom    8 type  1   force =     0.04511071    0.00605419   -0.09253895
     atom    9 type  1   force =    -0.03195768   -0.02426752    0.03025746
     atom   10 type  1   force =    -0.00012792   -0.01716463   -0.01718832
     atom   11 type  1   force =     0.01507942    0.06460311   -0.02469021
     atom   12 type  1   force =     0.00037344   -0.00989969   -0.00281623
     atom   13 type  1   force =     0.00621303    0.03990087    0.07912478
     atom   14 type  1   force =    -0.04628996   -0.02324970    0.02917233
     atom   15 type  1   force =     0.03405848    0.04721546   -0.03963254
     atom   16 type  1   force =     0.09714299   -0.01796395    0.00556290
     atom   17 type  1   force =     0.00627333   -0.00527691   -0.01261810
     atom   18 type  1   force =     0.00923096   -0.00362719    0.02505457
     atom   19 type  1   force =     0.00326970    0.04015501   -0.00210849
     atom   20 type  1   force =     0.06102856   -0.00053522    0.03047915
     atom   21 type  1   force =     0.06928807    0.01958807   -0.08508660
     atom   22 type  1   force =     0.02104288    0.06896441    0.07565146
     atom   23 type  1   force =    -0.05717386    0.01655497   -0.02382341
     atom   24 type  1   force =    -0.11916531    0.01018704   -0.01905204
     atom   25 type  1   force =     0.01446753   -0.00735855   -0.01324419
     atom   26 type  1   force =    -0.03420636   -0.00017861    0.03277650
     atom   27 type  1   force =    -0.00076605   -0.00218597    0.00220143
     atom   28 type  1   force =     0.03779114    0.10381550   -0.06414122
     atom   29 type  1   force =    -0.01874092    0.02206997    0.03706642
     atom   30 type  1   force =    -0.02928359   -0.05916628   -0.00644244
     atom   31 type  1   force =     0.01506049    0.00474437   -0.00558215
     atom   32 type  1   force =     0.01326134    0.01984363    0.00002666
     atom   33 type  1   force =    -0.04000740    0.03784912    0.07117422
     atom   34 type  1   force =     0.00871766   -0.04424619   -0.07396518
     atom   35 type  1   force =     0.01113955   -0.03066445   -0.00139364
     atom   36 type  1   force =     0.03694188   -0.01134549   -0.00981165
     atom   37 type  1   force =     0.04870454    0.03890763    0.08427092
     atom   38 type  1   force =     0.01698922    0.03290262   -0.00846644
     atom   39 type  1   force =    -0.03275509   -0.00914951   -0.02240025
     atom   40 type  1   force =     0.13407742    0.03945166    0.03788679
     atom   41 type  1   force =    -0.01210535   -0.02184953   -0.01381370
     atom   42 type  1   force =    -0.13729995   -0.08085860    0.01121585
     atom   43 type  1   force =     0.05306409    0.01484197    0.05852807
     atom   44 type  1   force =    -0.04391571   -0.05295608    0.06920863
     atom   45 type  1   force =    -0.01025008    0.02583487    0.00775896
     atom   46 type  1   force =     0.05191333   -0.01050581   -0.00125405
     atom   47 type  1   force =    -0.03704100    0.05397636   -0.00481432
     atom   48 type  1   force =    -0.05448078    0.00794573   -0.04281815
     atom   49 type  1   force =    -0.05933811    0.03310550    0.01798901
     atom   50 type  1   force =     0.02271526   -0.06231851    0.05677772
     atom   51 type  1   force =     0.02840273   -0.01806090    0.03919763
     atom   52 type  1   force =     0.03532622    0.06079583   -0.03758796
     atom   53 type  1   force =     0.02362737    0.00378886   -0.02058997
     atom   54 type  1   force =     0.01984776   -0.02954459   -0.00634640
     atom   55 type  1   force =    -0.01813425    0.00298363   -0.02390758
     atom   56 type  1   force =    -0.01440759   -0.04739701    0.01223260
     atom   57 type  1   force =    -0.01582800   -0.02318175   -0.02081061
     atom   58 type  1   force =     0.02026948   -0.03796517    0.07743039
     atom   59 type  1   force =    -0.05227274    0.02597665   -0.15298060
     atom   60 type  1   force =    -0.03299522    0.03626883   -0.02941383
     atom   61 type  1   force =    -0.00104111   -0.02026841    0.03423554
     atom   62 type  1   force =    -0.05292009    0.01540960   -0.02161110
     atom   63 type  1   force =     0.02648235   -0.02814861    0.01715308
     atom   64 type  1   force =     0.00221874   -0.04344293    0.02498737

     Total force =     0.574750     Total SCF correction =     0.001259


     Computing stress (Cartesian axis) and pressure

          total   stress  (Ry/bohr**3)                   (kbar)     P=       34.95
   0.00026574  -0.00004217   0.00005153           39.09       -6.20        7.58
  -0.00004217   0.00018000  -0.00002769           -6.20       26.48       -4.07
   0.00005153  -0.00002769   0.00026701            7.58       -4.07       39.28

 
     init_run     :      1.36s CPU      5.02s WALL (       1 calls)
     electrons    :      2.89s CPU      3.07s WALL (       1 calls)
     forces       :      0.04s CPU      0.05s WALL (       1 calls)
     stress       :      0.21s CPU      0.21s WALL (       1 calls)

     Called by init_run:
     wfcinit      :      0.79s CPU      4.26s WALL (       1 calls)
                                        4.26s GPU  (       1 calls)
     potinit      :      0.07s CPU      0.16s WALL (       1 calls)
     hinit0       :      0.48s CPU      0.50s WALL (       1 calls)

     Called by electrons:
     c_bands      :      1.54s CPU      1.60s WALL (      22 calls)
     sum_band     :      0.64s CPU      0.70s WALL (      22 calls)
     v_of_rho     :      0.32s CPU      0.43s WALL (      22 calls)
     mix_rho      :      0.31s CPU      0.33s WALL (      22 calls)

     Called by c_bands:
     init_us_2    :      0.08s CPU      0.09s WALL (      45 calls)
     init_us_2:gp :      0.08s CPU      0.09s WALL (      45 calls)
     regterg      :      1.33s CPU      1.39s WALL (      22 calls)

     Called by *egterg:
     rdiaghg      :      0.48s CPU      1.19s WALL (     104 calls)
                                        1.17s GPU  (     104 calls)
     h_psi        :      1.39s CPU      4.19s WALL (     106 calls)
                                        4.19s GPU  (     106 calls)
     g_psi        :      0.00s CPU      0.01s WALL (      83 calls)
                                        0.00s GPU  (      83 calls)

     Called by h_psi:
     h_psi:calbec :      0.74s CPU      3.44s WALL (     106 calls)
                                        3.44s GPU  (     106 calls)
     vloc_psi     :      0.58s CPU      0.68s WALL (     106 calls)
                                        0.67s GPU  (     106 calls)
     add_vuspsi   :      0.04s CPU      0.07s WALL (     106 calls)
                                        0.07s GPU  (     106 calls)

     General routines
     calbec       :      0.75s CPU      3.44s WALL (     111 calls)
     fft          :      0.81s CPU      0.95s WALL (     183 calls)
                                        0.14s GPU  (     116 calls)
     ffts         :      0.12s CPU      0.13s WALL (      22 calls)
     fftw         :      0.66s CPU      0.86s WALL (    2320 calls)
                                        0.74s GPU  (    2320 calls)
 
     Parallel routines
 
     PWSCF        :      4.55s CPU      8.45s WALL

 
   This run was terminated on:  14:32: 5  10May2023            

=------------------------------------------------------------------------------=
   JOB DONE.
=------------------------------------------------------------------------------=
