An instance of this daemon is already running
An instance of this daemon is already running

     Program PWSCF v.7.1 starts on 10May2023 at 14:32: 8 

     This program is part of the open-source Quantum ESPRESSO suite
     for quantum simulation of materials; please cite
         "P. Giannozzi et al., J. Phys.:Condens. Matter 21 395502 (2009);
         "P. Giannozzi et al., J. Phys.:Condens. Matter 29 465901 (2017);
         "P. Giannozzi et al., J. Chem. Phys. 152 154105 (2020);
          URL http://www.quantum-espresso.org", 
     in publications or presentations arising from this work. More details at
     http://www.quantum-espresso.org/quote

     Parallel version (MPI & OpenMP), running on       4 processor cores
     Number of MPI processes:                 4
     Threads/MPI process:                     1

     MPI processes distributed on     1 nodes
     752758 MiB available memory on the printing compute node when the environment starts
 
     Reading input from pw-si-93.in
Warning: card &CELL ignored
Warning: card / ignored

     Current dimensions of program PWSCF are:
     Max number of different atomic species (ntypx) = 10
     Max number of k-points (npk) =  40000
     Max angular momentum in pseudopotentials (lmaxx) =  4

     IMPORTANT: XC functional enforced from input :
     Exchange-correlation= PBE
                           (   1   4   3   4   0   0   0)
     Any further DFT definition will be discarded
     Please, verify this is what you really want


     gamma-point specific algorithms are used
 
     K-points division:     npool     =       2
     R & G space division:  proc/nbgrp/npool/nimage =       2
     Subspace diagonalization in iterative solution of the eigenvalue problem:
     a serial algorithm will be used

     Message from routine divide_et_impera:
     suboptimal parallelization: some nodes have no k-points
 
     Parallelization info
     --------------------
     sticks:   dense  smooth     PW     G-vecs:    dense   smooth      PW
     Min        2425    2425    640               127063   127063   17132
     Max        2432    2432    641               127064   127064   17133
     Sum        4857    4857   1281               254127   254127   34265
 
     Using Slab Decomposition
 


     bravais-lattice index     =            0
     lattice parameter (alat)  =      22.5390  a.u.
     unit-cell volume          =   11449.9793 (a.u.)^3
     number of atoms/cell      =           64
     number of atomic types    =            1
     number of electrons       =       256.00
     number of Kohn-Sham states=          154
     kinetic-energy cutoff     =      30.0000  Ry
     charge density cutoff     =     120.0000  Ry
     scf convergence threshold =      1.0E-06
     mixing beta               =       0.5000
     number of iterations used =            8  plain     mixing
     Exchange-correlation= PBE
                           (   1   4   3   4   0   0   0)

     GPU acceleration is ACTIVE.
     GPU-aware MPI enabled

     Message from routine print_cuda_info:
     High GPU oversubscription detected. Are you sure this is what you want?

     celldm(1)=  22.539013  celldm(2)=   0.000000  celldm(3)=   0.000000
     celldm(4)=   0.000000  celldm(5)=   0.000000  celldm(6)=   0.000000

     crystal axes: (cart. coord. in units of alat)
               a(1) = (   1.000000   0.000000   0.000000 )  
               a(2) = (   0.000000   1.000000   0.000000 )  
               a(3) = (   0.000000   0.000000   1.000000 )  

     reciprocal axes: (cart. coord. in units 2 pi/alat)
               b(1) = (  1.000000  0.000000  0.000000 )  
               b(2) = (  0.000000  1.000000  0.000000 )  
               b(3) = (  0.000000  0.000000  1.000000 )  


     PseudoPot. # 1 for Si read from file:
     /home/ppiaggi/pseudos/Si_ONCV_PBE_sr.upf
     MD5 check sum: 8553c464762ac42b85b1eed164b4d029
     Pseudo is Norm-conserving, Zval =  4.0
     Generated using ONCVPSP code by D. R. Hamann
     Using radial grid of 1510 points,  4 beta functions with: 
                l(1) =   0
                l(2) =   0
                l(3) =   1
                l(4) =   1

     atomic species   valence    mass     pseudopotential
        Si             4.00    28.08500     Si( 1.00)

     No symmetry found



   Cartesian axes

     site n.     atom                  positions (alat units)
         1           Si  tau(   1) = (   0.7578240   0.0940242   0.7794570  )
         2           Si  tau(   2) = (   0.9112750   0.8060260   0.2912000  )
         3           Si  tau(   3) = (   0.0476495   0.9005700   0.4015610  )
         4           Si  tau(   4) = (   0.9062690   0.4690570   0.3635000  )
         5           Si  tau(   5) = (   0.2152070   0.9538950   0.2998700  )
         6           Si  tau(   6) = (   0.7112960   0.9161440   0.0986471  )
         7           Si  tau(   7) = (   0.3891640   0.6962440   0.1821320  )
         8           Si  tau(   8) = (   0.4277250   0.3736650   0.8258380  )
         9           Si  tau(   9) = (   0.0163533   0.8235950   0.8841980  )
        10           Si  tau(  10) = (   0.8515530   0.9085630   0.8194580  )
        11           Si  tau(  11) = (   0.9354280   0.6577050   0.5740000  )
        12           Si  tau(  12) = (   0.7087560   0.5050890   0.3266040  )
        13           Si  tau(  13) = (   0.7949960   0.1228650   0.3746520  )
        14           Si  tau(  14) = (   0.7077100   0.2759250   0.8191910  )
        15           Si  tau(  15) = (   0.8183420   0.3886620   0.7172100  )
        16           Si  tau(  16) = (   0.3510150   0.1333960   0.4868780  )
        17           Si  tau(  17) = (   0.4841290   0.9854290   0.4210370  )
        18           Si  tau(  18) = (   0.6143200   0.4965070   0.1340010  )
        19           Si  tau(  19) = (   0.2910540   0.0937957   0.8722460  )
        20           Si  tau(  20) = (   0.4537890   0.7915240   0.9929980  )
        21           Si  tau(  21) = (   0.5425260   0.1019710   0.5617930  )
        22           Si  tau(  22) = (   0.1692720   0.9288870   0.9156390  )
        23           Si  tau(  23) = (   0.3119540   0.6560310   0.0052029  )
        24           Si  tau(  24) = (   0.1892640   0.1716600   0.4771110  )
        25           Si  tau(  25) = (   0.2704350   0.1888160   0.1175070  )
        26           Si  tau(  26) = (   0.9787220   0.5719230   0.7389550  )
        27           Si  tau(  27) = (   0.2249160   0.9983080   0.0999525  )
        28           Si  tau(  28) = (   0.5648460   0.8045530   0.1652770  )
        29           Si  tau(  29) = (   0.6770480   0.9566770   0.4231980  )
        30           Si  tau(  30) = (   0.6531820   0.9404320   0.8821430  )
        31           Si  tau(  31) = (   0.5502530   0.2814090   0.9566760  )
        32           Si  tau(  32) = (   0.3110940   0.2542630   0.3428360  )
        33           Si  tau(  33) = (   0.4289500   0.1771320   0.7011260  )
        34           Si  tau(  34) = (   0.8064180   0.9657030   0.2635210  )
        35           Si  tau(  35) = (   0.8907380   0.4103300   0.9180680  )
        36           Si  tau(  36) = (   0.5565720   0.4882170   0.9372430  )
        37           Si  tau(  37) = (   0.8121800   0.0504898   0.9537660  )
        38           Si  tau(  38) = (   0.4295370   0.9603280   0.8723140  )
        39           Si  tau(  39) = (   0.9401260   0.4418120   0.5701240  )
        40           Si  tau(  40) = (   0.9548880   0.3014840   0.2603060  )
        41           Si  tau(  41) = (   0.4035430   0.8892300   0.2777370  )
        42           Si  tau(  42) = (   0.7875790   0.2302320   0.2223230  )
        43           Si  tau(  43) = (   0.2332250   0.3513010   0.8088320  )
        44           Si  tau(  44) = (   0.3214660   0.3172010   0.9843580  )
        45           Si  tau(  45) = (   0.2832400   0.3743700   0.1660880  )
        46           Si  tau(  46) = (   0.0211571   0.8487150   0.5830270  )
        47           Si  tau(  47) = (   0.7574400   0.5185780   0.9883370  )
        48           Si  tau(  48) = (   0.0869300   0.3637100   0.6832950  )
        49           Si  tau(  49) = (   0.0640004   0.0879894   0.3151710  )
        50           Si  tau(  50) = (   0.5567240   0.6258980   0.2615290  )
        51           Si  tau(  51) = (   0.0870519   0.4690480   0.8572130  )
        52           Si  tau(  52) = (   0.8321660   0.3782010   0.1015340  )
        53           Si  tau(  53) = (   0.3697200   0.0775340   0.2946700  )
        54           Si  tau(  54) = (   0.3186300   0.8071150   0.8473720  )
        55           Si  tau(  55) = (   0.0387228   0.3155090   0.4528070  )
        56           Si  tau(  56) = (   0.2336170   0.2249120   0.6601410  )
        57           Si  tau(  57) = (   0.7004250   0.7820280   0.3411260  )
        58           Si  tau(  58) = (   0.5612120   0.0347362   0.7386140  )
        59           Si  tau(  59) = (   0.1568720   0.8403370   0.7413770  )
        60           Si  tau(  60) = (   0.8292730   0.6481550   0.4091290  )
        61           Si  tau(  61) = (   0.1332920   0.6610820   0.8359840  )
        62           Si  tau(  62) = (   0.8526890   0.8311310   0.5097960  )
        63           Si  tau(  63) = (   0.7306320   0.2277410   0.0311459  )
        64           Si  tau(  64) = (   0.4158420   0.5110550   0.0788522  )

     number of k points=     1  Fermi-Dirac smearing, width (Ry)=  0.0100
                       cart. coord. in units 2pi/alat
        k(    1) = (   0.0000000   0.0000000   0.0000000), wk =   2.0000000

     Dense  grid:   127064 G-vectors     FFT dimensions: (  80,  80,  80)

     Estimated max dynamical RAM per process >     202.40 MB

     Estimated total dynamical RAM >     778.57 MB

     Initial potential from superposition of free atoms

     starting charge     255.9608, renormalised to     256.0000
     Starting wfcs are  256 randomized atomic wfcs

     total cpu time spent up to now is        5.1 secs

     Self-consistent Calculation

     iteration #  1     ecut=    30.00 Ry     beta= 0.50
     Davidson diagonalization with overlap
     ethr =  1.00E-02,  avg # of iterations =  3.0

     Threshold (ethr) on eigenvalues was too large:
     Diagonalizing with lowered threshold

     Davidson diagonalization with overlap
     ethr =  7.96E-04,  avg # of iterations =  4.0

     total cpu time spent up to now is        5.5 secs

     total energy              =    -499.65502616 Ry
     estimated scf accuracy    <       2.69470519 Ry

     iteration #  2     ecut=    30.00 Ry     beta= 0.50
     Davidson diagonalization with overlap
     ethr =  1.05E-03,  avg # of iterations =  4.0

     total cpu time spent up to now is        5.6 secs

     total energy              =    -498.93443309 Ry
     estimated scf accuracy    <       7.36725364 Ry

     iteration #  3     ecut=    30.00 Ry     beta= 0.50
     Davidson diagonalization with overlap
     ethr =  1.05E-03,  avg # of iterations =  5.0

     total cpu time spent up to now is        5.8 secs

     total energy              =    -499.65284715 Ry
     estimated scf accuracy    <       8.79893748 Ry

     iteration #  4     ecut=    30.00 Ry     beta= 0.50
     Davidson diagonalization with overlap
     ethr =  1.05E-03,  avg # of iterations =  3.0

     total cpu time spent up to now is        5.9 secs

     total energy              =    -500.15904583 Ry
     estimated scf accuracy    <       1.28402978 Ry

     iteration #  5     ecut=    30.00 Ry     beta= 0.50
     Davidson diagonalization with overlap
     ethr =  5.02E-04,  avg # of iterations =  3.0

     total cpu time spent up to now is        6.0 secs

     total energy              =    -500.26054476 Ry
     estimated scf accuracy    <       0.71118318 Ry

     iteration #  6     ecut=    30.00 Ry     beta= 0.50
     Davidson diagonalization with overlap
     ethr =  2.78E-04,  avg # of iterations =  2.0

     total cpu time spent up to now is        6.2 secs

     total energy              =    -500.31842377 Ry
     estimated scf accuracy    <       0.21952156 Ry

     iteration #  7     ecut=    30.00 Ry     beta= 0.50
     Davidson diagonalization with overlap
     ethr =  8.58E-05,  avg # of iterations =  2.0

     total cpu time spent up to now is        6.3 secs

     total energy              =    -500.33449962 Ry
     estimated scf accuracy    <       0.11133025 Ry

     iteration #  8     ecut=    30.00 Ry     beta= 0.50
     Davidson diagonalization with overlap
     ethr =  4.35E-05,  avg # of iterations =  2.0

     total cpu time spent up to now is        6.4 secs

     total energy              =    -500.34318063 Ry
     estimated scf accuracy    <       0.04174342 Ry

     iteration #  9     ecut=    30.00 Ry     beta= 0.50
     Davidson diagonalization with overlap
     ethr =  1.63E-05,  avg # of iterations =  2.0

     total cpu time spent up to now is        6.5 secs

     total energy              =    -500.34660618 Ry
     estimated scf accuracy    <       0.02264260 Ry

     iteration # 10     ecut=    30.00 Ry     beta= 0.50
     Davidson diagonalization with overlap
     ethr =  8.84E-06,  avg # of iterations =  7.0

     total cpu time spent up to now is        6.7 secs

     total energy              =    -500.34849631 Ry
     estimated scf accuracy    <       0.00414926 Ry

     iteration # 11     ecut=    30.00 Ry     beta= 0.50
     Davidson diagonalization with overlap
     ethr =  1.62E-06,  avg # of iterations =  8.0

     total cpu time spent up to now is        6.8 secs

     total energy              =    -500.34890518 Ry
     estimated scf accuracy    <       0.00145848 Ry

     iteration # 12     ecut=    30.00 Ry     beta= 0.50
     Davidson diagonalization with overlap
     ethr =  5.70E-07,  avg # of iterations =  4.0

     total cpu time spent up to now is        7.0 secs

     total energy              =    -500.34895794 Ry
     estimated scf accuracy    <       0.00316762 Ry

     iteration # 13     ecut=    30.00 Ry     beta= 0.50
     Davidson diagonalization with overlap
     ethr =  5.70E-07,  avg # of iterations =  3.0

     total cpu time spent up to now is        7.1 secs

     total energy              =    -500.34911358 Ry
     estimated scf accuracy    <       0.00134812 Ry

     iteration # 14     ecut=    30.00 Ry     beta= 0.50
     Davidson diagonalization with overlap
     ethr =  5.27E-07,  avg # of iterations =  2.0

     total cpu time spent up to now is        7.3 secs

     total energy              =    -500.34920328 Ry
     estimated scf accuracy    <       0.00014422 Ry

     iteration # 15     ecut=    30.00 Ry     beta= 0.50
     Davidson diagonalization with overlap
     ethr =  5.63E-08,  avg # of iterations =  5.0

     total cpu time spent up to now is        7.4 secs

     total energy              =    -500.34920801 Ry
     estimated scf accuracy    <       0.00048599 Ry

     iteration # 16     ecut=    30.00 Ry     beta= 0.50
     Davidson diagonalization with overlap
     ethr =  5.63E-08,  avg # of iterations =  3.0

     total cpu time spent up to now is        7.5 secs

     total energy              =    -500.34922680 Ry
     estimated scf accuracy    <       0.00013933 Ry

     iteration # 17     ecut=    30.00 Ry     beta= 0.50
     Davidson diagonalization with overlap
     ethr =  5.44E-08,  avg # of iterations =  2.0

     total cpu time spent up to now is        7.7 secs

     total energy              =    -500.34923578 Ry
     estimated scf accuracy    <       0.00006829 Ry

     iteration # 18     ecut=    30.00 Ry     beta= 0.50
     Davidson diagonalization with overlap
     ethr =  2.67E-08,  avg # of iterations =  2.0

     total cpu time spent up to now is        7.8 secs

     total energy              =    -500.34923898 Ry
     estimated scf accuracy    <       0.00005703 Ry

     iteration # 19     ecut=    30.00 Ry     beta= 0.50
     Davidson diagonalization with overlap
     ethr =  2.23E-08,  avg # of iterations =  1.0

     total cpu time spent up to now is        7.9 secs

     total energy              =    -500.34924254 Ry
     estimated scf accuracy    <       0.00000529 Ry

     iteration # 20     ecut=    30.00 Ry     beta= 0.50
     Davidson diagonalization with overlap
     ethr =  2.06E-09,  avg # of iterations =  4.0

     total cpu time spent up to now is        8.0 secs

     total energy              =    -500.34924308 Ry
     estimated scf accuracy    <       0.00000758 Ry

     iteration # 21     ecut=    30.00 Ry     beta= 0.50
     Davidson diagonalization with overlap
     ethr =  2.06E-09,  avg # of iterations =  2.0

     total cpu time spent up to now is        8.2 secs

     total energy              =    -500.34924376 Ry
     estimated scf accuracy    <       0.00000189 Ry

     iteration # 22     ecut=    30.00 Ry     beta= 0.50
     Davidson diagonalization with overlap
     ethr =  7.36E-10,  avg # of iterations =  2.0

     total cpu time spent up to now is        8.3 secs

     End of self-consistent calculation

          k = 0.0000 0.0000 0.0000 ( 15900 PWs)   bands (ev):

    -9.2686  -8.9218  -8.7392  -8.5351  -8.5164  -8.4626  -8.0693  -7.8940
    -7.6648  -7.5838  -7.4061  -7.2898  -7.0916  -6.8861  -6.8254  -6.6985
    -6.5616  -6.3853  -6.1230  -6.0606  -5.8220  -5.6123  -5.3926  -5.3528
    -5.1632  -5.0901  -5.0186  -4.8995  -4.6914  -4.6386  -4.5556  -4.4418
    -4.2164  -4.1731  -4.0717  -3.8903  -3.7507  -3.6275  -3.5324  -3.3503
    -3.3139  -3.1854  -3.0267  -2.9389  -2.6980  -2.5765  -2.4982  -2.3998
    -2.2615  -2.1830  -2.0182  -1.8971  -1.7579  -1.6844  -1.6596  -1.4772
    -1.3879  -1.2934  -1.1987  -1.1155  -1.0381  -1.0010  -0.8832  -0.8085
    -0.7273  -0.6172  -0.5794  -0.4167  -0.3608  -0.3221  -0.2544  -0.2067
     0.0154   0.1045   0.1187   0.1488   0.2501   0.3209   0.3772   0.5115
     0.5664   0.6656   0.7066   0.7309   0.8083   0.9365   0.9681   1.0486
     1.0996   1.1273   1.2248   1.2413   1.3776   1.4917   1.5147   1.5888
     1.6696   1.6894   1.7946   1.8533   1.9300   1.9988   2.0323   2.1178
     2.1273   2.2560   2.3079   2.3785   2.4334   2.4683   2.5858   2.6891
     2.7588   2.8196   2.8386   2.9385   3.0344   3.0747   3.1391   3.2118
     3.2850   3.3505   3.3944   3.5189   3.5565   3.5737   3.6287   3.6586
     3.7326   3.7499   3.8536   3.9042   3.9441   3.9901   4.1216   4.1915
     4.2124   4.3100   4.3972   4.4756   4.4924   4.6006   4.6160   4.6542
     4.7029   4.7428   4.7966   4.9197   4.9851   5.0076   5.0819   5.1904
     5.2027   5.3173

     the Fermi energy is     3.7101 ev

!    total energy              =    -500.34924357 Ry
     estimated scf accuracy    <       0.00000046 Ry
     smearing contrib. (-TS)   =      -0.15742207 Ry
     internal energy E=F+TS    =    -500.19182150 Ry

     The total energy is F=E-TS. E is the sum of the following terms:
     one-electron contribution =    -209.89067173 Ry
     hartree contribution      =     190.14961950 Ry
     xc contribution           =    -152.07852872 Ry
     ewald contribution        =    -328.37224056 Ry

     convergence has been achieved in  22 iterations

     Forces acting on atoms (cartesian axes, Ry/au):

     atom    1 type  1   force =    -0.01505014   -0.02067361   -0.06606544
     atom    2 type  1   force =     0.00996840   -0.02676400    0.01420203
     atom    3 type  1   force =     0.01817797    0.02720113   -0.02307990
     atom    4 type  1   force =     0.00240348   -0.02624135   -0.00314385
     atom    5 type  1   force =    -0.01034318   -0.02985140   -0.03066713
     atom    6 type  1   force =     0.00800707    0.01029376   -0.03220576
     atom    7 type  1   force =    -0.03940175    0.00719905    0.02854619
     atom    8 type  1   force =     0.01732500   -0.00466184   -0.05166676
     atom    9 type  1   force =    -0.01603630   -0.03423459    0.01838968
     atom   10 type  1   force =    -0.01858829   -0.00257367   -0.02268602
     atom   11 type  1   force =     0.01310738    0.02462688   -0.00094897
     atom   12 type  1   force =     0.00305177   -0.01480321    0.00052972
     atom   13 type  1   force =     0.00673010   -0.01673725    0.06911211
     atom   14 type  1   force =    -0.03895347    0.01389390    0.03198285
     atom   15 type  1   force =     0.03981498    0.02821527    0.01269564
     atom   16 type  1   force =     0.24957403   -0.06057050    0.07157052
     atom   17 type  1   force =     0.00565325   -0.02050803    0.01359567
     atom   18 type  1   force =     0.03984446   -0.03052608    0.01425239
     atom   19 type  1   force =    -0.02456651    0.04844875   -0.00753405
     atom   20 type  1   force =     0.06415319    0.00216240    0.02513759
     atom   21 type  1   force =     0.03305367    0.02764244   -0.02191138
     atom   22 type  1   force =     0.04047928    0.06078590    0.04906785
     atom   23 type  1   force =    -0.05067016    0.01626222   -0.02916073
     atom   24 type  1   force =    -0.27587470    0.03626171   -0.03869894
     atom   25 type  1   force =    -0.00156399   -0.05510297    0.00566037
     atom   26 type  1   force =    -0.05516695    0.01343140   -0.01390093
     atom   27 type  1   force =     0.00139690   -0.00069916    0.00813942
     atom   28 type  1   force =    -0.00434941    0.03276911   -0.01502871
     atom   29 type  1   force =     0.02424419    0.02824617    0.02202044
     atom   30 type  1   force =     0.00982776   -0.06144080    0.04138045
     atom   31 type  1   force =     0.02029791   -0.00269053    0.00152257
     atom   32 type  1   force =     0.00908633    0.07052830   -0.04330423
     atom   33 type  1   force =    -0.05139650    0.04444735    0.03702957
     atom   34 type  1   force =    -0.00233622    0.00188381   -0.02824631
     atom   35 type  1   force =     0.05262942   -0.04083662   -0.07420194
     atom   36 type  1   force =     0.03080140   -0.01188214   -0.03297438
     atom   37 type  1   force =     0.02537210    0.00641460    0.08903148
     atom   38 type  1   force =     0.04390096    0.01822997    0.00891873
     atom   39 type  1   force =    -0.00951584   -0.00418720   -0.02299939
     atom   40 type  1   force =     0.06264305    0.01215785   -0.00153755
     atom   41 type  1   force =    -0.00432547   -0.07695307   -0.03243008
     atom   42 type  1   force =    -0.07520116   -0.02535327   -0.02216714
     atom   43 type  1   force =     0.02428571    0.01252003    0.03497603
     atom   44 type  1   force =     0.00652556   -0.03145469   -0.03378956
     atom   45 type  1   force =    -0.01737199    0.04096738    0.05924638
     atom   46 type  1   force =     0.07970750   -0.00587148    0.04692055
     atom   47 type  1   force =    -0.06234238    0.07858567    0.00963777
     atom   48 type  1   force =    -0.04818977    0.00256148   -0.03343426
     atom   49 type  1   force =    -0.01716077    0.01193593    0.02646790
     atom   50 type  1   force =     0.00337804    0.02596778    0.04185371
     atom   51 type  1   force =     0.01014305   -0.03943877    0.05478026
     atom   52 type  1   force =     0.04458123    0.03226475    0.03032119
     atom   53 type  1   force =     0.00046746    0.04044263   -0.05592677
     atom   54 type  1   force =    -0.03055240   -0.03131070   -0.02563995
     atom   55 type  1   force =     0.00847091   -0.01185329   -0.00866291
     atom   56 type  1   force =     0.00182914   -0.03217125    0.02813960
     atom   57 type  1   force =    -0.03159363   -0.01756861   -0.03348892
     atom   58 type  1   force =     0.00190734   -0.01908613    0.00633100
     atom   59 type  1   force =    -0.03370822    0.00235625   -0.08272695
     atom   60 type  1   force =     0.00099463    0.00459022   -0.02940147
     atom   61 type  1   force =     0.00736910    0.02024552    0.02076069
     atom   62 type  1   force =    -0.08487915    0.02421434   -0.02218064
     atom   63 type  1   force =     0.00340431   -0.04398197   -0.00806961
     atom   64 type  1   force =    -0.00546966   -0.02772583    0.02566025

     Total force =     0.595528     Total SCF correction =     0.001226


     Computing stress (Cartesian axis) and pressure

          total   stress  (Ry/bohr**3)                   (kbar)     P=       34.38
   0.00025797  -0.00005860   0.00005378           37.95       -8.62        7.91
  -0.00005860   0.00018931   0.00000021           -8.62       27.85        0.03
   0.00005378   0.00000021   0.00025383            7.91        0.03       37.34

 
     init_run     :      1.11s CPU      5.08s WALL (       1 calls)
     electrons    :      2.91s CPU      3.13s WALL (       1 calls)
     forces       :      0.05s CPU      0.05s WALL (       1 calls)
     stress       :      0.21s CPU      0.22s WALL (       1 calls)

     Called by init_run:
     wfcinit      :      0.55s CPU      4.31s WALL (       1 calls)
                                        4.31s GPU  (       1 calls)
     potinit      :      0.06s CPU      0.16s WALL (       1 calls)
     hinit0       :      0.47s CPU      0.50s WALL (       1 calls)

     Called by electrons:
     c_bands      :      1.51s CPU      1.59s WALL (      23 calls)
     sum_band     :      0.65s CPU      0.73s WALL (      23 calls)
     v_of_rho     :      0.33s CPU      0.45s WALL (      23 calls)
     mix_rho      :      0.33s CPU      0.35s WALL (      23 calls)

     Called by c_bands:
     init_us_2    :      0.09s CPU      0.09s WALL (      47 calls)
     init_us_2:gp :      0.08s CPU      0.09s WALL (      47 calls)
     regterg      :      1.29s CPU      1.37s WALL (      23 calls)

     Called by *egterg:
     rdiaghg      :      0.43s CPU      1.21s WALL (      97 calls)
                                        1.19s GPU  (      97 calls)
     h_psi        :      1.16s CPU      4.21s WALL (      99 calls)
                                        4.21s GPU  (      99 calls)
     g_psi        :      0.00s CPU      0.01s WALL (      75 calls)
                                        0.00s GPU  (      75 calls)

     Called by h_psi:
     h_psi:calbec :      0.52s CPU      3.45s WALL (      99 calls)
                                        3.45s GPU  (      99 calls)
     vloc_psi     :      0.58s CPU      0.69s WALL (      99 calls)
                                        0.68s GPU  (      99 calls)
     add_vuspsi   :      0.04s CPU      0.06s WALL (      99 calls)
                                        0.06s GPU  (      99 calls)

     General routines
     calbec       :      0.52s CPU      3.45s WALL (     104 calls)
     fft          :      0.81s CPU      0.96s WALL (     191 calls)
                                        0.15s GPU  (     121 calls)
     ffts         :      0.13s CPU      0.14s WALL (      23 calls)
     fftw         :      0.68s CPU      0.88s WALL (    2393 calls)
                                        0.76s GPU  (    2393 calls)
 
     Parallel routines
 
     PWSCF        :      4.32s CPU      8.57s WALL

 
   This run was terminated on:  14:32:16  10May2023            

=------------------------------------------------------------------------------=
   JOB DONE.
=------------------------------------------------------------------------------=
