An instance of this daemon is already running
An instance of this daemon is already running

     Program PWSCF v.7.1 starts on 10May2023 at 14:32:30 

     This program is part of the open-source Quantum ESPRESSO suite
     for quantum simulation of materials; please cite
         "P. Giannozzi et al., J. Phys.:Condens. Matter 21 395502 (2009);
         "P. Giannozzi et al., J. Phys.:Condens. Matter 29 465901 (2017);
         "P. Giannozzi et al., J. Chem. Phys. 152 154105 (2020);
          URL http://www.quantum-espresso.org", 
     in publications or presentations arising from this work. More details at
     http://www.quantum-espresso.org/quote

     Parallel version (MPI & OpenMP), running on       4 processor cores
     Number of MPI processes:                 4
     Threads/MPI process:                     1

     MPI processes distributed on     1 nodes
     752759 MiB available memory on the printing compute node when the environment starts
 
     Reading input from pw-si-95.in
Warning: card &CELL ignored
Warning: card / ignored

     Current dimensions of program PWSCF are:
     Max number of different atomic species (ntypx) = 10
     Max number of k-points (npk) =  40000
     Max angular momentum in pseudopotentials (lmaxx) =  4

     IMPORTANT: XC functional enforced from input :
     Exchange-correlation= PBE
                           (   1   4   3   4   0   0   0)
     Any further DFT definition will be discarded
     Please, verify this is what you really want


     gamma-point specific algorithms are used
 
     K-points division:     npool     =       2
     R & G space division:  proc/nbgrp/npool/nimage =       2
     Subspace diagonalization in iterative solution of the eigenvalue problem:
     a serial algorithm will be used

     Message from routine divide_et_impera:
     suboptimal parallelization: some nodes have no k-points
 
     Parallelization info
     --------------------
     sticks:   dense  smooth     PW     G-vecs:    dense   smooth      PW
     Min        2432    2432    639               127555   127555   17227
     Max        2433    2433    642               127556   127556   17230
     Sum        4865    4865   1281               255111   255111   34457
 
     Using Slab Decomposition
 


     bravais-lattice index     =            0
     lattice parameter (alat)  =      22.5612  a.u.
     unit-cell volume          =   11483.7749 (a.u.)^3
     number of atoms/cell      =           64
     number of atomic types    =            1
     number of electrons       =       256.00
     number of Kohn-Sham states=          154
     kinetic-energy cutoff     =      30.0000  Ry
     charge density cutoff     =     120.0000  Ry
     scf convergence threshold =      1.0E-06
     mixing beta               =       0.5000
     number of iterations used =            8  plain     mixing
     Exchange-correlation= PBE
                           (   1   4   3   4   0   0   0)

     GPU acceleration is ACTIVE.
     GPU-aware MPI enabled

     Message from routine print_cuda_info:
     High GPU oversubscription detected. Are you sure this is what you want?

     celldm(1)=  22.561167  celldm(2)=   0.000000  celldm(3)=   0.000000
     celldm(4)=   0.000000  celldm(5)=   0.000000  celldm(6)=   0.000000

     crystal axes: (cart. coord. in units of alat)
               a(1) = (   1.000000   0.000000   0.000000 )  
               a(2) = (   0.000000   1.000000   0.000000 )  
               a(3) = (   0.000000   0.000000   1.000000 )  

     reciprocal axes: (cart. coord. in units 2 pi/alat)
               b(1) = (  1.000000  0.000000  0.000000 )  
               b(2) = (  0.000000  1.000000  0.000000 )  
               b(3) = (  0.000000  0.000000  1.000000 )  


     PseudoPot. # 1 for Si read from file:
     /home/ppiaggi/pseudos/Si_ONCV_PBE_sr.upf
     MD5 check sum: 8553c464762ac42b85b1eed164b4d029
     Pseudo is Norm-conserving, Zval =  4.0
     Generated using ONCVPSP code by D. R. Hamann
     Using radial grid of 1510 points,  4 beta functions with: 
                l(1) =   0
                l(2) =   0
                l(3) =   1
                l(4) =   1

     atomic species   valence    mass     pseudopotential
        Si             4.00    28.08500     Si( 1.00)

     No symmetry found



   Cartesian axes

     site n.     atom                  positions (alat units)
         1           Si  tau(   1) = (   0.7367270   0.0682971   0.7876160  )
         2           Si  tau(   2) = (   0.9131040   0.8055040   0.2951000  )
         3           Si  tau(   3) = (   0.0328096   0.8934240   0.3921060  )
         4           Si  tau(   4) = (   0.9038240   0.4485850   0.3786410  )
         5           Si  tau(   5) = (   0.2177670   0.9367030   0.3013960  )
         6           Si  tau(   6) = (   0.7263710   0.9161630   0.0836798  )
         7           Si  tau(   7) = (   0.3947710   0.7029030   0.1545970  )
         8           Si  tau(   8) = (   0.4390210   0.3844570   0.8185730  )
         9           Si  tau(   9) = (   0.0128449   0.8185060   0.8792080  )
        10           Si  tau(  10) = (   0.8333450   0.9087750   0.8310320  )
        11           Si  tau(  11) = (   0.9444570   0.6813380   0.5653600  )
        12           Si  tau(  12) = (   0.7126120   0.5096580   0.3071780  )
        13           Si  tau(  13) = (   0.7916990   0.1253990   0.3921790  )
        14           Si  tau(  14) = (   0.6885230   0.2613290   0.8028940  )
        15           Si  tau(  15) = (   0.8420760   0.3642240   0.7039000  )
        16           Si  tau(  16) = (   0.3784360   0.1264660   0.4795790  )
        17           Si  tau(  17) = (   0.4908660   0.9922780   0.4190540  )
        18           Si  tau(  18) = (   0.6132670   0.5039660   0.1286230  )
        19           Si  tau(  19) = (   0.2922280   0.1078770   0.9082600  )
        20           Si  tau(  20) = (   0.4477240   0.7945800   0.9944320  )
        21           Si  tau(  21) = (   0.5602360   0.1064140   0.5466150  )
        22           Si  tau(  22) = (   0.1681310   0.9371130   0.9195210  )
        23           Si  tau(  23) = (   0.3023760   0.6614200   0.9815440  )
        24           Si  tau(  24) = (   0.1615810   0.1812800   0.4766070  )
        25           Si  tau(  25) = (   0.2595140   0.1842650   0.1423260  )
        26           Si  tau(  26) = (   0.9839170   0.5633990   0.7252650  )
        27           Si  tau(  27) = (   0.2494460   0.9851800   0.1018850  )
        28           Si  tau(  28) = (   0.5578870   0.8360690   0.1748020  )
        29           Si  tau(  29) = (   0.6807090   0.9740880   0.4440010  )
        30           Si  tau(  30) = (   0.6538540   0.9433710   0.8807210  )
        31           Si  tau(  31) = (   0.5543500   0.2780290   0.9356100  )
        32           Si  tau(  32) = (   0.3091080   0.2465770   0.3328580  )
        33           Si  tau(  33) = (   0.4254500   0.1817630   0.7011350  )
        34           Si  tau(  34) = (   0.7877370   0.9586820   0.2742240  )
        35           Si  tau(  35) = (   0.8865420   0.4196500   0.9103340  )
        36           Si  tau(  36) = (   0.5669590   0.4693970   0.9554120  )
        37           Si  tau(  37) = (   0.8164790   0.0411554   0.9669390  )
        38           Si  tau(  38) = (   0.4367690   0.9673970   0.8720880  )
        39           Si  tau(  39) = (   0.9394790   0.4543740   0.5673440  )
        40           Si  tau(  40) = (   0.9624940   0.3069360   0.2877120  )
        41           Si  tau(  41) = (   0.4023290   0.8774890   0.2824010  )
        42           Si  tau(  42) = (   0.7816460   0.2185280   0.2123130  )
        43           Si  tau(  43) = (   0.2485720   0.3541920   0.8278410  )
        44           Si  tau(  44) = (   0.3393350   0.3010830   0.0003473  )
        45           Si  tau(  45) = (   0.2870810   0.3723720   0.1689910  )
        46           Si  tau(  46) = (   0.0253134   0.8627410   0.5838980  )
        47           Si  tau(  47) = (   0.7392960   0.5285810   0.9919510  )
        48           Si  tau(  48) = (   0.0741691   0.3581850   0.6906940  )
        49           Si  tau(  49) = (   0.0590100   0.0797456   0.3125880  )
        50           Si  tau(  50) = (   0.5608130   0.6247250   0.2497710  )
        51           Si  tau(  51) = (   0.0845112   0.4679910   0.8517660  )
        52           Si  tau(  52) = (   0.8426080   0.3740080   0.0932074  )
        53           Si  tau(  53) = (   0.3710680   0.0731020   0.2934770  )
        54           Si  tau(  54) = (   0.3124540   0.8129750   0.8547050  )
        55           Si  tau(  55) = (   0.0352052   0.3324400   0.4450820  )
        56           Si  tau(  56) = (   0.2290080   0.2310110   0.6637610  )
        57           Si  tau(  57) = (   0.7173020   0.7961340   0.3383400  )
        58           Si  tau(  58) = (   0.5560050   0.0466392   0.7466310  )
        59           Si  tau(  59) = (   0.1460940   0.8362260   0.7408720  )
        60           Si  tau(  60) = (   0.8199390   0.6446360   0.3917620  )
        61           Si  tau(  61) = (   0.1233550   0.6725450   0.8576730  )
        62           Si  tau(  62) = (   0.8549480   0.8201770   0.4905570  )
        63           Si  tau(  63) = (   0.7403270   0.2245180   0.0216896  )
        64           Si  tau(  64) = (   0.4063490   0.5018820   0.0872236  )

     number of k points=     1  Fermi-Dirac smearing, width (Ry)=  0.0100
                       cart. coord. in units 2pi/alat
        k(    1) = (   0.0000000   0.0000000   0.0000000), wk =   2.0000000

     Dense  grid:   127556 G-vectors     FFT dimensions: (  80,  80,  80)

     Estimated max dynamical RAM per process >     202.95 MB

     Estimated total dynamical RAM >     780.66 MB

     Initial potential from superposition of free atoms

     starting charge     255.9608, renormalised to     256.0000
     Starting wfcs are  256 randomized atomic wfcs

     total cpu time spent up to now is        5.2 secs

     Self-consistent Calculation

     iteration #  1     ecut=    30.00 Ry     beta= 0.50
     Davidson diagonalization with overlap
     ethr =  1.00E-02,  avg # of iterations =  3.0

     Threshold (ethr) on eigenvalues was too large:
     Diagonalizing with lowered threshold

     Davidson diagonalization with overlap
     ethr =  8.56E-04,  avg # of iterations =  4.0

     total cpu time spent up to now is        5.5 secs

     total energy              =    -499.43888782 Ry
     estimated scf accuracy    <       2.95946831 Ry

     iteration #  2     ecut=    30.00 Ry     beta= 0.50
     Davidson diagonalization with overlap
     ethr =  1.16E-03,  avg # of iterations =  3.0

     total cpu time spent up to now is        5.6 secs

     total energy              =    -499.28512934 Ry
     estimated scf accuracy    <       3.50582731 Ry

     iteration #  3     ecut=    30.00 Ry     beta= 0.50
     Davidson diagonalization with overlap
     ethr =  1.16E-03,  avg # of iterations =  4.0

     total cpu time spent up to now is        5.8 secs

     total energy              =    -499.40584536 Ry
     estimated scf accuracy    <       9.30952579 Ry

     iteration #  4     ecut=    30.00 Ry     beta= 0.50
     Davidson diagonalization with overlap
     ethr =  1.16E-03,  avg # of iterations =  2.0

     total cpu time spent up to now is        5.9 secs

     total energy              =    -500.03529828 Ry
     estimated scf accuracy    <       0.84687432 Ry

     iteration #  5     ecut=    30.00 Ry     beta= 0.50
     Davidson diagonalization with overlap
     ethr =  3.31E-04,  avg # of iterations =  3.0

     total cpu time spent up to now is        6.0 secs

     total energy              =    -500.12471882 Ry
     estimated scf accuracy    <       0.53486046 Ry

     iteration #  6     ecut=    30.00 Ry     beta= 0.50
     Davidson diagonalization with overlap
     ethr =  2.09E-04,  avg # of iterations =  2.0

     total cpu time spent up to now is        6.2 secs

     total energy              =    -500.16117450 Ry
     estimated scf accuracy    <       0.20665570 Ry

     iteration #  7     ecut=    30.00 Ry     beta= 0.50
     Davidson diagonalization with overlap
     ethr =  8.07E-05,  avg # of iterations =  2.0

     total cpu time spent up to now is        6.3 secs

     total energy              =    -500.17888069 Ry
     estimated scf accuracy    <       0.09387675 Ry

     iteration #  8     ecut=    30.00 Ry     beta= 0.50
     Davidson diagonalization with overlap
     ethr =  3.67E-05,  avg # of iterations =  2.0

     total cpu time spent up to now is        6.4 secs

     total energy              =    -500.18518712 Ry
     estimated scf accuracy    <       0.03488230 Ry

     iteration #  9     ecut=    30.00 Ry     beta= 0.50
     Davidson diagonalization with overlap
     ethr =  1.36E-05,  avg # of iterations =  8.0

     total cpu time spent up to now is        6.6 secs

     total energy              =    -500.18762954 Ry
     estimated scf accuracy    <       0.01882210 Ry

     iteration # 10     ecut=    30.00 Ry     beta= 0.50
     Davidson diagonalization with overlap
     c_bands:  1 eigenvalues not converged
     ethr =  7.35E-06,  avg # of iterations = 20.0

     total cpu time spent up to now is        6.8 secs

     total energy              =    -500.18935989 Ry
     estimated scf accuracy    <       0.00516442 Ry

     iteration # 11     ecut=    30.00 Ry     beta= 0.50
     Davidson diagonalization with overlap
     c_bands:  1 eigenvalues not converged
     ethr =  2.02E-06,  avg # of iterations = 20.0

     total cpu time spent up to now is        7.0 secs

     total energy              =    -500.18954419 Ry
     estimated scf accuracy    <       0.00481759 Ry

     iteration # 12     ecut=    30.00 Ry     beta= 0.50
     Davidson diagonalization with overlap
     ethr =  1.88E-06,  avg # of iterations =  2.0

     total cpu time spent up to now is        7.1 secs

     total energy              =    -500.18987749 Ry
     estimated scf accuracy    <       0.00222511 Ry

     iteration # 13     ecut=    30.00 Ry     beta= 0.50
     Davidson diagonalization with overlap
     ethr =  8.69E-07,  avg # of iterations =  2.0

     total cpu time spent up to now is        7.3 secs

     total energy              =    -500.19005759 Ry
     estimated scf accuracy    <       0.00022971 Ry

     iteration # 14     ecut=    30.00 Ry     beta= 0.50
     Davidson diagonalization with overlap
     ethr =  8.97E-08,  avg # of iterations =  4.0

     total cpu time spent up to now is        7.4 secs

     total energy              =    -500.19007146 Ry
     estimated scf accuracy    <       0.00035391 Ry

     iteration # 15     ecut=    30.00 Ry     beta= 0.50
     Davidson diagonalization with overlap
     ethr =  8.97E-08,  avg # of iterations =  3.0

     total cpu time spent up to now is        7.6 secs

     total energy              =    -500.19010074 Ry
     estimated scf accuracy    <       0.00012874 Ry

     iteration # 16     ecut=    30.00 Ry     beta= 0.50
     Davidson diagonalization with overlap
     ethr =  5.03E-08,  avg # of iterations =  2.0

     total cpu time spent up to now is        7.7 secs

     total energy              =    -500.19010796 Ry
     estimated scf accuracy    <       0.00009595 Ry

     iteration # 17     ecut=    30.00 Ry     beta= 0.50
     Davidson diagonalization with overlap
     ethr =  3.75E-08,  avg # of iterations =  2.0

     total cpu time spent up to now is        7.8 secs

     total energy              =    -500.19011446 Ry
     estimated scf accuracy    <       0.00002138 Ry

     iteration # 18     ecut=    30.00 Ry     beta= 0.50
     Davidson diagonalization with overlap
     ethr =  8.35E-09,  avg # of iterations =  2.0

     total cpu time spent up to now is        7.9 secs

     total energy              =    -500.19011572 Ry
     estimated scf accuracy    <       0.00001969 Ry

     iteration # 19     ecut=    30.00 Ry     beta= 0.50
     Davidson diagonalization with overlap
     ethr =  7.69E-09,  avg # of iterations =  2.0

     total cpu time spent up to now is        8.1 secs

     total energy              =    -500.19011682 Ry
     estimated scf accuracy    <       0.00001540 Ry

     iteration # 20     ecut=    30.00 Ry     beta= 0.50
     Davidson diagonalization with overlap
     ethr =  6.02E-09,  avg # of iterations =  2.0

     total cpu time spent up to now is        8.2 secs

     total energy              =    -500.19011800 Ry
     estimated scf accuracy    <       0.00000506 Ry

     iteration # 21     ecut=    30.00 Ry     beta= 0.50
     Davidson diagonalization with overlap
     ethr =  1.98E-09,  avg # of iterations =  2.0

     total cpu time spent up to now is        8.3 secs

     End of self-consistent calculation

          k = 0.0000 0.0000 0.0000 ( 15900 PWs)   bands (ev):

    -9.6788  -9.5031  -9.1835  -8.9223  -8.6938  -8.6550  -8.2238  -8.0388
    -7.8799  -7.8213  -7.6320  -7.3536  -7.0969  -7.0152  -6.8369  -6.7723
    -6.6686  -6.4642  -6.2273  -6.0089  -5.9225  -5.7504  -5.5627  -5.4838
    -5.3565  -5.1424  -5.0938  -4.9079  -4.7107  -4.5944  -4.5479  -4.4883
    -4.2627  -4.2165  -4.1088  -3.9022  -3.8081  -3.7341  -3.6811  -3.5596
    -3.4055  -3.1004  -3.0706  -2.9973  -2.8042  -2.7601  -2.6622  -2.4972
    -2.2085  -2.1376  -2.0533  -1.9749  -1.8816  -1.7870  -1.7453  -1.6453
    -1.5014  -1.4251  -1.2796  -1.1461  -1.0606  -0.9787  -0.8879  -0.7869
    -0.6610  -0.6410  -0.6047  -0.5392  -0.4603  -0.3438  -0.3225  -0.1496
    -0.0818   0.0472   0.0592   0.1842   0.2362   0.2687   0.3171   0.3900
     0.4789   0.5321   0.6213   0.6308   0.7173   0.8274   0.8551   0.9657
     1.0017   1.0924   1.1947   1.2495   1.3181   1.3982   1.5129   1.5597
     1.6392   1.6857   1.6916   1.7643   1.8326   1.8538   1.9466   1.9803
     2.0786   2.1030   2.2722   2.3173   2.4034   2.4505   2.6019   2.6207
     2.7033   2.7640   2.8520   2.8796   2.9513   3.0499   3.1275   3.2054
     3.2837   3.3159   3.4064   3.4433   3.4944   3.5523   3.6188   3.6487
     3.6671   3.8004   3.8567   3.8964   3.9336   4.0357   4.1021   4.1820
     4.2058   4.2639   4.3431   4.4471   4.5007   4.5340   4.5678   4.6597
     4.7074   4.7732   4.8186   4.9463   5.0207   5.0316   5.1090   5.1488
     5.3140   5.3752

     the Fermi energy is     3.6945 ev

!    total energy              =    -500.19011783 Ry
     estimated scf accuracy    <       0.00000089 Ry
     smearing contrib. (-TS)   =      -0.15067687 Ry
     internal energy E=F+TS    =    -500.03944097 Ry

     The total energy is F=E-TS. E is the sum of the following terms:
     one-electron contribution =    -231.76235793 Ry
     hartree contribution      =     200.68939914 Ry
     xc contribution           =    -152.60690489 Ry
     ewald contribution        =    -316.35957729 Ry

     convergence has been achieved in  21 iterations

     Forces acting on atoms (cartesian axes, Ry/au):

     atom    1 type  1   force =     0.09959942    0.13268130   -0.10713316
     atom    2 type  1   force =    -0.03839017   -0.07163696   -0.08366913
     atom    3 type  1   force =     0.10723226    0.08896728    0.04936916
     atom    4 type  1   force =    -0.09073616    0.12283629   -0.01199067
     atom    5 type  1   force =    -0.03224787    0.00554509   -0.02638992
     atom    6 type  1   force =    -0.02622499   -0.02340673    0.02366143
     atom    7 type  1   force =    -0.03238682   -0.02521890    0.05954698
     atom    8 type  1   force =    -0.00203345    0.00669780   -0.04955176
     atom    9 type  1   force =    -0.06157100    0.04589789    0.03893950
     atom   10 type  1   force =     0.07496172   -0.06659968   -0.04485564
     atom   11 type  1   force =     0.04084811   -0.07786265    0.04286453
     atom   12 type  1   force =    -0.00416287   -0.04298607    0.00572705
     atom   13 type  1   force =     0.02884200    0.01903262   -0.00848106
     atom   14 type  1   force =     0.04502238    0.01178042   -0.04116835
     atom   15 type  1   force =    -0.01047412   -0.01661727    0.05066481
     atom   16 type  1   force =    -0.05538896    0.07506429    0.07380163
     atom   17 type  1   force =     0.01024433   -0.11963918   -0.04840793
     atom   18 type  1   force =     0.04637789   -0.04902774    0.06312089
     atom   19 type  1   force =     0.00105562    0.00530279   -0.00786214
     atom   20 type  1   force =     0.07637187    0.03077572    0.00921102
     atom   21 type  1   force =     0.06164668    0.06010602    0.08213664
     atom   22 type  1   force =     0.00127015    0.03128279    0.02706383
     atom   23 type  1   force =    -0.01664161   -0.04033600    0.01048212
     atom   24 type  1   force =     0.00849221    0.00456523   -0.03000374
     atom   25 type  1   force =    -0.01602620   -0.06637530   -0.00108121
     atom   26 type  1   force =    -0.05437821    0.05012978   -0.03564923
     atom   27 type  1   force =     0.00291505   -0.00116329   -0.00127249
     atom   28 type  1   force =     0.04205580   -0.00556866   -0.03108403
     atom   29 type  1   force =     0.01625293   -0.02814739    0.02797525
     atom   30 type  1   force =    -0.10110988   -0.15287669    0.13069307
     atom   31 type  1   force =    -0.01379354   -0.04906625    0.06714646
     atom   32 type  1   force =    -0.02566724    0.06178850    0.01545375
     atom   33 type  1   force =    -0.05059309    0.04369762   -0.00348762
     atom   34 type  1   force =     0.02512381    0.06920970   -0.06874935
     atom   35 type  1   force =     0.01672137   -0.00656727   -0.05777747
     atom   36 type  1   force =    -0.06135967   -0.01528082   -0.10527025
     atom   37 type  1   force =     0.03078147    0.05346278    0.06703521
     atom   38 type  1   force =    -0.00758309   -0.00593577    0.02494108
     atom   39 type  1   force =    -0.00561201    0.00397594   -0.00089041
     atom   40 type  1   force =    -0.02992220   -0.11261591   -0.18749581
     atom   41 type  1   force =    -0.00938234   -0.03369481    0.01598398
     atom   42 type  1   force =    -0.00352829   -0.01021071    0.03198603
     atom   43 type  1   force =    -0.01891184   -0.00960331    0.01731875
     atom   44 type  1   force =     0.03007494   -0.03295778   -0.06501680
     atom   45 type  1   force =    -0.03550290    0.04613799    0.07019235
     atom   46 type  1   force =     0.02544084    0.00752998    0.01395069
     atom   47 type  1   force =     0.07617550    0.04573812   -0.03226959
     atom   48 type  1   force =    -0.02501151   -0.01590168   -0.02710527
     atom   49 type  1   force =     0.00340960    0.00407345    0.02481866
     atom   50 type  1   force =    -0.04132531    0.09677241    0.06915509
     atom   51 type  1   force =     0.03490391   -0.01374053    0.07772972
     atom   52 type  1   force =     0.02453107    0.02823057    0.03453544
     atom   53 type  1   force =    -0.01067610   -0.01782957   -0.07681137
     atom   54 type  1   force =    -0.03104572    0.02397986   -0.06283902
     atom   55 type  1   force =     0.11061442   -0.03617995    0.12447471
     atom   56 type  1   force =    -0.00047664   -0.01216873    0.01737158
     atom   57 type  1   force =    -0.11235324   -0.02472241   -0.00658093
     atom   58 type  1   force =    -0.04328462    0.00929684   -0.06477804
     atom   59 type  1   force =     0.02177694    0.00335845   -0.05383147
     atom   60 type  1   force =     0.05687411   -0.03033167   -0.00014334
     atom   61 type  1   force =     0.03456404   -0.05936298    0.00321992
     atom   62 type  1   force =    -0.08390163    0.08954425    0.01058145
     atom   63 type  1   force =    -0.01778046   -0.03415269   -0.02086818
     atom   64 type  1   force =     0.01530331    0.03032359   -0.01863743

     Total force =     0.728495     Total SCF correction =     0.001639


     Computing stress (Cartesian axis) and pressure

          total   stress  (Ry/bohr**3)                   (kbar)     P=       45.48
   0.00027740  -0.00001628   0.00003251           40.81       -2.39        4.78
  -0.00001628   0.00029201   0.00001761           -2.39       42.96        2.59
   0.00003251   0.00001761   0.00035819            4.78        2.59       52.69

 
     init_run     :      1.11s CPU      5.11s WALL (       1 calls)
     electrons    :      2.89s CPU      3.11s WALL (       1 calls)
     forces       :      0.04s CPU      0.05s WALL (       1 calls)
     stress       :      0.21s CPU      0.21s WALL (       1 calls)

     Called by init_run:
     wfcinit      :      0.55s CPU      4.36s WALL (       1 calls)
                                        4.35s GPU  (       1 calls)
     potinit      :      0.06s CPU      0.15s WALL (       1 calls)
     hinit0       :      0.47s CPU      0.50s WALL (       1 calls)

     Called by electrons:
     c_bands      :      1.55s CPU      1.63s WALL (      22 calls)
     sum_band     :      0.63s CPU      0.70s WALL (      22 calls)
     v_of_rho     :      0.31s CPU      0.42s WALL (      22 calls)
     mix_rho      :      0.31s CPU      0.34s WALL (      22 calls)

     Called by c_bands:
     init_us_2    :      0.08s CPU      0.09s WALL (      45 calls)
     init_us_2:gp :      0.08s CPU      0.08s WALL (      45 calls)
     regterg      :      1.35s CPU      1.42s WALL (      22 calls)

     Called by *egterg:
     rdiaghg      :      0.49s CPU      1.28s WALL (     117 calls)
                                        1.26s GPU  (     117 calls)
     h_psi        :      1.15s CPU      4.21s WALL (     119 calls)
                                        4.20s GPU  (     119 calls)
     g_psi        :      0.00s CPU      0.01s WALL (      96 calls)
                                        0.00s GPU  (      96 calls)

     Called by h_psi:
     h_psi:calbec :      0.51s CPU      3.46s WALL (     119 calls)
                                        3.46s GPU  (     119 calls)
     vloc_psi     :      0.56s CPU      0.66s WALL (     119 calls)
                                        0.65s GPU  (     119 calls)
     add_vuspsi   :      0.05s CPU      0.08s WALL (     119 calls)
                                        0.07s GPU  (     119 calls)

     General routines
     calbec       :      0.52s CPU      3.46s WALL (     124 calls)
     fft          :      0.80s CPU      0.94s WALL (     183 calls)
                                        0.14s GPU  (     116 calls)
     ffts         :      0.12s CPU      0.14s WALL (      22 calls)
     fftw         :      0.64s CPU      0.84s WALL (    2334 calls)
                                        0.72s GPU  (    2334 calls)
 
     Parallel routines
 
     PWSCF        :      4.30s CPU      8.58s WALL

 
   This run was terminated on:  14:32:38  10May2023            

=------------------------------------------------------------------------------=
   JOB DONE.
=------------------------------------------------------------------------------=
