An instance of this daemon is already running

     Program PWSCF v.7.1 starts on 10May2023 at 14:23:28 

     This program is part of the open-source Quantum ESPRESSO suite
     for quantum simulation of materials; please cite
         "P. Giannozzi et al., J. Phys.:Condens. Matter 21 395502 (2009);
         "P. Giannozzi et al., J. Phys.:Condens. Matter 29 465901 (2017);
         "P. Giannozzi et al., J. Chem. Phys. 152 154105 (2020);
          URL http://www.quantum-espresso.org", 
     in publications or presentations arising from this work. More details at
     http://www.quantum-espresso.org/quote

     Parallel version (MPI & OpenMP), running on       4 processor cores
     Number of MPI processes:                 4
     Threads/MPI process:                     1

     MPI processes distributed on     1 nodes
     752725 MiB available memory on the printing compute node when the environment starts
 
     Reading input from pw-si-45.in
Warning: card &CELL ignored
Warning: card / ignored

     Current dimensions of program PWSCF are:
     Max number of different atomic species (ntypx) = 10
     Max number of k-points (npk) =  40000
     Max angular momentum in pseudopotentials (lmaxx) =  4

     IMPORTANT: XC functional enforced from input :
     Exchange-correlation= PBE
                           (   1   4   3   4   0   0   0)
     Any further DFT definition will be discarded
     Please, verify this is what you really want


     gamma-point specific algorithms are used
 
     K-points division:     npool     =       2
     R & G space division:  proc/nbgrp/npool/nimage =       2
     Subspace diagonalization in iterative solution of the eigenvalue problem:
     a serial algorithm will be used

     Message from routine divide_et_impera:
     suboptimal parallelization: some nodes have no k-points
 
     Parallelization info
     --------------------
     sticks:   dense  smooth     PW     G-vecs:    dense   smooth      PW
     Min        2345    2345    614               120688   120688   16265
     Max        2348    2348    615               120689   120689   16266
     Sum        4693    4693   1229               241377   241377   32531
 
     Using Slab Decomposition
 


     bravais-lattice index     =            0
     lattice parameter (alat)  =      22.1490  a.u.
     unit-cell volume          =   10865.8297 (a.u.)^3
     number of atoms/cell      =           64
     number of atomic types    =            1
     number of electrons       =       256.00
     number of Kohn-Sham states=          154
     kinetic-energy cutoff     =      30.0000  Ry
     charge density cutoff     =     120.0000  Ry
     scf convergence threshold =      1.0E-06
     mixing beta               =       0.5000
     number of iterations used =            8  plain     mixing
     Exchange-correlation= PBE
                           (   1   4   3   4   0   0   0)

     GPU acceleration is ACTIVE.
     GPU-aware MPI enabled

     Message from routine print_cuda_info:
     High GPU oversubscription detected. Are you sure this is what you want?

     celldm(1)=  22.149009  celldm(2)=   0.000000  celldm(3)=   0.000000
     celldm(4)=   0.000000  celldm(5)=   0.000000  celldm(6)=   0.000000

     crystal axes: (cart. coord. in units of alat)
               a(1) = (   1.000000   0.000000   0.000000 )  
               a(2) = (   0.000000   1.000000   0.000000 )  
               a(3) = (   0.000000   0.000000   1.000000 )  

     reciprocal axes: (cart. coord. in units 2 pi/alat)
               b(1) = (  1.000000  0.000000  0.000000 )  
               b(2) = (  0.000000  1.000000  0.000000 )  
               b(3) = (  0.000000  0.000000  1.000000 )  


     PseudoPot. # 1 for Si read from file:
     /home/ppiaggi/pseudos/Si_ONCV_PBE_sr.upf
     MD5 check sum: 8553c464762ac42b85b1eed164b4d029
     Pseudo is Norm-conserving, Zval =  4.0
     Generated using ONCVPSP code by D. R. Hamann
     Using radial grid of 1510 points,  4 beta functions with: 
                l(1) =   0
                l(2) =   0
                l(3) =   1
                l(4) =   1

     atomic species   valence    mass     pseudopotential
        Si             4.00    28.08500     Si( 1.00)

     No symmetry found



   Cartesian axes

     site n.     atom                  positions (alat units)
         1           Si  tau(   1) = (   0.6236230   0.2045440   0.6903760  )
         2           Si  tau(   2) = (   0.8730760   0.8376630   0.3936100  )
         3           Si  tau(   3) = (   0.0402466   0.9729370   0.4264120  )
         4           Si  tau(   4) = (   0.8592630   0.5216090   0.4503930  )
         5           Si  tau(   5) = (   0.1398340   0.0776869   0.2694780  )
         6           Si  tau(   6) = (   0.6036080   0.8479280   0.0906557  )
         7           Si  tau(   7) = (   0.3046150   0.7796730   0.3599310  )
         8           Si  tau(   8) = (   0.3732270   0.2148220   0.0015170  )
         9           Si  tau(   9) = (   0.2237310   0.9153560   0.8728250  )
        10           Si  tau(  10) = (   0.8751690   0.8842420   0.7496620  )
        11           Si  tau(  11) = (   0.9433280   0.7176740   0.6602700  )
        12           Si  tau(  12) = (   0.6795380   0.5455060   0.4469570  )
        13           Si  tau(  13) = (   0.7960970   0.1205480   0.1130130  )
        14           Si  tau(  14) = (   0.8195550   0.2588580   0.6180410  )
        15           Si  tau(  15) = (   0.8499790   0.3402700   0.7748890  )
        16           Si  tau(  16) = (   0.3043050   0.0897375   0.5048820  )
        17           Si  tau(  17) = (   0.5236230   0.0312924   0.3713510  )
        18           Si  tau(  18) = (   0.6420360   0.4405650   0.1157770  )
        19           Si  tau(  19) = (   0.5032890   0.8163280   0.6391980  )
        20           Si  tau(  20) = (   0.4765890   0.7318900   0.0354079  )
        21           Si  tau(  21) = (   0.6104280   0.9934390   0.5738670  )
        22           Si  tau(  22) = (   0.0864768   0.0576705   0.8597660  )
        23           Si  tau(  23) = (   0.3104590   0.6853260   0.1873450  )
        24           Si  tau(  24) = (   0.1719260   0.2163240   0.5030780  )
        25           Si  tau(  25) = (   0.3967870   0.3106670   0.1933890  )
        26           Si  tau(  26) = (   0.0964274   0.5550820   0.6424060  )
        27           Si  tau(  27) = (   0.1396880   0.9805020   0.0357972  )
        28           Si  tau(  28) = (   0.4875190   0.7548280   0.2350330  )
        29           Si  tau(  29) = (   0.6276570   0.0016469   0.2162330  )
        30           Si  tau(  30) = (   0.7853730   0.0298654   0.6828900  )
        31           Si  tau(  31) = (   0.4663280   0.1989250   0.8445530  )
        32           Si  tau(  32) = (   0.2312870   0.2943360   0.3083220  )
        33           Si  tau(  33) = (   0.3785130   0.0060291   0.6406160  )
        34           Si  tau(  34) = (   0.6291020   0.0180407   0.0016068  )
        35           Si  tau(  35) = (   0.9118410   0.4614460   0.8915480  )
        36           Si  tau(  36) = (   0.5297030   0.3382370   0.9377080  )
        37           Si  tau(  37) = (   0.4395370   0.9830570   0.8296370  )
        38           Si  tau(  38) = (   0.5514960   0.8169050   0.8713500  )
        39           Si  tau(  39) = (   0.9510140   0.4070000   0.6045530  )
        40           Si  tau(  40) = (   0.9193340   0.4290160   0.2911940  )
        41           Si  tau(  41) = (   0.2266420   0.9307250   0.4433050  )
        42           Si  tau(  42) = (   0.7962890   0.3259030   0.1526780  )
        43           Si  tau(  43) = (   0.2251450   0.3441820   0.9286010  )
        44           Si  tau(  44) = (   0.1281810   0.4914300   0.0362758  )
        45           Si  tau(  45) = (   0.2854930   0.4758210   0.2059480  )
        46           Si  tau(  46) = (   0.1918970   0.7815930   0.5384770  )
        47           Si  tau(  47) = (   0.7201180   0.3797880   0.9213910  )
        48           Si  tau(  48) = (   0.1664950   0.3646840   0.6940460  )
        49           Si  tau(  49) = (   0.8667990   0.2349320   0.3031990  )
        50           Si  tau(  50) = (   0.6234190   0.6027810   0.2637990  )
        51           Si  tau(  51) = (   0.1355870   0.5024920   0.8420820  )
        52           Si  tau(  52) = (   0.9554960   0.3756660   0.0831241  )
        53           Si  tau(  53) = (   0.3518760   0.1188750   0.2905990  )
        54           Si  tau(  54) = (   0.2780820   0.8143830   0.0351501  )
        55           Si  tau(  55) = (   0.9947640   0.3057220   0.4383050  )
        56           Si  tau(  56) = (   0.1059720   0.1620230   0.7035180  )
        57           Si  tau(  57) = (   0.6657840   0.7445710   0.3918350  )
        58           Si  tau(  58) = (   0.6912940   0.8155640   0.7241570  )
        59           Si  tau(  59) = (   0.3008250   0.8272050   0.7032390  )
        60           Si  tau(  60) = (   0.8026560   0.7087000   0.5372950  )
        61           Si  tau(  61) = (   0.2316320   0.6993990   0.8759680  )
        62           Si  tau(  62) = (   0.0293937   0.8995790   0.6329650  )
        63           Si  tau(  63) = (   0.0069251   0.1612900   0.1588740  )
        64           Si  tau(  64) = (   0.4758350   0.5041370   0.1775280  )

     number of k points=     1  Fermi-Dirac smearing, width (Ry)=  0.0100
                       cart. coord. in units 2pi/alat
        k(    1) = (   0.0000000   0.0000000   0.0000000), wk =   2.0000000

     Dense  grid:   120689 G-vectors     FFT dimensions: (  80,  80,  80)

     Estimated max dynamical RAM per process >     193.13 MB

     Estimated total dynamical RAM >     743.06 MB

     Initial potential from superposition of free atoms

     starting charge     255.9608, renormalised to     256.0000
     Starting wfcs are  256 randomized atomic wfcs

     total cpu time spent up to now is        5.1 secs

     Self-consistent Calculation

     iteration #  1     ecut=    30.00 Ry     beta= 0.50
     Davidson diagonalization with overlap
     ethr =  1.00E-02,  avg # of iterations =  3.0

     Threshold (ethr) on eigenvalues was too large:
     Diagonalizing with lowered threshold

     Davidson diagonalization with overlap
     ethr =  8.18E-04,  avg # of iterations =  4.0

     total cpu time spent up to now is        5.4 secs

     total energy              =    -499.37388609 Ry
     estimated scf accuracy    <       2.75613115 Ry

     iteration #  2     ecut=    30.00 Ry     beta= 0.50
     Davidson diagonalization with overlap
     ethr =  1.08E-03,  avg # of iterations =  3.0

     total cpu time spent up to now is        5.6 secs

     total energy              =    -498.91663075 Ry
     estimated scf accuracy    <       6.71614133 Ry

     iteration #  3     ecut=    30.00 Ry     beta= 0.50
     Davidson diagonalization with overlap
     ethr =  1.08E-03,  avg # of iterations =  4.0

     total cpu time spent up to now is        5.7 secs

     total energy              =    -499.61545550 Ry
     estimated scf accuracy    <       4.95395668 Ry

     iteration #  4     ecut=    30.00 Ry     beta= 0.50
     Davidson diagonalization with overlap
     ethr =  1.08E-03,  avg # of iterations =  2.0

     total cpu time spent up to now is        5.9 secs

     total energy              =    -499.96426230 Ry
     estimated scf accuracy    <       1.41443921 Ry

     iteration #  5     ecut=    30.00 Ry     beta= 0.50
     Davidson diagonalization with overlap
     ethr =  5.53E-04,  avg # of iterations =  2.0

     total cpu time spent up to now is        6.0 secs

     total energy              =    -500.07573441 Ry
     estimated scf accuracy    <       0.43750353 Ry

     iteration #  6     ecut=    30.00 Ry     beta= 0.50
     Davidson diagonalization with overlap
     ethr =  1.71E-04,  avg # of iterations =  2.0

     total cpu time spent up to now is        6.1 secs

     total energy              =    -500.11789797 Ry
     estimated scf accuracy    <       0.27031051 Ry

     iteration #  7     ecut=    30.00 Ry     beta= 0.50
     Davidson diagonalization with overlap
     ethr =  1.06E-04,  avg # of iterations =  1.0

     total cpu time spent up to now is        6.2 secs

     total energy              =    -500.13846676 Ry
     estimated scf accuracy    <       0.04533207 Ry

     iteration #  8     ecut=    30.00 Ry     beta= 0.50
     Davidson diagonalization with overlap
     ethr =  1.77E-05,  avg # of iterations = 11.0

     total cpu time spent up to now is        6.4 secs

     total energy              =    -500.14287008 Ry
     estimated scf accuracy    <       0.04808617 Ry

     iteration #  9     ecut=    30.00 Ry     beta= 0.50
     Davidson diagonalization with overlap
     ethr =  1.77E-05,  avg # of iterations =  2.0

     total cpu time spent up to now is        6.5 secs

     total energy              =    -500.14577177 Ry
     estimated scf accuracy    <       0.01846769 Ry

     iteration # 10     ecut=    30.00 Ry     beta= 0.50
     Davidson diagonalization with overlap
     ethr =  7.21E-06,  avg # of iterations =  2.0

     total cpu time spent up to now is        6.7 secs

     total energy              =    -500.14750660 Ry
     estimated scf accuracy    <       0.00679713 Ry

     iteration # 11     ecut=    30.00 Ry     beta= 0.50
     Davidson diagonalization with overlap
     ethr =  2.66E-06,  avg # of iterations =  9.0

     total cpu time spent up to now is        6.8 secs

     total energy              =    -500.14798799 Ry
     estimated scf accuracy    <       0.00120326 Ry

     iteration # 12     ecut=    30.00 Ry     beta= 0.50
     Davidson diagonalization with overlap
     ethr =  4.70E-07,  avg # of iterations =  5.0

     total cpu time spent up to now is        7.0 secs

     total energy              =    -500.14799267 Ry
     estimated scf accuracy    <       0.00366496 Ry

     iteration # 13     ecut=    30.00 Ry     beta= 0.50
     Davidson diagonalization with overlap
     ethr =  4.70E-07,  avg # of iterations =  3.0

     total cpu time spent up to now is        7.1 secs

     total energy              =    -500.14825428 Ry
     estimated scf accuracy    <       0.00036105 Ry

     iteration # 14     ecut=    30.00 Ry     beta= 0.50
     Davidson diagonalization with overlap
     ethr =  1.41E-07,  avg # of iterations =  3.0

     total cpu time spent up to now is        7.2 secs

     total energy              =    -500.14828574 Ry
     estimated scf accuracy    <       0.00025985 Ry

     iteration # 15     ecut=    30.00 Ry     beta= 0.50
     Davidson diagonalization with overlap
     ethr =  1.02E-07,  avg # of iterations =  2.0

     total cpu time spent up to now is        7.4 secs

     total energy              =    -500.14830242 Ry
     estimated scf accuracy    <       0.00013236 Ry

     iteration # 16     ecut=    30.00 Ry     beta= 0.50
     Davidson diagonalization with overlap
     ethr =  5.17E-08,  avg # of iterations =  2.0

     total cpu time spent up to now is        7.5 secs

     total energy              =    -500.14831160 Ry
     estimated scf accuracy    <       0.00003815 Ry

     iteration # 17     ecut=    30.00 Ry     beta= 0.50
     Davidson diagonalization with overlap
     ethr =  1.49E-08,  avg # of iterations =  4.0

     total cpu time spent up to now is        7.6 secs

     total energy              =    -500.14831330 Ry
     estimated scf accuracy    <       0.00006045 Ry

     iteration # 18     ecut=    30.00 Ry     beta= 0.50
     Davidson diagonalization with overlap
     ethr =  1.49E-08,  avg # of iterations =  2.0

     total cpu time spent up to now is        7.7 secs

     total energy              =    -500.14831802 Ry
     estimated scf accuracy    <       0.00000395 Ry

     iteration # 19     ecut=    30.00 Ry     beta= 0.50
     Davidson diagonalization with overlap
     ethr =  1.54E-09,  avg # of iterations =  4.0

     total cpu time spent up to now is        7.9 secs

     total energy              =    -500.14831832 Ry
     estimated scf accuracy    <       0.00000480 Ry

     iteration # 20     ecut=    30.00 Ry     beta= 0.50
     Davidson diagonalization with overlap
     ethr =  1.54E-09,  avg # of iterations =  2.0

     total cpu time spent up to now is        8.0 secs

     total energy              =    -500.14831870 Ry
     estimated scf accuracy    <       0.00000308 Ry

     iteration # 21     ecut=    30.00 Ry     beta= 0.50
     Davidson diagonalization with overlap
     ethr =  1.20E-09,  avg # of iterations =  2.0

     total cpu time spent up to now is        8.1 secs

     End of self-consistent calculation

          k = 0.0000 0.0000 0.0000 ( 15048 PWs)   bands (ev):

    -8.5676  -8.3083  -8.1020  -7.7573  -7.6635  -7.6179  -7.3827  -7.2571
    -7.0802  -6.9799  -6.9038  -6.7852  -6.5738  -6.2133  -6.1502  -5.8649
    -5.7306  -5.5345  -5.4873  -5.3675  -5.1879  -5.0234  -4.9985  -4.7873
    -4.6400  -4.5412  -4.5055  -4.3491  -4.2558  -4.0556  -3.9210  -3.8431
    -3.7770  -3.6147  -3.4183  -3.2634  -3.1026  -3.0338  -2.9317  -2.8293
    -2.7593  -2.5141  -2.4887  -2.4647  -2.3401  -2.1595  -2.0757  -1.9139
    -1.8469  -1.6492  -1.5620  -1.4429  -1.3222  -1.2166  -1.1159  -1.1000
    -0.9808  -0.7741  -0.6313  -0.5486  -0.5243  -0.3406  -0.1998  -0.1688
    -0.0962  -0.0659   0.0706   0.0975   0.2189   0.2975   0.3587   0.4310
     0.5089   0.5494   0.6000   0.7263   0.8327   0.8731   0.9616   0.9901
     1.0358   1.1628   1.1920   1.2545   1.3322   1.4213   1.4750   1.5450
     1.6345   1.7184   1.7442   1.8050   1.8654   1.9023   2.0127   2.0633
     2.1018   2.1784   2.2109   2.2844   2.3529   2.4106   2.4864   2.5485
     2.5645   2.6290   2.7215   2.7498   2.7968   2.9157   3.0069   3.0949
     3.1393   3.1629   3.3177   3.3673   3.4475   3.4899   3.5786   3.6533
     3.7100   3.7551   3.8408   3.9561   3.9672   4.0774   4.1034   4.1709
     4.1980   4.2191   4.2791   4.4194   4.4693   4.5348   4.5477   4.5798
     4.7196   4.7617   4.8521   4.8733   4.9574   5.0195   5.0462   5.0898
     5.1490   5.2027   5.2458   5.2964   5.3655   5.4060   5.4961   5.5710
     5.6321   5.6931

     the Fermi energy is     4.1792 ev

!    total energy              =    -500.14831831 Ry
     estimated scf accuracy    <       0.00000088 Ry
     smearing contrib. (-TS)   =      -0.15015405 Ry
     internal energy E=F+TS    =    -499.99816425 Ry

     The total energy is F=E-TS. E is the sum of the following terms:
     one-electron contribution =    -108.98353557 Ry
     hartree contribution      =     143.96744799 Ry
     xc contribution           =    -150.98912237 Ry
     ewald contribution        =    -383.99295430 Ry

     convergence has been achieved in  21 iterations

     Forces acting on atoms (cartesian axes, Ry/au):

     atom    1 type  1   force =     0.00652925   -0.05660730   -0.00175145
     atom    2 type  1   force =    -0.00593984    0.00271090   -0.01043288
     atom    3 type  1   force =    -0.07023692   -0.00015015    0.00686597
     atom    4 type  1   force =     0.09744435   -0.00860426    0.04690061
     atom    5 type  1   force =     0.03399981    0.00362477    0.00597215
     atom    6 type  1   force =     0.09209089    0.02966251    0.05347594
     atom    7 type  1   force =     0.03486719   -0.02987652    0.00202151
     atom    8 type  1   force =    -0.07142627    0.01848468    0.10196432
     atom    9 type  1   force =     0.04803573   -0.00625589   -0.09013480
     atom   10 type  1   force =     0.05043631   -0.03629805    0.08716427
     atom   11 type  1   force =     0.07667933   -0.03492986    0.04926553
     atom   12 type  1   force =    -0.11887062   -0.00105222    0.02448274
     atom   13 type  1   force =    -0.02016158   -0.03123132    0.00907530
     atom   14 type  1   force =    -0.04723205   -0.10309923   -0.08712912
     atom   15 type  1   force =    -0.00448156   -0.03820496    0.03136142
     atom   16 type  1   force =     0.03849514    0.06416302   -0.11690321
     atom   17 type  1   force =    -0.04357618   -0.01270794    0.04794314
     atom   18 type  1   force =     0.03717532   -0.00480861   -0.04509607
     atom   19 type  1   force =    -0.00032556    0.02049793   -0.01230930
     atom   20 type  1   force =    -0.09707981   -0.09386139   -0.08268560
     atom   21 type  1   force =    -0.01827825    0.01233277   -0.00273878
     atom   22 type  1   force =    -0.02981287   -0.02866867    0.03882914
     atom   23 type  1   force =    -0.05578669   -0.02656270   -0.01415131
     atom   24 type  1   force =    -0.07942496    0.07605775    0.01160867
     atom   25 type  1   force =     0.03735600   -0.04972112   -0.01773348
     atom   26 type  1   force =    -0.00262028    0.03130282   -0.00569944
     atom   27 type  1   force =    -0.01896513    0.03612440    0.08186541
     atom   28 type  1   force =     0.02561935    0.03350485    0.09477543
     atom   29 type  1   force =     0.06261902    0.00731557   -0.05194587
     atom   30 type  1   force =    -0.07010433    0.09761496   -0.05161654
     atom   31 type  1   force =     0.03801605   -0.12205326   -0.14646018
     atom   32 type  1   force =    -0.03572238   -0.00312619    0.01268957
     atom   33 type  1   force =     0.08631977   -0.07127331    0.09926449
     atom   34 type  1   force =     0.00465493    0.05359268   -0.02831834
     atom   35 type  1   force =     0.06690205    0.07049217    0.07106442
     atom   36 type  1   force =     0.03421798    0.10201225    0.06214689
     atom   37 type  1   force =    -0.00241502    0.01497677    0.02608227
     atom   38 type  1   force =     0.00826096    0.03071776   -0.01796796
     atom   39 type  1   force =     0.00780295    0.06967679   -0.01995921
     atom   40 type  1   force =     0.04986832    0.02387652   -0.04067811
     atom   41 type  1   force =     0.02573806    0.07467481   -0.08216846
     atom   42 type  1   force =    -0.13716941   -0.01135681   -0.01833932
     atom   43 type  1   force =    -0.00307496   -0.01061296   -0.00568652
     atom   44 type  1   force =     0.01449711   -0.01627150    0.06137681
     atom   45 type  1   force =    -0.07866445    0.01729137   -0.01283926
     atom   46 type  1   force =    -0.02927003   -0.12981875    0.09803173
     atom   47 type  1   force =    -0.01138315    0.01153390    0.03413289
     atom   48 type  1   force =     0.00806115   -0.05414630   -0.00375706
     atom   49 type  1   force =     0.01106303   -0.09062189    0.06431819
     atom   50 type  1   force =     0.03209060   -0.03186174   -0.03878180
     atom   51 type  1   force =    -0.03157674    0.04966063   -0.02462546
     atom   52 type  1   force =     0.11691380    0.02357079   -0.04388072
     atom   53 type  1   force =     0.01736849   -0.01351264    0.01478761
     atom   54 type  1   force =     0.00896584   -0.01513656    0.02094220
     atom   55 type  1   force =     0.02264211   -0.02077576   -0.00230814
     atom   56 type  1   force =     0.01334580    0.05105927   -0.05077252
     atom   57 type  1   force =    -0.00855010    0.08687012    0.01130173
     atom   58 type  1   force =    -0.02403161    0.00363555   -0.02743558
     atom   59 type  1   force =    -0.01771974   -0.03796858   -0.00277178
     atom   60 type  1   force =    -0.03868291   -0.00232788   -0.01442783
     atom   61 type  1   force =     0.00508593   -0.00065150   -0.02888348
     atom   62 type  1   force =     0.05566253    0.02224486   -0.03667673
     atom   63 type  1   force =    -0.05485650    0.04507357   -0.03219649
     atom   64 type  1   force =    -0.04138526    0.00979911   -0.00044756

     Total force =     0.704078     Total SCF correction =     0.001629


     Computing stress (Cartesian axis) and pressure

          total   stress  (Ry/bohr**3)                   (kbar)     P=       26.75
   0.00018769  -0.00001849   0.00000866           27.61       -2.72        1.27
  -0.00001849   0.00011471   0.00002331           -2.72       16.87        3.43
   0.00000866   0.00002331   0.00024322            1.27        3.43       35.78

 
     init_run     :      1.14s CPU      5.06s WALL (       1 calls)
     electrons    :      2.77s CPU      2.98s WALL (       1 calls)
     forces       :      0.04s CPU      0.05s WALL (       1 calls)
     stress       :      0.20s CPU      0.20s WALL (       1 calls)

     Called by init_run:
     wfcinit      :      0.57s CPU      4.30s WALL (       1 calls)
                                        4.30s GPU  (       1 calls)
     potinit      :      0.07s CPU      0.16s WALL (       1 calls)
     hinit0       :      0.47s CPU      0.50s WALL (       1 calls)

     Called by electrons:
     c_bands      :      1.44s CPU      1.53s WALL (      22 calls)
     sum_band     :      0.64s CPU      0.70s WALL (      22 calls)
     v_of_rho     :      0.31s CPU      0.42s WALL (      22 calls)
     mix_rho      :      0.30s CPU      0.32s WALL (      22 calls)

     Called by c_bands:
     init_us_2    :      0.08s CPU      0.09s WALL (      45 calls)
     init_us_2:gp :      0.08s CPU      0.08s WALL (      45 calls)
     regterg      :      1.24s CPU      1.31s WALL (      22 calls)

     Called by *egterg:
     rdiaghg      :      0.44s CPU      1.20s WALL (      95 calls)
                                        1.18s GPU  (      95 calls)
     h_psi        :      1.13s CPU      4.15s WALL (      97 calls)
                                        4.15s GPU  (      97 calls)
     g_psi        :      0.00s CPU      0.01s WALL (      74 calls)
                                        0.00s GPU  (      74 calls)

     Called by h_psi:
     h_psi:calbec :      0.52s CPU      3.43s WALL (      97 calls)
                                        3.43s GPU  (      97 calls)
     vloc_psi     :      0.55s CPU      0.65s WALL (      97 calls)
                                        0.65s GPU  (      97 calls)
     add_vuspsi   :      0.04s CPU      0.06s WALL (      97 calls)
                                        0.06s GPU  (      97 calls)

     General routines
     calbec       :      0.53s CPU      3.43s WALL (     102 calls)
     fft          :      0.79s CPU      0.93s WALL (     183 calls)
                                        0.14s GPU  (     116 calls)
     ffts         :      0.12s CPU      0.13s WALL (      22 calls)
     fftw         :      0.64s CPU      0.85s WALL (    2296 calls)
                                        0.73s GPU  (    2296 calls)
 
     Parallel routines
 
     PWSCF        :      4.20s CPU      8.39s WALL

 
   This run was terminated on:  14:23:37  10May2023            

=------------------------------------------------------------------------------=
   JOB DONE.
=------------------------------------------------------------------------------=
