11.090387451345807 0.0 0.0 0.0 11.18412340608458 0.0 0.0 0.0 10.818961308861569
11.106767073475973 0.0 0.0 0.0 10.877423440175768 0.0 0.0 0.0 11.070436838378633
10.868363745100162 0.0 0.0 0.0 10.99346948017001 0.0 0.0 0.0 11.074036660612437
10.98221780900905 0.0 0.0 0.0 10.81798972389313 0.0 0.0 0.0 10.837933431434289
10.76349352265749 0.0 0.0 0.0 11.021063922654683 0.0 0.0 0.0 10.917034757758199
11.187710019265731 0.0 0.0 0.0 11.057026378530688 0.0 0.0 0.0 10.822867607827456
10.826085132038754 0.0 0.0 0.0 11.105354824104825 0.0 0.0 0.0 11.0687843085288
10.929306438300197 0.0 0.0 0.0 11.04996598137903 0.0 0.0 0.0 10.935864022163177
11.13384295451859 0.0 0.0 0.0 11.039539304693818 0.0 0.0 0.0 11.079309391727358
11.16355043381835 0.0 0.0 0.0 11.192129122928925 0.0 0.0 0.0 10.92878096819515
10.970542043083938 0.0 0.0 0.0 10.979384299970665 0.0 0.0 0.0 11.141463088115184
11.010032950611738 0.0 0.0 0.0 11.03889024697529 0.0 0.0 0.0 10.978698396834297
10.93886761210073 0.0 0.0 0.0 11.176809860399144 0.0 0.0 0.0 10.906619830380256
10.95935629525376 0.0 0.0 0.0 10.824150716639215 0.0 0.0 0.0 10.920045084222686
11.025311354971322 0.0 0.0 0.0 10.814760984025435 0.0 0.0 0.0 11.010008222810622
11.023083518924153 0.0 0.0 0.0 10.829396918413137 0.0 0.0 0.0 11.047929549175809
10.92369980577769 0.0 0.0 0.0 10.764323025611395 0.0 0.0 0.0 10.833065868489154
11.088693025924657 0.0 0.0 0.0 10.785672311605214 0.0 0.0 0.0 10.763650167255728
11.033756494039435 0.0 0.0 0.0 10.822316618344157 0.0 0.0 0.0 10.850022380900691
10.777247896657014 0.0 0.0 0.0 11.157490756946867 0.0 0.0 0.0 10.845974406493998
11.17255015060082 0.0 0.0 0.0 11.067517006635022 0.0 0.0 0.0 10.870634327881135
10.800992607173047 0.0 0.0 0.0 10.766613047704414 0.0 0.0 0.0 10.936555865385676
10.995072581754375 0.0 0.0 0.0 10.857150391288847 0.0 0.0 0.0 10.93350017529655
11.128060635162912 0.0 0.0 0.0 10.87859177184383 0.0 0.0 0.0 10.88747196423069
11.169836529876383 0.0 0.0 0.0 11.15842095694285 0.0 0.0 0.0 11.06157847422882
11.189814557023354 0.0 0.0 0.0 10.879946212310262 0.0 0.0 0.0 11.18418608030117
11.093479433774215 0.0 0.0 0.0 11.16333507376869 0.0 0.0 0.0 11.117319321077396
10.964435867276748 0.0 0.0 0.0 11.074288550230994 0.0 0.0 0.0 10.829441732878838
10.923747431726442 0.0 0.0 0.0 10.834565957693828 0.0 0.0 0.0 11.120986615353695
11.171536776246823 0.0 0.0 0.0 11.183009944516026 0.0 0.0 0.0 11.096318819132353
11.176286141691795 0.0 0.0 0.0 11.172787964129446 0.0 0.0 0.0 10.848731547451091
10.836809966520455 0.0 0.0 0.0 10.972172559812263 0.0 0.0 0.0 10.945134718945793
10.862072886447255 0.0 0.0 0.0 11.011035354011993 0.0 0.0 0.0 11.07793486091962
11.03566417787555 0.0 0.0 0.0 10.83608419121867 0.0 0.0 0.0 10.990903523970086
11.00972338194485 0.0 0.0 0.0 11.082706838243762 0.0 0.0 0.0 11.064783008577956
10.898625802114275 0.0 0.0 0.0 10.774610339112016 0.0 0.0 0.0 10.984332595422103
11.107403144480415 0.0 0.0 0.0 10.776058201277419 0.0 0.0 0.0 10.774547594449771
11.021483287046092 0.0 0.0 0.0 11.075708984818359 0.0 0.0 0.0 10.88273383394547
10.869194553317277 0.0 0.0 0.0 11.124685840487553 0.0 0.0 0.0 10.85049953868557
10.791381690714928 0.0 0.0 0.0 10.94688550087813 0.0 0.0 0.0 11.18704770040499
10.825005610533713 0.0 0.0 0.0 11.003336752961648 0.0 0.0 0.0 11.047578550891897
10.769578531376347 0.0 0.0 0.0 11.039851874199767 0.0 0.0 0.0 11.024602150999337
10.890337828677042 0.0 0.0 0.0 10.842888626757496 0.0 0.0 0.0 11.005720957971874
10.969112735444174 0.0 0.0 0.0 11.007515599130963 0.0 0.0 0.0 10.976494948315127
10.879215582111868 0.0 0.0 0.0 11.12928523148229 0.0 0.0 0.0 10.78742764024559
10.957150155472135 0.0 0.0 0.0 11.061275953399587 0.0 0.0 0.0 11.157271545911678
11.130007478112445 0.0 0.0 0.0 10.912137581728393 0.0 0.0 0.0 10.78160485402509
11.089205269462344 0.0 0.0 0.0 10.844721560886507 0.0 0.0 0.0 10.813949016263749
10.788292354172562 0.0 0.0 0.0 11.16024030966737 0.0 0.0 0.0 10.820150181494434
11.079402261677595 0.0 0.0 0.0 10.861514736799444 0.0 0.0 0.0 10.974380607639153
10.924091396911873 0.0 0.0 0.0 11.185155333115272 0.0 0.0 0.0 11.110784118885098
10.776945207293837 0.0 0.0 0.0 10.817746721848652 0.0 0.0 0.0 10.865251496322403
10.934513012853188 0.0 0.0 0.0 10.854592657242243 0.0 0.0 0.0 10.884061169811883
11.162917008699951 0.0 0.0 0.0 10.88823110986687 0.0 0.0 0.0 10.935003732133325
11.017962141901709 0.0 0.0 0.0 11.090162847817592 0.0 0.0 0.0 10.972204545126392
11.168102416164608 0.0 0.0 0.0 10.887928230850287 0.0 0.0 0.0 10.86826120249542
10.931323132641232 0.0 0.0 0.0 10.851076289524512 0.0 0.0 0.0 10.971506676476821
11.100451872671483 0.0 0.0 0.0 10.971908639985948 0.0 0.0 0.0 11.190054720187689
10.90225013681429 0.0 0.0 0.0 10.85885918126977 0.0 0.0 0.0 10.870339250663834
11.098822536046963 0.0 0.0 0.0 11.190132549051022 0.0 0.0 0.0 10.838066799385077
10.998714379302264 0.0 0.0 0.0 10.937748505497792 0.0 0.0 0.0 10.847790020589478
10.9716924743349 0.0 0.0 0.0 11.003861476669648 0.0 0.0 0.0 10.795125027345428
11.013936690877763 0.0 0.0 0.0 11.181689960616522 0.0 0.0 0.0 11.148482941493526
10.98354868968806 0.0 0.0 0.0 10.860510977266173 0.0 0.0 0.0 10.76316378522947
10.97841619994424 0.0 0.0 0.0 10.884836180255915 0.0 0.0 0.0 10.864559045534618
10.864851066791111 0.0 0.0 0.0 11.003117161467095 0.0 0.0 0.0 10.918577755316393
11.17390590260862 0.0 0.0 0.0 11.15269782920547 0.0 0.0 0.0 10.943343528214193
11.074671946612124 0.0 0.0 0.0 10.827629239499048 0.0 0.0 0.0 10.965464606546583
10.99571024029044 0.0 0.0 0.0 10.827959684864569 0.0 0.0 0.0 10.802878469806467
11.019237988151048 0.0 0.0 0.0 10.917816921708106 0.0 0.0 0.0 10.883899707180577
11.044739566998812 0.0 0.0 0.0 10.882801595467477 0.0 0.0 0.0 11.019193084380344
11.0738596595973 0.0 0.0 0.0 10.830290116384457 0.0 0.0 0.0 11.149759893704179
10.9922488921706 0.0 0.0 0.0 10.999525760937217 0.0 0.0 0.0 11.1834700538988
11.03439150668946 0.0 0.0 0.0 10.815469179196741 0.0 0.0 0.0 10.843364120925651
10.988741505633634 0.0 0.0 0.0 10.789131016183799 0.0 0.0 0.0 11.007246546329121
11.044367026244133 0.0 0.0 0.0 10.781466913551418 0.0 0.0 0.0 11.186044166456794
10.782820132660978 0.0 0.0 0.0 11.17876528793229 0.0 0.0 0.0 11.089925632859295
10.877425375616006 0.0 0.0 0.0 11.070336514652556 0.0 0.0 0.0 10.818404465527914
11.099014627373595 0.0 0.0 0.0 10.958046042591324 0.0 0.0 0.0 10.7825928193618
10.808687902136924 0.0 0.0 0.0 11.051018684902836 0.0 0.0 0.0 11.164012708231775
10.789799980039161 0.0 0.0 0.0 11.052488450353195 0.0 0.0 0.0 11.082872527096985
10.948031373817786 0.0 0.0 0.0 10.888802524085431 0.0 0.0 0.0 10.770903174220788
11.084469662624787 0.0 0.0 0.0 10.851429772437763 0.0 0.0 0.0 11.001735181062955
10.831944182089646 0.0 0.0 0.0 10.865566536830853 0.0 0.0 0.0 10.814753886672671
10.79089643521487 0.0 0.0 0.0 10.917333368746283 0.0 0.0 0.0 11.037425255173789
11.038880516947923 0.0 0.0 0.0 10.774510367447538 0.0 0.0 0.0 11.081777606636784
11.123265231300813 0.0 0.0 0.0 10.789789739666414 0.0 0.0 0.0 10.949631061040208
10.808261385306992 0.0 0.0 0.0 10.921250949828991 0.0 0.0 0.0 11.186193861167022
10.780869585470986 0.0 0.0 0.0 10.906466716141722 0.0 0.0 0.0 11.102441363466415
11.044429469154718 0.0 0.0 0.0 11.107305406122615 0.0 0.0 0.0 10.861445361709762
10.894255856727693 0.0 0.0 0.0 10.907634002919755 0.0 0.0 0.0 10.915031202646473
11.114127399266962 0.0 0.0 0.0 10.834140301824629 0.0 0.0 0.0 11.083941429250553
11.156979640422223 0.0 0.0 0.0 11.149694132717027 0.0 0.0 0.0 10.819904971525787
11.053948308778581 0.0 0.0 0.0 10.95901700070279 0.0 0.0 0.0 11.103834777496099
10.773728339044256 0.0 0.0 0.0 11.051528924266512 0.0 0.0 0.0 10.928816158484798
11.139245324638672 0.0 0.0 0.0 11.197815476555622 0.0 0.0 0.0 11.038869585018354
11.18894458969282 0.0 0.0 0.0 10.769437490191468 0.0 0.0 0.0 10.911570653314335
11.164348962225755 0.0 0.0 0.0 10.844233584431857 0.0 0.0 0.0 10.930098592300336
11.141507028027176 0.0 0.0 0.0 10.964501905872908 0.0 0.0 0.0 10.81331165550258
11.132023114099063 0.0 0.0 0.0 11.143110609120706 0.0 0.0 0.0 11.005585595569126
