-0.019911681630146262 0.00888561842601826 -0.0012942482155720557 0.013847457771750376 2.7619556360768853 2.690560157820102 2.7646927436998774 -0.0032705552594018785 2.7468826904917614 2.7893333665392777 2.8060609979321427 -0.032265264212200356 1.4091823368853327 1.4299446512329974 1.3820275232107126 5.587485809179865 0.029175482268255417 0.01665221675819573 5.587869536585681 2.835035744187529 2.7052948465879596 6.903801677702609 1.3672906163653642 1.3825654070021027 8.317034224085173 0.05036921268777725 2.749849369134996 8.329182634499377 2.755493267308986 -0.022452489395249582 0.01829913929472058 5.577065281130581 0.028324849550737188 2.728446030392644 5.634134196877716 2.726220189631159 1.3832130856292613 7.021346476221933 1.38559086469883 4.108846593764245 4.1681968022101215 1.3725518961722827 5.555809444541332 5.62114957124968 -0.01706367013264066 6.925785043708666 7.000824823281963 1.385648534713577 9.723558195098418 4.236332815594954 1.3119861812617382 8.367465542942677 5.598069365924685 2.716824413382379 0.03178172331932168 8.371292835652136 2.658795070081957 2.7817785946074207 8.356417298963647 0.003402530870072893 4.14659938168737 9.799856733647442 1.384790138724843 5.51191258197016 8.427910372630004 2.6910059913956457 8.293357355915296 8.351172654737905 0.03658386108575441 9.715802687153692 9.749186971459734 1.3956154659161015 0.04105439626739191 -0.040056261396770786 5.438058364815412 2.74637918690147 2.8174663523871066 5.385597505054312 1.3707785432188127 1.3634367067260216 6.783395559220838 4.204508948803317 1.4160861030737955 4.082574574930751 5.516831168804832 -0.02591601739630488 5.364515787548048 6.979800775790446 1.4353900314716082 6.793963589423225 9.751803193859505 1.4330055981695689 4.0161531354458955 8.288834695912637 2.8184899951488656 5.458130857063604 1.3554616091097587 4.156655035989506 4.102784587983338 0.00346463703980043 5.6048711005485945 5.38949134008848 1.4293657330080372 7.0358782108994316 6.797929511975827 6.959609616396526 4.153903510862826 4.025123040816545 4.1448138293077035 7.0409343185385 4.074935516054264 4.1732418194617384 4.194665120901503 6.783038448744905 5.5947699756579095 5.583216010011097 5.436598869826815 6.971431969419661 6.978271411360907 6.736699482856946 9.701692387199344 7.016560974036677 4.030053827077412 9.751605784962873 4.244788126987861 6.761877989487736 1.386736501722554 9.776473760745025 4.042411845814447 2.729229011746709 8.406015729723556 5.424454895567592 6.909565352061074 9.74659847502859 4.072373636553003 4.204871604472977 9.822279278996573 6.712816333480473 8.282163827860652 8.388339870203602 5.44949033620026 9.673325394176294 9.74850158551524 6.767504143041804 0.007545899621895686 2.8358420153552415 8.102853334508547 2.7575627336074073 -0.0131587447110218 8.140026095167968 4.157937084778881 1.3970195089674418 9.487829791742573 5.5009053724246995 2.842865557728179 8.089067982906524 8.334143364806366 0.04751232888031057 8.119412392012151 9.743120529523846 1.38748732095301 9.420695240344596 1.3857439120456587 4.20646418411099 9.508842748846638 2.8159669320036844 5.5766815537247645 8.110156354645259 6.936630333597338 4.175290214024002 9.513559490629696 4.137198060244864 6.953904721091554 9.460378864723001 8.314211720478806 5.572285324139051 8.162967670649822 9.65768240267617 6.966331500230787 9.490664494775137 0.04974593291301162 8.35887160170663 8.07530148496317 1.3765300181510804 9.746032865268571 9.432767127085388 5.569953015658032 8.35824277673814 8.065020695795772 6.953495485794599 9.830551598996532 9.488754730056014
-0.03657569464966373 0.01157991535080605 -0.017595340397800637 0.034294364692771764 2.644014771616079 2.8067633402204293 2.761930874928344 0.006377505653589904 2.815657639292869 2.7809556562485005 2.7161321209008658 -0.029918298465822227 1.4108304234480415 1.3675540162229496 1.4315189984758052 5.474874243002414 -0.007269379049590025 0.018071820705252758 5.530443620024429 2.7160188318767164 2.851038245805427 6.85995029496048 1.3577000924753617 1.3539759934756253 8.217701478564381 -0.022547847835863572 2.8589940230601574 8.290510779437845 2.6810114127378273 0.05081123800773789 0.042865456843373166 5.313858330061525 0.010679156541147148 2.736847352169606 5.342570433623169 2.7805780261680026 1.4099418820821634 6.717905850857796 1.3806322344519677 4.103425083566797 3.986986180275304 1.4356351663532354 5.528285575182053 5.3242998017873004 0.010649168270048763 6.8955430407241405 6.628907326298033 1.438167509245988 9.636374390243002 3.9809229961298933 1.4372656397596217 8.233446431567739 5.292510013069598 2.818025602032934 -0.030521395917911975 8.040400823740361 2.8458891485901634 2.732992193318402 7.966175410065028 0.043303063466068124 4.14898282074878 9.321300953932758 1.375141048810841 5.475276307970474 8.012511731618861 2.7744248772092965 8.212950003610347 7.977432118493995 0.03833833858422436 9.57973209952169 9.29921514760715 1.4460755274023027 0.04767024427935888 0.03493966785974072 5.595316025147188 2.7749257924043107 2.7041712434394394 5.575648162013477 1.4160994737476984 1.3824093171837237 6.972474062858573 4.127186901043791 1.3434356715228966 4.2052241571787405 5.509188599875919 -0.04263110405812283 5.579182335296256 6.8740114620755 1.377143598914189 7.05823829684654 9.581211520895875 1.3085926325366952 4.23736714108938 8.293709528355006 2.6470235948162832 5.619344405033946 1.3555398262795706 4.025026857501959 4.205186394170691 -0.019261355458822033 5.3574546121783335 5.61678429522351 1.4128929500935858 6.65374427882774 7.036146937137396 6.844279757296513 3.9746032456650857 4.202913949627457 4.142285440203475 6.653433289349683 4.216226520641726 4.173775346210193 4.040015439667615 7.022848804920322 5.495074120278946 5.329360044865976 5.594607413407901 6.8781887171718346 6.648209776795026 6.987811397510335 9.671386252088721 6.722131975729252 4.242541783868912 9.604635692653838 4.038801470026485 7.002173558013047 1.337346941813217 9.34237604445468 4.244959727060808 2.703198290643803 7.9844693661117505 5.608235416607055 6.905563565977831 9.305479364236591 4.2486338456087145 4.083170783131606 9.324881775637246 7.0113122059611035 8.273777324164945 7.983427551360258 5.5696682786211165 9.632769133650951 9.324137622243324 7.062106783818231 -0.01684452294363366 2.6320372340040423 8.461975938841459 2.7337474534793986 -0.02666845842012316 8.436404829008195 4.163698176444428 1.364935040547024 9.853155159306398 5.514144439344103 2.6327325176228418 8.442491337364459 8.292144584874352 -0.03247729759955109 8.411963277386302 9.601948965698764 1.362347163818904 9.841194281844972 1.4043251899731064 4.023144260483005 9.845180500547643 2.7230749609984954 5.348173797611738 8.472863902603587 6.839742642946997 3.98743156163495 9.79917849268272 4.159864120450664 6.654218537781777 9.849714282867035 8.298027839393171 5.311211587467917 8.466528602664877 9.575966905483781 6.6762121579406735 9.861977264392861 -0.01316596168889842 8.022242370251934 8.47178654619746 1.378154314717875 9.357612307526074 9.78146542055394 5.5324928185494855 8.045797601861363 8.452359699909243 6.839910355129807 9.35885293340818 9.82108325870503
0.04787948964266425 0.00408867844090668 0.036177522398314906 0.00880120096078211 2.724286879910671 2.772635882867124 2.7065681864970346 0.04942388413084299 2.714771627451836 2.707735448763258 2.7928249553600217 -0.04812511466330351 1.389329021609142 1.3385639813921535 1.379475763037834 5.359446656093274 -0.010396676758562816 -0.028087112426462345 5.390469313567288 2.800722995293586 2.7759039998452755 6.7082160310420775 1.3426591808513073 1.3923482530575308 8.012823983585413 0.015077681023577453 2.7396982197012227 8.063182546998336 2.7978157079917714 -0.02698723401545821 0.03934456359363709 5.553968630403077 0.016764451076817 2.6556803337697263 5.5415450038060525 2.716135607101846 1.3675662100459534 6.918505827473271 1.4181454012429007 4.0172950278288635 4.199643347907779 1.325371961478351 5.365664446991846 5.583236047132257 -0.03765344619489951 6.744105541801146 6.978598097456303 1.3884019501816849 9.394495156099758 4.141366094670177 1.3779498447680218 8.094186728253982 5.591201470921041 2.7419316684508415 0.03200733122931998 8.277890333291912 2.7365116154511595 2.6855933313053657 8.30301907710696 0.005045094450475495 3.9837878624027194 9.758752714362288 1.343935126754982 5.360724775669698 8.330588855419155 2.754592225377509 8.060527405735407 8.301771388949021 0.0025149393706161774 9.44624921741755 9.736464960830212 1.3581900726430554 0.025267858870983366 0.04716761181736019 5.507779171322776 2.6479387982740916 2.8058659050177677 5.515905446894987 1.340173586062803 1.4209092261432794 6.907286415579204 4.013559571209672 1.398400844827177 4.102535604681684 5.324535298071264 0.0005010315686491175 5.45785099511416 6.722284041073734 1.3551534518126744 6.889931812351027 9.374473456408534 1.3488628428770104 4.102432355226105 8.03069700776423 2.764843266061887 5.445056757313428 1.347612981046324 4.11470925891257 4.11454514662002 0.00135202444989046 5.542717700254149 5.502682995562699 1.3216995413688817 6.891585977313032 6.86937647599992 6.727003084611857 4.178409825658977 4.16735669973021 4.027062426326585 6.947943877513248 4.13553739119368 4.054725672566988 4.116914449916451 6.910582790303093 5.382021334428222 5.575761873384752 5.462533086215549 6.761556873466654 6.90434326267703 6.816477975979768 9.366805825786367 6.965773428237085 4.121891073675332 9.44494066642264 4.134123417070442 6.8569343731845285 1.314563373733849 9.679587552842978 4.127189401001068 2.7131174624898318 8.309472711498799 5.458531354684603 6.738574631491265 9.690689586408599 4.075541849647979 4.0322542436876185 9.735369429764706 6.817456128716827 8.01849074844211 8.306003529791363 5.538242108063916 9.389805457143748 9.691543839798962 6.837341973861237 0.02097920253716684 2.80021544270669 8.206572130396566 2.7192417854601953 0.0010455365922786355 8.20520923758293 3.9930509688226676 1.4340708146385959 9.564353552562805 5.3596205499131955 2.781675100993924 8.193385544664634 8.047244091566146 0.004284308988318483 8.280473743354124 9.404665770892422 1.3582400671162829 9.634313209990015 1.3148861641370784 4.178155505947341 9.619859373045406 2.6918839402410297 5.538355139046866 8.282615897848281 6.761697075358965 4.182720218720283 9.599627913933903 4.033065023623003 6.930960972325155 9.642544908690553 8.10020562809602 5.517682424367312 8.245026574999478 9.36938271483033 6.9168092758926605 9.577247779309992 -0.03894460780781741 8.34273316506793 8.241177000560965 1.350698509513558 9.752194743678494 9.59890190723573 5.377255556925995 8.344522097740372 8.271251936716405 6.682253683727781 9.712997989831791 9.606002209270402
0.018548965879416287 0.03562301990708266 -0.04836019612197136 -0.012241878191702388 2.7349851658328723 2.6904072455243235 2.7622001997853776 0.013993541932239333 2.6790417483137805 2.8160580941425386 2.7232913003098393 -0.03618750590246572 1.4347916136500436 1.3554813312987228 1.3888200499015317 5.510422232743449 0.028367068600670373 -0.040241042495770964 5.587403186697478 2.7220129701568707 2.647021994069833 6.971583249574704 1.3522196126094472 1.3673113763225875 8.360257235979375 0.017146536665205832 2.663613928735684 8.353954541178785 2.713397420285703 -0.029220386924430377 -0.03592612911861131 5.41569401481006 0.03486744332182284 2.800609408350606 5.41614538396201 2.708156705947244 1.3847566293121985 6.7096815157090175 1.3143573184911075 4.194445037125512 4.013130817542335 1.3154544420502277 5.5116555358034 5.403508145929184 0.03996319238520303 6.942024610341756 6.734559533711765 1.3274195683531431 9.71883665092202 4.055658357785941 1.3237591951574001 8.330168155626254 5.397666704276572 2.650434169143092 0.02071465923135287 8.097897543631055 2.6769122962806136 2.7510422664914245 8.124846807912581 0.01556839196605123 4.131932056913071 9.489174315656461 1.3709442939738077 5.5386926578274 8.079833991778795 2.727697366094814 8.336579574383153 8.094778593773295 -0.014081399674711404 9.709123977491732 9.423056971559102 1.3648832079650155 0.04032890023824304 -0.018619252073393943 5.395953478298366 2.807055970204494 2.6793734112916123 5.418183683587363 1.3823240680675026 1.3240436345986537 6.7432124231234845 4.13648967730381 1.372960629163542 4.015887354212396 5.545953002020935 -0.03962933296380916 5.413440463715651 6.965411243166041 1.3731022997732778 6.714580683073616 9.72187103770265 1.3495707016739142 4.043863455859065 8.366814718233135 2.6573496716974256 5.383220694970602 1.3963813068630344 4.022069244617087 4.071786842860251 0.039295473542415284 5.407492494550292 5.402082654057574 1.3867839467197416 6.708878715587179 6.736381483646281 6.908619998432092 4.066124411357927 4.019057920493857 4.211430135188926 6.714596058178549 4.06199619568352 4.134822576640402 4.027539487307754 6.727009258968073 5.5465636133311165 5.418876661531111 5.407629772272905 6.949034559969246 6.709481639344894 6.731804095263486 9.733958066623245 6.785536792337624 4.05206168145349 9.681133598961912 4.045316403275197 6.741175221719913 1.427761896030497 9.436745207836251 3.988874393067576 2.7596852719071143 8.086846137849848 5.327697896393595 6.900269120010122 9.428005558903843 3.985064661709631 4.187902929976685 9.449219909045505 6.746771759915384 8.294340866467921 8.093245476167159 5.4096373216883915 9.700723679089622 9.486760424182041 6.753083240490222 -0.039076927408016 2.7453457901138916 8.070679215013206 2.806268545187588 0.03835100281084051 8.038302538690466 4.1634081913754715 1.375606245433732 9.423835610801762 5.503587998600902 2.7440389061946195 8.106247323831244 8.361097375641766 0.018656591613944576 8.08625199986638 9.717201398690259 1.3745486578587245 9.409477459238262 1.3795949869419641 4.037533305513953 9.394080389870034 2.7379218108750014 5.376657721607938 8.018238026753407 6.911819118479858 4.071763780202853 9.37374242070953 4.146854694471952 6.749129642078978 9.445411275909342 8.312700938201024 5.356008955683438 8.019111113069222 9.665242329792274 6.783040534229636 9.415391383528416 0.003897589100417312 8.085061527455885 8.072046501130426 1.4281319967706605 9.440976656358064 9.446798330018618 5.5280146474517 8.146798064869229 8.055944373378859 6.965176223704928 9.477025786316135 9.424478070543588
-0.019034161945467504 0.04157722277932135 -0.026931337143041304 -0.014649114684336844 2.7486281342082477 2.746463595660842 2.681054921873004 -0.018204296594870613 2.7835879611698395 2.6582987438674017 2.815620117893268 -0.020243978617414206 1.308097054952735 1.3932685791975237 1.3815848069786791 5.363303515177671 0.02907004330599335 0.03099132689978771 5.3790386663584435 2.8441315358854355 2.7362705672948846 6.696137230944178 1.4390887711234768 1.4306125199743838 8.103670668107279 0.05049154811478628 2.7729116519447157 8.087607230374065 2.8216939572881037 0.04274398547717742 -0.014402630682667988 5.635310989036805 0.022927317552612715 2.696509145872836 5.64001140665815 2.732702469192124 1.300725138239067 6.99813395045614 1.4101080648137214 4.033936720674812 4.171093765935332 1.3882032791457612 5.412758538866226 5.622702632724365 0.04274398547717742 6.761446880591606 7.018898882160051 1.3655224455948174 9.445585543358852 4.146691849770116 1.4243966024650494 8.105316406266894 5.628998200085767 2.8111177485527405 -0.03662601575889891 8.342722477498741 2.7157973262654376 2.6748508442065444 8.384014467699712 6.242826243141344e-05 4.071870500896715 9.764641323754875 1.3613558972521966 5.4108673930542945 8.4033909087392 2.7477196953549354 8.059965502658528 8.440209591032154 0.026081021154751364 9.412524396654657 9.8044867004264 1.4108206080849215 -0.012750434426940063 -0.03731272664564445 5.535843392695223 2.686754191693251 2.832870768962031 5.5603475620489045 1.300822009680771 1.3477314671512166 6.910734383052161 3.9925876839581713 1.4367789254135144 4.105490272914735 5.398396809458943 -0.009602112571562746 5.493537481404417 6.6963298974782335 1.3644148821113358 6.899294942136281 9.379847506669222 1.3545738199835702 4.165120027030258 8.069630043492523 2.8341053416690802 5.579924204067914 1.331827329122138 4.177817720338937 4.129795317638248 0.03821793645089994 5.549159986881454 5.483095816338087 1.3551819573676003 7.003285358456084 6.922519332110119 6.711661417651906 4.236113877607002 4.123777448409729 3.997437714139481 7.032419982723213 4.176901747040159 4.052398264764875 4.170771937479005 6.9310806148580415 5.343356608981482 5.615304883626242 5.556183166404989 6.697359963808352 6.968420250237491 6.875547446377242 9.464521757513262 7.0233398995875 4.152316851485057 9.416940658047004 4.220310916417036 6.920910189828482 1.3202630316813948 9.839305525622844 4.1266050181581315 2.7146090365805366 8.412560328871152 5.5252295117325305 6.706746806509461 9.805983902375402 4.185118597995355 4.005204651065431 9.824147297694887 6.91275253808766 8.034384983952581 8.36684992457913 5.48537229521813 9.459625444309808 9.833411436569838 6.923104866157751 -0.024700064935794408 2.769718123416543 8.3199716812399 2.699539069299464 -0.007909015040448723 8.329092665650998 4.054446557582236 1.3802049271090742 9.674345300243948 5.413771383606708 2.810916471223867 8.319859740907265 8.025770960086398 0.01595903184604426 8.247924084647288 9.377778763214167 1.4141745126665815 9.695593512807026 1.3468036540095636 4.150653891735806 9.641062425573187 2.6832711251893193 5.614239297767499 8.310619281718061 6.7074765713702975 4.181898160733375 9.71807952712521 4.052928904995541 6.949818780731635 9.679313728854007 8.063769321269435 5.615878577830999 8.279309355410003 9.389350595100376 6.959624323330776 9.705465789066007 -0.017124718194548066 8.358717028873409 8.312077735090384 1.3624559262902123 9.747924541964835 9.728777363337379 5.421719147223838 8.354312607323939 8.338932651429413 6.689387444156119 9.823151674544041 9.64877446868217
0.009228741994892303 0.02515220966531322 0.009016175504526254 -0.028179603996526522 2.7667385881004463 2.725379861701225 2.891698596389633 0.04026680590134122 2.737884365189758 2.8305723051573706 2.7193832491308982 -0.024215798336700678 1.404012856577772 1.3454698075889584 1.3641051761680496 5.655909880796727 0.04018289807619673 0.009303699652021383 5.681521905343831 2.7907921646418674 2.74062647291548 7.111232931835858 1.3925510476630345 1.3914960466082176 8.597709280194636 -0.009008344107512766 2.702488688230805 8.536388322808039 2.786610198636666 -0.022949349562519792 -0.018916180100574498 5.5239295844704515 -0.04769880166713945 2.833437477693305 5.537221702744341 2.690540213930229 1.3791123703878925 6.850825555885425 1.3253766803943572 4.316110004645532 4.0962748590799665 1.4044066639704504 5.72085229991656 5.486541376357067 0.0437182144422847 7.100499442843374 6.882490131552952 1.342539746334913 10.035774169758048 4.096211089132856 1.3682546978141952 8.558076817451386 5.555957760713605 2.7100135419897633 -0.039766715263480044 8.272583239324755 2.7413436051277147 2.874322963958711 8.312485325879466 0.012696932100864679 4.283133110592744 9.628270782474308 1.3212472966262463 5.679032639864546 8.281929452274849 2.7665853164731824 8.560863676017187 8.26205896050963 -0.04043350278062828 9.96470424186066 9.637651677325461 1.3269015652699832 -0.033654869279955174 -0.022293749755390824 5.417246938039739 2.8766164445126607 2.793116970783871 5.395416359479145 1.4561106658244871 1.3474690513694014 6.75605782062523 4.259248468472614 1.3389574415867438 4.119453556697881 5.694094653863482 0.008104377137956096 5.427024996596577 7.094186218079503 1.3478337707160293 6.841488293103345 9.95393718973812 1.335772300544259 4.131337142280345 8.535399329242335 2.7587718197957267 5.410683108571435 1.427300074982874 4.179702731464633 4.0730290352019365 0.03147214705519643 5.50081689434165 5.416640564156694 1.4508289479243917 6.912289715960268 6.818272676042367 7.094413328592893 4.18072305061839 4.130758737672349 4.309994802349002 6.925476669759976 4.034126011151943 4.256639494496121 4.111907446289886 6.77033110106781 5.724753454400279 5.482118874586451 5.451244151246283 7.103902744231235 6.926997079551596 6.786860942621275 10.007135869650732 6.905122868921927 4.04261412674356 10.034193346332325 4.125310322892966 6.805046565257591 1.420777640041642 9.595598194134045 4.039328296310902 2.8836098820457035 8.216709577946537 5.488486919129417 7.096603882214666 9.649988365163706 4.045009415458685 4.242469140985719 9.60842937875514 6.82711320449959 8.594364154898875 8.22051563689509 5.466848769181156 9.97184088208195 9.61119945575591 6.772762190454996 -0.051371726866464386 2.726224533807679 8.189299688399336 2.8493564702797176 -0.028344063333809733 8.156481659828822 4.305854230870871 1.425222517232296 9.523591854908046 5.722650164916656 2.7512749353118173 8.208954257361182 8.533859900343684 -0.016554454515507504 8.169353120205987 9.969292321739562 1.3401847333758574 9.510483215078473 1.4385515549492496 4.08501107263257 9.541531347923938 2.845712633126443 5.482942290043869 8.18149178557689 7.1829785974184075 4.0841988448851705 9.487943335702658 4.239348888661347 6.927345017333194 9.496687649853715 8.562969203042812 5.460249139040791 8.181498498202902 10.03044546347587 6.869341215967309 9.547016682146385 0.011078070461076929 8.291515082219355 8.192597825313015 1.3937134507340363 9.620967445373731 9.518422014108143 5.752312140490735 8.238315283535742 8.143351763350212 7.158545757507333 9.631968320635675 9.531972568483479
0.0476293615384045 0.048689235272831095 0.050911830550438644 0.004708264423923654 2.758858908972017 2.758658626397074 2.696933702016755 -0.034576350694705375 2.8232730328991344 2.6709532629168886 2.8047398577615965 0.03232669020426772 1.324960172361182 1.384165866731275 1.4412312440707646 5.343604055982481 -0.030385573140093172 0.0101960069773541 5.328909810632765 2.7104803823424755 2.809822704731089 6.6756141749816456 1.3721012774601313 1.4253147337096415 7.951705399056805 0.007882472584637416 2.7626751039810604 8.01250685837536 2.790838081843546 0.02966455587029939 -0.020028257494271697 5.545498635001358 0.024427978491932244 2.650963979329092 5.563778479746806 2.8386374129185232 1.2962364032888565 6.853875410157283 1.3867056663032515 3.9979249218956032 4.153911486912071 1.369110030138149 5.279013466867711 5.532790976273372 0.0006625564100807718 6.663162011862775 6.850044058629054 1.3941594259166603 9.310132248386658 4.142039601956276 1.358889123164991 7.950399773189881 5.4781668811311555 2.7753827627090475 0.02135661813997285 8.236809268400531 2.7908954600947458 2.6533348919730084 8.293436189292175 -0.023063891765295365 3.96525179696711 9.621357295936969 1.4470751648250393 5.267587616619357 8.301204987982926 2.843859916386219 8.012662754001262 8.306221795833112 0.03640595908201992 9.289695847482909 9.697591339611247 1.383303027746252 -0.010005467879030217 -0.006820433633184415 5.599171117260466 2.6708969672742016 2.762094825817983 5.65131820412447 1.286016578924212 1.3847537231539448 7.0127373833848194 3.9399349968858375 1.3832553929716709 4.26036546462392 5.35213934150058 0.04398421867444705 5.584266845859188 6.682561273810874 1.4259632162090508 7.0009542723271085 9.319633220698535 1.4076768758125238 4.251026883589024 7.936313953824586 2.765794099107601 5.602093077637604 1.3700085952041081 4.1719618186527185 4.224121896818882 0.03349157696447509 5.5096328975674265 5.637532267317332 1.3014502458884463 6.856277718448082 6.972035633722407 6.635919251236513 4.099220270042037 4.2370493250750485 4.0299160034607775 6.871988533191697 4.193813188883226 3.9375868190206984 4.159169716460701 7.059769145023935 5.267495594895735 5.466047078825839 5.616680144744513 6.6258325877189925 6.87639908027449 7.0158065785197525 9.269648103035399 6.882590518361503 4.205645017324031 9.258780878779858 4.127003252316388 6.996248173120211 1.3391152786713223 9.633732593851402 4.259230890902083 2.6580269172692343 8.252145500598578 5.59292771396482 6.640445637430218 9.602970272948713 4.206534921521884 4.0102103633034405 9.624512017144443 7.069617634668551 7.975476234181222 8.278253687503003 5.611864702077782 9.311746417679844 9.677416929967691 7.054081119895563 -0.004905299173326759 2.7427626855977016 8.431559713840777 2.6819135915045647 0.04885054394129847 8.440188103691012 3.971346882896448 1.339479035131759 9.836357933616693 5.33839995685951 2.755480087802307 8.431080118269428 7.963510162284779 -0.021375022484697314 8.432777648418131 9.32795414973102 1.381270971566968 9.796839475059212 1.3688188084480972 4.132401138363222 9.782017481904937 2.7000678536624805 5.557784076409196 8.376552375284888 6.674742675128518 4.1583079600841915 9.806012416991587 3.9628581495444166 6.921247220542473 9.836944707430849 7.94747673020423 5.504493754955249 8.425867358278351 9.258080431071816 6.894065085992951 9.873399383895963 -0.018265770834775787 8.300570579394188 8.428273997003203 1.2887902219350402 9.623840799866258 9.877639961442181 5.282552514097374 8.252755009191512 8.407373157047289 6.5992469704602446 9.655974785755175 9.875235487934356
0.009250564969377286 0.04033351247990304 0.0021454228538383287 -0.017097806992076827 2.687621374519826 2.729230337061079 2.763679510954601 0.0070876552252376775 2.6958216331404827 2.7220792918584986 2.7410842628240593 0.03954878827763309 1.3995905885290656 1.3532787454274124 1.3166284092172165 5.50173635589525 -0.006342276526145604 -0.04928024273029558 5.56202678193149 2.7273406599778967 2.663452306262169 6.944105342754467 1.3265030375842208 1.3498906604315395 8.267143790197746 -0.04745067683252414 2.735272057660171 8.31456605083353 2.7388361044897005 0.03691373249535891 -0.0200749500658698 5.508691766512585 0.02905228237428958 2.731387782151999 5.454297701299809 2.6734023468435977 1.3639195181757415 6.861056821921756 1.3455703055964794 4.109793003081063 4.133854964135626 1.3402564768061778 5.591182892716944 5.500964746860706 -0.021074981604974268 6.943836481816086 6.859730004120146 1.3871060417845955 9.684208153860366 4.10316328579559 1.360715045528032 8.332021246146141 5.495452004693228 2.72290991914781 0.04242756759348136 8.194084655449641 2.713237482949914 2.805369350363497 8.227951297310003 -0.029221686624083237 4.207329412528386 9.596139802580545 1.3218274802899161 5.509685240467826 8.147937844875207 2.7596793847981833 8.332148026100825 8.154412366009256 0.026005191739291486 9.718538198313711 9.564100540756666 1.3357306510100777 -0.04574351916686164 0.027585569450269697 5.421586287129976 2.7440679634817147 2.699623938850367 5.393961372176529 1.3639654212627825 1.3735209138817883 6.733586135070573 4.1775295655937175 1.3603959097800336 4.08922623422547 5.577411966604685 0.012740292515126539 5.412144459297929 6.974062571701848 1.3241237275726028 6.745837887587907 9.677652755858675 1.3854218356624532 4.020514777578521 8.295342493739204 2.6831993771348897 5.454739245279916 1.410713343691324 4.124621886056549 4.046946212268906 -0.003938922040363391 5.469714580961676 5.377735723838229 1.3815299096397746 6.8386233275265 6.755857875730541 6.918449888821201 4.126731242199141 4.044474003152563 4.1584295096621435 6.7954569388177894 4.0234908277216705 4.195806644750486 4.120108082497532 6.744824740881077 5.556858312916817 5.486812387953751 5.387365535741014 6.970219827558141 6.875325031476956 6.799051587705347 9.746415580245884 6.792375967332833 4.0437220668696074 9.735726718549227 4.105504343234675 6.741554692394737 1.3469211678722532 9.588605138721979 4.048687250784527 2.8203304779468863 8.186076752622299 5.405848085858824 6.894652416982447 9.532615394769211 4.038538296825922 4.136636472624173 9.59737153541614 6.743972254978889 8.358558695108977 8.21399894471087 5.424861800269535 9.670036122201823 9.528304876309948 6.778578810885123 -0.02666641477880865 2.6974960028868304 8.153159867491427 2.73438131918545 0.020221402772143023 8.165269539025063 4.138437622325205 1.323607864308715 9.534957545138939 5.57390365923799 2.6887110263717244 8.124360052095861 8.287925866390175 -0.047900964257782105 8.10117680727894 9.694839090232902 1.4030125543748975 9.473670366355528 1.3367853290813736 4.119980209612203 9.526119015022285 2.784126057439373 5.459775469686685 8.175442537457833 6.907174123368807 4.140111992071552 9.515603929297997 4.141261755108862 6.827930094107268 9.49925587272759 8.297685737039577 5.41392265745544 8.177786873688849 9.700783540004693 6.874928297653246 9.46561874630243 -0.013926122263682112 8.160718575824154 8.184235164487447 1.4334626950426455 9.605981643028233 9.446936189876801 5.54842635299967 8.16811334456031 8.114913852541239 6.971924799362517 9.582383084566656 9.536246110368015