An instance of this daemon is already running
An instance of this daemon is already running

     Program PWSCF v.7.1 starts on  8May2023 at 15:20: 9 

     This program is part of the open-source Quantum ESPRESSO suite
     for quantum simulation of materials; please cite
         "P. Giannozzi et al., J. Phys.:Condens. Matter 21 395502 (2009);
         "P. Giannozzi et al., J. Phys.:Condens. Matter 29 465901 (2017);
         "P. Giannozzi et al., J. Chem. Phys. 152 154105 (2020);
          URL http://www.quantum-espresso.org", 
     in publications or presentations arising from this work. More details at
     http://www.quantum-espresso.org/quote

     Parallel version (MPI & OpenMP), running on       4 processor cores
     Number of MPI processes:                 4
     Threads/MPI process:                     1

     MPI processes distributed on     1 nodes
     183889 MiB available memory on the printing compute node when the environment starts
 
     Reading input from pw-si-76.in
Warning: card &CELL ignored
Warning: card / ignored

     Current dimensions of program PWSCF are:
     Max number of different atomic species (ntypx) = 10
     Max number of k-points (npk) =  40000
     Max angular momentum in pseudopotentials (lmaxx) =  4

     IMPORTANT: XC functional enforced from input :
     Exchange-correlation= PBE
                           (   1   4   3   4   0   0   0)
     Any further DFT definition will be discarded
     Please, verify this is what you really want


     gamma-point specific algorithms are used
 
     K-points division:     npool     =       2
     R & G space division:  proc/nbgrp/npool/nimage =       2
     Subspace diagonalization in iterative solution of the eigenvalue problem:
     a serial algorithm will be used

     Message from routine divide_et_impera:
     suboptimal parallelization: some nodes have no k-points
 
     Parallelization info
     --------------------
     sticks:   dense  smooth     PW     G-vecs:    dense   smooth      PW
     Min        2052    2052    543               100108   100108   13590
     Max        2055    2055    546               100111   100111   13591
     Sum        4107    4107   1089               200219   200219   27181
 
     Using Slab Decomposition
 


     bravais-lattice index     =            0
     lattice parameter (alat)  =      20.3766  a.u.
     unit-cell volume          =    9020.9360 (a.u.)^3
     number of atoms/cell      =           64
     number of atomic types    =            1
     number of electrons       =       256.00
     number of Kohn-Sham states=          128
     kinetic-energy cutoff     =      30.0000  Ry
     charge density cutoff     =     120.0000  Ry
     scf convergence threshold =      1.0E-06
     mixing beta               =       0.5000
     number of iterations used =            8  plain     mixing
     Exchange-correlation= PBE
                           (   1   4   3   4   0   0   0)

     GPU acceleration is ACTIVE.
     GPU-aware MPI enabled

     Message from routine print_cuda_info:
     High GPU oversubscription detected. Are you sure this is what you want?

     celldm(1)=  20.376577  celldm(2)=   0.000000  celldm(3)=   0.000000
     celldm(4)=   0.000000  celldm(5)=   0.000000  celldm(6)=   0.000000

     crystal axes: (cart. coord. in units of alat)
               a(1) = (   1.000000   0.000000   0.000000 )  
               a(2) = (   0.000000   1.036720   0.000000 )  
               a(3) = (   0.000000   0.000000   1.028481 )  

     reciprocal axes: (cart. coord. in units 2 pi/alat)
               b(1) = (  1.000000  0.000000  0.000000 )  
               b(2) = (  0.000000  0.964581  0.000000 )  
               b(3) = (  0.000000  0.000000  0.972308 )  


     PseudoPot. # 1 for Si read from file:
     /home/ppiaggi/pseudos/Si_ONCV_PBE_sr.upf
     MD5 check sum: 8553c464762ac42b85b1eed164b4d029
     Pseudo is Norm-conserving, Zval =  4.0
     Generated using ONCVPSP code by D. R. Hamann
     Using radial grid of 1510 points,  4 beta functions with: 
                l(1) =   0
                l(2) =   0
                l(3) =   1
                l(4) =   1

     atomic species   valence    mass     pseudopotential
        Si             4.00    28.08500     Si( 1.00)

     No symmetry found



   Cartesian axes

     site n.     atom                  positions (alat units)
         1           Si  tau(   1) = (  -0.0002469   0.0008028  -0.0022797  )
         2           Si  tau(   2) = (  -0.0044457   0.2664603   0.2527387  )
         3           Si  tau(   3) = (   0.2489110   0.0019295   0.2528672  )
         4           Si  tau(   4) = (   0.2486635   0.2615836   0.0025343  )
         5           Si  tau(   5) = (   0.1285107   0.1363301   0.1290806  )
         6           Si  tau(   6) = (   0.4938794  -0.0002530   0.0012776  )
         7           Si  tau(   7) = (   0.4936261   0.2671266   0.2521763  )
         8           Si  tau(   8) = (   0.6179512   0.1307089   0.1276925  )
         9           Si  tau(   9) = (   0.7421148   0.0005615   0.2505385  )
        10           Si  tau(  10) = (   0.7429152   0.2593725   0.0020939  )
        11           Si  tau(  11) = (  -0.0022039   0.5247891   0.0018136  )
        12           Si  tau(  12) = (   0.2451984   0.5323960   0.2556643  )
        13           Si  tau(  13) = (   0.1265294   0.6641698   0.1241357  )
        14           Si  tau(  14) = (   0.3765456   0.3943114   0.1304033  )
        15           Si  tau(  15) = (   0.4974291   0.5321626  -0.0013940  )
        16           Si  tau(  16) = (   0.6242866   0.6594615   0.1295584  )
        17           Si  tau(  17) = (   0.8690168   0.3924553   0.1300795  )
        18           Si  tau(  18) = (   0.7494582   0.5243132   0.2485506  )
        19           Si  tau(  19) = (   0.0012147   0.7911310   0.2543994  )
        20           Si  tau(  20) = (   0.2452744   0.7950134   0.0025495  )
        21           Si  tau(  21) = (   0.3689063   0.9240702   0.1236249  )
        22           Si  tau(  22) = (   0.4995301   0.7934464   0.2482378  )
        23           Si  tau(  23) = (   0.7472637   0.7900339   0.0029526  )
        24           Si  tau(  24) = (   0.8685424   0.9285160   0.1257966  )
        25           Si  tau(  25) = (  -0.0031716   0.0012970   0.5078312  )
        26           Si  tau(  26) = (   0.2464690   0.2680192   0.5038941  )
        27           Si  tau(  27) = (   0.1218393   0.1280224   0.6276349  )
        28           Si  tau(  28) = (   0.3717415   0.1357634   0.3746687  )
        29           Si  tau(  29) = (   0.5002492   0.0034975   0.5094370  )
        30           Si  tau(  30) = (   0.6259848   0.1356268   0.6294018  )
        31           Si  tau(  31) = (   0.8730674   0.1277881   0.3811244  )
        32           Si  tau(  32) = (   0.7452399   0.2656831   0.5058589  )
        33           Si  tau(  33) = (   0.1218214   0.3988394   0.3805984  )
        34           Si  tau(  34) = (   0.0023994   0.5296624   0.5044273  )
        35           Si  tau(  35) = (   0.1251076   0.6586679   0.6341940  )
        36           Si  tau(  36) = (   0.6238296   0.3945454   0.3807952  )
        37           Si  tau(  37) = (   0.3688059   0.6559253   0.3779705  )
        38           Si  tau(  38) = (   0.3704691   0.3959942   0.6296888  )
        39           Si  tau(  39) = (   0.4954412   0.5310171   0.5065739  )
        40           Si  tau(  40) = (   0.6226113   0.6641451   0.6298720  )
        41           Si  tau(  41) = (   0.8659133   0.6564543   0.3797455  )
        42           Si  tau(  42) = (   0.8664041   0.3964189   0.6356200  )
        43           Si  tau(  43) = (   0.1279826   0.9252132   0.3826279  )
        44           Si  tau(  44) = (   0.2464154   0.7964054   0.5058075  )
        45           Si  tau(  45) = (   0.6188949   0.9273687   0.3756761  )
        46           Si  tau(  46) = (   0.3726147   0.9254663   0.6289730  )
        47           Si  tau(  47) = (   0.7440803   0.7882774   0.5053071  )
        48           Si  tau(  48) = (   0.8709061   0.9206464   0.6282061  )
        49           Si  tau(  49) = (   0.0033363   0.2677193   0.7598621  )
        50           Si  tau(  50) = (   0.2530628  -0.0032084   0.7547946  )
        51           Si  tau(  51) = (   0.3723684   0.1282536   0.8826817  )
        52           Si  tau(  52) = (   0.4986860   0.2599376   0.7568051  )
        53           Si  tau(  53) = (   0.7433059  -0.0040877   0.7605019  )
        54           Si  tau(  54) = (   0.8728697   0.1318474   0.8804833  )
        55           Si  tau(  55) = (   0.1263609   0.3996278   0.8807967  )
        56           Si  tau(  56) = (   0.2488530   0.5240012   0.7534891  )
        57           Si  tau(  57) = (   0.6252421   0.3947163   0.8806891  )
        58           Si  tau(  58) = (   0.3688636   0.6576174   0.8826174  )
        59           Si  tau(  59) = (   0.7484489   0.5236118   0.7539057  )
        60           Si  tau(  60) = (   0.8683455   0.6645375   0.8814163  )
        61           Si  tau(  61) = (  -0.0010395   0.7903709   0.7582393  )
        62           Si  tau(  62) = (   0.1237924   0.9261084   0.8815485  )
        63           Si  tau(  63) = (   0.5013592   0.7959394   0.7600576  )
        64           Si  tau(  64) = (   0.6173639   0.9259445   0.8792894  )

     number of k points=     1
                       cart. coord. in units 2pi/alat
        k(    1) = (   0.0000000   0.0000000   0.0000000), wk =   2.0000000

     Dense  grid:   100110 G-vectors     FFT dimensions: (  72,  75,  75)

     Estimated max dynamical RAM per process >     147.16 MB

     Estimated total dynamical RAM >     564.19 MB

     Initial potential from superposition of free atoms

     starting charge     255.9608, renormalised to     256.0000
     Starting wfcs are  256 randomized atomic wfcs

     total cpu time spent up to now is        4.5 secs

     Self-consistent Calculation

     iteration #  1     ecut=    30.00 Ry     beta= 0.50
     Davidson diagonalization with overlap
     ethr =  1.00E-02,  avg # of iterations =  2.0

     Threshold (ethr) on eigenvalues was too large:
     Diagonalizing with lowered threshold

     Davidson diagonalization with overlap
     ethr =  6.38E-04,  avg # of iterations =  2.0

     total cpu time spent up to now is        4.7 secs

     total energy              =    -503.65499688 Ry
     estimated scf accuracy    <       1.82318151 Ry

     iteration #  2     ecut=    30.00 Ry     beta= 0.50
     Davidson diagonalization with overlap
     ethr =  7.12E-04,  avg # of iterations =  1.0

     total cpu time spent up to now is        4.7 secs

     total energy              =    -503.63123533 Ry
     estimated scf accuracy    <       0.35828171 Ry

     iteration #  3     ecut=    30.00 Ry     beta= 0.50
     Davidson diagonalization with overlap
     ethr =  1.40E-04,  avg # of iterations =  2.0

     total cpu time spent up to now is        4.8 secs

     total energy              =    -503.65736250 Ry
     estimated scf accuracy    <       0.00652661 Ry

     iteration #  4     ecut=    30.00 Ry     beta= 0.50
     Davidson diagonalization with overlap
     ethr =  2.55E-06,  avg # of iterations = 20.0

     total cpu time spent up to now is        5.0 secs

     total energy              =    -503.66356983 Ry
     estimated scf accuracy    <       0.00400297 Ry

     iteration #  5     ecut=    30.00 Ry     beta= 0.50
     Davidson diagonalization with overlap
     ethr =  1.56E-06,  avg # of iterations = 16.0

     total cpu time spent up to now is        5.2 secs

     total energy              =    -503.66396113 Ry
     estimated scf accuracy    <       0.00038441 Ry

     iteration #  6     ecut=    30.00 Ry     beta= 0.50
     Davidson diagonalization with overlap
     ethr =  1.50E-07,  avg # of iterations = 16.0

     total cpu time spent up to now is        5.3 secs

     total energy              =    -503.66407922 Ry
     estimated scf accuracy    <       0.00010446 Ry

     iteration #  7     ecut=    30.00 Ry     beta= 0.50
     Davidson diagonalization with overlap
     ethr =  4.08E-08,  avg # of iterations =  7.0

     total cpu time spent up to now is        5.5 secs

     total energy              =    -503.66409724 Ry
     estimated scf accuracy    <       0.00004431 Ry

     iteration #  8     ecut=    30.00 Ry     beta= 0.50
     Davidson diagonalization with overlap
     ethr =  1.73E-08,  avg # of iterations =  5.0

     total cpu time spent up to now is        5.6 secs

     total energy              =    -503.66410255 Ry
     estimated scf accuracy    <       0.00000613 Ry

     iteration #  9     ecut=    30.00 Ry     beta= 0.50
     Davidson diagonalization with overlap
     ethr =  2.39E-09,  avg # of iterations = 17.0

     total cpu time spent up to now is        5.7 secs

     total energy              =    -503.66410513 Ry
     estimated scf accuracy    <       0.00000386 Ry

     iteration # 10     ecut=    30.00 Ry     beta= 0.50
     Davidson diagonalization with overlap
     ethr =  1.51E-09,  avg # of iterations = 11.0

     total cpu time spent up to now is        5.9 secs

     total energy              =    -503.66410503 Ry
     estimated scf accuracy    <       0.00000175 Ry

     iteration # 11     ecut=    30.00 Ry     beta= 0.50
     Davidson diagonalization with overlap
     ethr =  6.83E-10,  avg # of iterations = 15.0

     total cpu time spent up to now is        6.0 secs

     End of self-consistent calculation

          k = 0.0000 0.0000 0.0000 ( 12510 PWs)   bands (ev):

    -5.9689  -5.0563  -5.0181  -4.9523  -4.8425  -4.7626  -4.7220  -4.2933
    -4.2400  -4.1142  -4.0248  -3.9691  -3.9186  -3.9123  -3.8886  -3.8549
    -3.7780  -3.7466  -3.6857  -3.6383  -3.5577  -3.5363  -3.2087  -2.2401
    -2.1198  -2.0376  -1.9960  -1.9383  -1.8932  -1.8608  -1.7810  -1.7715
    -1.7584  -1.6968  -1.6695  -1.6321  -1.6214  -1.5472  -1.4895  -1.4629
    -1.3953  -1.1548  -0.9989  -0.9307  -0.7710   0.2047   0.2400   0.2903
     0.2976   0.3508   0.3918   0.4243   0.4641   0.4764   0.5282   0.5466
     0.5757   1.8286   1.8328   1.8529   1.9119   1.9413   1.9805   2.0211
     2.0228   2.0681   2.0867   2.0985   2.1168   2.1369   2.1710   2.1854
     2.2072   2.2377   2.2550   2.2614   2.2829   2.3089   2.3277   2.3677
     2.3992   2.4185   2.4514   2.5907   2.6004   2.6194   2.6484   2.9127
     2.9663   3.0403   3.0864   3.1286   3.2397   3.8257   3.8503   3.8619
     3.8733   3.9406   3.9552   3.9887   4.0121   4.0791   4.1230   4.2181
     4.2301   4.2790   4.3416   4.3602   4.4160   4.4262   4.4572   4.5151
     4.5179   4.5546   4.5872   4.6054   4.6299   4.7064   4.7615   4.8256
     4.8551   4.8788   4.9372   4.9448   5.4557   5.6949   5.8084   6.1730

     highest occupied level (ev):     6.1730

!    total energy              =    -503.66410522 Ry
     estimated scf accuracy    <       0.00000009 Ry

     The total energy is the sum of the following terms:
     one-electron contribution =     138.31548116 Ry
     hartree contribution      =      38.86074233 Ry
     xc contribution           =    -153.03969678 Ry
     ewald contribution        =    -527.80063193 Ry

     convergence has been achieved in  11 iterations

     Forces acting on atoms (cartesian axes, Ry/au):

     atom    1 type  1   force =     0.00613414    0.06448968   -0.03925684
     atom    2 type  1   force =     0.01351745   -0.01634245    0.01744140
     atom    3 type  1   force =     0.00009222    0.05720338    0.00273942
     atom    4 type  1   force =     0.01815207    0.02377316   -0.06585867
     atom    5 type  1   force =    -0.03647681   -0.01261634   -0.01087838
     atom    6 type  1   force =     0.02144072    0.05369748   -0.07099698
     atom    7 type  1   force =     0.03568801   -0.01573027    0.01510335
     atom    8 type  1   force =    -0.00649252    0.01657889   -0.00726183
     atom    9 type  1   force =     0.01803659    0.07307411    0.01021228
     atom   10 type  1   force =     0.01505257    0.01098078   -0.05920270
     atom   11 type  1   force =    -0.00190671    0.01445234   -0.05058115
     atom   12 type  1   force =     0.00165392   -0.02937102   -0.02789260
     atom   13 type  1   force =    -0.02568774   -0.02353235    0.00672238
     atom   14 type  1   force =    -0.03315443    0.03669040   -0.03250460
     atom   15 type  1   force =     0.00264166   -0.02014340   -0.04052659
     atom   16 type  1   force =    -0.00274312   -0.00428682   -0.02354664
     atom   17 type  1   force =     0.01008451   -0.00415976   -0.04042994
     atom   18 type  1   force =    -0.02060154    0.00627284    0.02832668
     atom   19 type  1   force =    -0.02486325    0.00781439    0.00208655
     atom   20 type  1   force =     0.00465867   -0.01020491   -0.08136032
     atom   21 type  1   force =     0.00725316   -0.06496854    0.01101454
     atom   22 type  1   force =    -0.02418959   -0.01424042    0.01883845
     atom   23 type  1   force =    -0.00370977    0.00971052   -0.06197088
     atom   24 type  1   force =     0.03042015   -0.08066340   -0.00902467
     atom   25 type  1   force =     0.00136274    0.03605038   -0.01730415
     atom   26 type  1   force =    -0.00399039   -0.02312354   -0.00511988
     atom   27 type  1   force =     0.01851072    0.03766177    0.02686922
     atom   28 type  1   force =     0.00258282   -0.00070806    0.02722156
     atom   29 type  1   force =    -0.00960120    0.06766941   -0.02855884
     atom   30 type  1   force =    -0.00448510   -0.01417651    0.02102829
     atom   31 type  1   force =    -0.01471628    0.02925714   -0.01622522
     atom   32 type  1   force =     0.02556794   -0.00819090   -0.00563479
     atom   33 type  1   force =    -0.00107619   -0.00457275   -0.01683234
     atom   34 type  1   force =    -0.04138035   -0.00334125    0.02063245
     atom   35 type  1   force =    -0.00251362    0.01315186   -0.01263942
     atom   36 type  1   force =    -0.01469763    0.01829491   -0.01352295
     atom   37 type  1   force =     0.01907218    0.04347440    0.00683131
     atom   38 type  1   force =     0.02212590   -0.01327667    0.00539466
     atom   39 type  1   force =     0.00869069   -0.01203926   -0.00436719
     atom   40 type  1   force =    -0.00865724   -0.02557019    0.02214811
     atom   41 type  1   force =     0.03678862    0.00588923   -0.01015325
     atom   42 type  1   force =     0.05592326   -0.01378415   -0.03209817
     atom   43 type  1   force =    -0.03181417   -0.04952314   -0.01430087
     atom   44 type  1   force =     0.01704523   -0.04063440    0.00664853
     atom   45 type  1   force =     0.00062371   -0.08098187    0.02336920
     atom   46 type  1   force =     0.02482674   -0.08336358   -0.00098525
     atom   47 type  1   force =     0.00436135    0.02204490   -0.02504258
     atom   48 type  1   force =    -0.00818727   -0.06051203    0.02382395
     atom   49 type  1   force =    -0.02374164   -0.01862519   -0.01410444
     atom   50 type  1   force =    -0.03224266    0.08116716    0.01733358
     atom   51 type  1   force =    -0.00114535    0.01782072    0.05353765
     atom   52 type  1   force =    -0.00704495    0.01907846    0.00490393
     atom   53 type  1   force =     0.04199989    0.08689871   -0.03660567
     atom   54 type  1   force =    -0.00021931    0.00536843    0.05808584
     atom   55 type  1   force =    -0.00521183   -0.01271046    0.07676665
     atom   56 type  1   force =     0.00300432    0.01906267    0.01606528
     atom   57 type  1   force =    -0.01476091   -0.00069272    0.06183664
     atom   58 type  1   force =     0.01305280    0.01832729    0.04748825
     atom   59 type  1   force =    -0.02166749    0.04512887    0.02616102
     atom   60 type  1   force =     0.00569738   -0.02778414    0.05714547
     atom   61 type  1   force =    -0.00374095    0.00500752   -0.00015071
     atom   62 type  1   force =    -0.01114613   -0.06211867    0.05979961
     atom   63 type  1   force =    -0.03797502   -0.03443759   -0.01676385
     atom   64 type  1   force =    -0.00622096   -0.05966508    0.11612608

     Total force =     0.451999     Total SCF correction =     0.000311


     Computing stress (Cartesian axis) and pressure

          total   stress  (Ry/bohr**3)                   (kbar)     P=       -1.75
   0.00012554   0.00005775  -0.00007646           18.47        8.50      -11.25
   0.00005775  -0.00011032   0.00000855            8.50      -16.23        1.26
  -0.00007646   0.00000855  -0.00005092          -11.25        1.26       -7.49

 
     init_run     :      0.89s CPU      4.43s WALL (       1 calls)
     electrons    :      1.38s CPU      1.49s WALL (       1 calls)
     forces       :      0.04s CPU      0.04s WALL (       1 calls)
     stress       :      0.13s CPU      0.14s WALL (       1 calls)

     Called by init_run:
     wfcinit      :      0.42s CPU      3.79s WALL (       1 calls)
                                        3.79s GPU  (       1 calls)
     potinit      :      0.14s CPU      0.24s WALL (       1 calls)
     hinit0       :      0.30s CPU      0.33s WALL (       1 calls)

     Called by electrons:
     c_bands      :      1.00s CPU      1.05s WALL (      12 calls)
     sum_band     :      0.20s CPU      0.24s WALL (      12 calls)
     v_of_rho     :      0.09s CPU      0.20s WALL (      12 calls)
     mix_rho      :      0.08s CPU      0.09s WALL (      12 calls)

     Called by c_bands:
     init_us_2    :      0.03s CPU      0.03s WALL (      25 calls)
     init_us_2:gp :      0.03s CPU      0.03s WALL (      25 calls)
     regterg      :      0.91s CPU      0.96s WALL (      12 calls)

     Called by *egterg:
     rdiaghg      :      0.43s CPU      1.11s WALL (     125 calls)
                                        1.09s GPU  (     125 calls)
     h_psi        :      0.76s CPU      3.47s WALL (     127 calls)
                                        3.47s GPU  (     127 calls)
     g_psi        :      0.00s CPU      0.00s WALL (     114 calls)
                                        0.00s GPU  (     114 calls)

     Called by h_psi:
     h_psi:calbec :      0.40s CPU      3.03s WALL (     127 calls)
                                        3.03s GPU  (     127 calls)
     vloc_psi     :      0.29s CPU      0.36s WALL (     127 calls)
                                        0.36s GPU  (     127 calls)
     add_vuspsi   :      0.05s CPU      0.07s WALL (     127 calls)
                                        0.07s GPU  (     127 calls)

     General routines
     calbec       :      0.40s CPU      3.04s WALL (     132 calls)
     fft          :      0.34s CPU      0.47s WALL (     103 calls)
                                        0.12s GPU  (      66 calls)
     ffts         :      0.02s CPU      0.03s WALL (      12 calls)
     fftw         :      0.33s CPU      0.46s WALL (    1220 calls)
                                        0.41s GPU  (    1220 calls)
 
     Parallel routines
 
     PWSCF        :      2.47s CPU      6.18s WALL

 
   This run was terminated on:  15:20:15   8May2023            

=------------------------------------------------------------------------------=
   JOB DONE.
=------------------------------------------------------------------------------=
