An instance of this daemon is already running
An instance of this daemon is already running

     Program PWSCF v.7.1 starts on  8May2023 at 15:15:59 

     This program is part of the open-source Quantum ESPRESSO suite
     for quantum simulation of materials; please cite
         "P. Giannozzi et al., J. Phys.:Condens. Matter 21 395502 (2009);
         "P. Giannozzi et al., J. Phys.:Condens. Matter 29 465901 (2017);
         "P. Giannozzi et al., J. Chem. Phys. 152 154105 (2020);
          URL http://www.quantum-espresso.org", 
     in publications or presentations arising from this work. More details at
     http://www.quantum-espresso.org/quote

     Parallel version (MPI & OpenMP), running on       4 processor cores
     Number of MPI processes:                 4
     Threads/MPI process:                     1

     MPI processes distributed on     1 nodes
     183926 MiB available memory on the printing compute node when the environment starts
 
     Reading input from pw-si-45.in
Warning: card &CELL ignored
Warning: card / ignored

     Current dimensions of program PWSCF are:
     Max number of different atomic species (ntypx) = 10
     Max number of k-points (npk) =  40000
     Max angular momentum in pseudopotentials (lmaxx) =  4

     IMPORTANT: XC functional enforced from input :
     Exchange-correlation= PBE
                           (   1   4   3   4   0   0   0)
     Any further DFT definition will be discarded
     Please, verify this is what you really want


     gamma-point specific algorithms are used
 
     K-points division:     npool     =       2
     R & G space division:  proc/nbgrp/npool/nimage =       2
     Subspace diagonalization in iterative solution of the eigenvalue problem:
     a serial algorithm will be used

     Message from routine divide_et_impera:
     suboptimal parallelization: some nodes have no k-points
 
     Parallelization info
     --------------------
     sticks:   dense  smooth     PW     G-vecs:    dense   smooth      PW
     Min        2068    2068    548               101292   101292   13760
     Max        2069    2069    549               101293   101293   13761
     Sum        4137    4137   1097               202585   202585   27521
 
     Using Slab Decomposition
 


     bravais-lattice index     =            0
     lattice parameter (alat)  =      20.7060  a.u.
     unit-cell volume          =    9125.5236 (a.u.)^3
     number of atoms/cell      =           64
     number of atomic types    =            1
     number of electrons       =       256.00
     number of Kohn-Sham states=          128
     kinetic-energy cutoff     =      30.0000  Ry
     charge density cutoff     =     120.0000  Ry
     scf convergence threshold =      1.0E-06
     mixing beta               =       0.5000
     number of iterations used =            8  plain     mixing
     Exchange-correlation= PBE
                           (   1   4   3   4   0   0   0)

     GPU acceleration is ACTIVE.
     GPU-aware MPI enabled

     Message from routine print_cuda_info:
     High GPU oversubscription detected. Are you sure this is what you want?

     celldm(1)=  20.706013  celldm(2)=   0.000000  celldm(3)=   0.000000
     celldm(4)=   0.000000  celldm(5)=   0.000000  celldm(6)=   0.000000

     crystal axes: (cart. coord. in units of alat)
               a(1) = (   1.000000   0.000000   0.000000 )  
               a(2) = (   0.000000   1.009503   0.000000 )  
               a(3) = (   0.000000   0.000000   1.018264 )  

     reciprocal axes: (cart. coord. in units 2 pi/alat)
               b(1) = (  1.000000  0.000000  0.000000 )  
               b(2) = (  0.000000  0.990586  0.000000 )  
               b(3) = (  0.000000  0.000000  0.982063 )  


     PseudoPot. # 1 for Si read from file:
     /home/ppiaggi/pseudos/Si_ONCV_PBE_sr.upf
     MD5 check sum: 8553c464762ac42b85b1eed164b4d029
     Pseudo is Norm-conserving, Zval =  4.0
     Generated using ONCVPSP code by D. R. Hamann
     Using radial grid of 1510 points,  4 beta functions with: 
                l(1) =   0
                l(2) =   0
                l(3) =   1
                l(4) =   1

     atomic species   valence    mass     pseudopotential
        Si             4.00    28.08500     Si( 1.00)

     No symmetry found



   Cartesian axes

     site n.     atom                  positions (alat units)
         1           Si  tau(   1) = (   0.0035735   0.0033815  -0.0000726  )
         2           Si  tau(   2) = (   0.0022545   0.2462352   0.2620457  )
         3           Si  tau(   3) = (   0.2504057   0.0025707   0.2638454  )
         4           Si  tau(   4) = (   0.2507920   0.2524406  -0.0037578  )
         5           Si  tau(   5) = (   0.1274652   0.1276351   0.1253147  )
         6           Si  tau(   6) = (   0.5062467   0.0006478  -0.0025330  )
         7           Si  tau(   7) = (   0.5064277   0.2480424   0.2558310  )
         8           Si  tau(   8) = (   0.6304843   0.1251629   0.1330994  )
         9           Si  tau(   9) = (   0.7552491   0.0024088   0.2621603  )
        10           Si  tau(  10) = (   0.7583141   0.2473646   0.0036830  )
        11           Si  tau(  11) = (   0.0016936   0.5006098  -0.0006825  )
        12           Si  tau(  12) = (   0.2540360   0.5022231   0.2566010  )
        13           Si  tau(  13) = (   0.1303080   0.6227406   0.1338448  )
        14           Si  tau(  14) = (   0.3746740   0.3744926   0.1263463  )
        15           Si  tau(  15) = (   0.5013493   0.5016827  -0.0043748  )
        16           Si  tau(  16) = (   0.6318898   0.6254300   0.1256748  )
        17           Si  tau(  17) = (   0.8846701   0.3749675   0.1283830  )
        18           Si  tau(  18) = (   0.7565134   0.4985078   0.2604462  )
        19           Si  tau(  19) = (  -0.0024073   0.7480292   0.2609656  )
        20           Si  tau(  20) = (   0.2529535   0.7494366  -0.0027379  )
        21           Si  tau(  21) = (   0.3816672   0.8757293   0.1259370  )
        22           Si  tau(  22) = (   0.5039761   0.7482703   0.2633716  )
        23           Si  tau(  23) = (   0.7550541   0.7512812  -0.0029087  )
        24           Si  tau(  24) = (   0.8832127   0.8685811   0.1260123  )
        25           Si  tau(  25) = (   0.0008624  -0.0003712   0.5175699  )
        26           Si  tau(  26) = (   0.2500063   0.2466206   0.5205918  )
        27           Si  tau(  27) = (   0.1277901   0.1215723   0.6461656  )
        28           Si  tau(  28) = (   0.3793855   0.1288356   0.3928766  )
        29           Si  tau(  29) = (   0.5019662  -0.0041013   0.5220038  )
        30           Si  tau(  30) = (   0.6272703   0.1278735   0.6450457  )
        31           Si  tau(  31) = (   0.8863754   0.1203959   0.3923381  )
        32           Si  tau(  32) = (   0.7541356   0.2504018   0.5155689  )
        33           Si  tau(  33) = (   0.1217367   0.3705494   0.3913504  )
        34           Si  tau(  34) = (  -0.0042196   0.4942840   0.5210922  )
        35           Si  tau(  35) = (   0.1298643   0.6230897   0.6520112  )
        36           Si  tau(  36) = (   0.6339445   0.3732118   0.3848419  )
        37           Si  tau(  37) = (   0.3740548   0.6210907   0.3890295  )
        38           Si  tau(  38) = (   0.3777267   0.3727854   0.6470812  )
        39           Si  tau(  39) = (   0.5080172   0.4939270   0.5205304  )
        40           Si  tau(  40) = (   0.6308323   0.6189799   0.6442641  )
        41           Si  tau(  41) = (   0.8855198   0.6190080   0.3877538  )
        42           Si  tau(  42) = (   0.8814100   0.3718698   0.6446672  )
        43           Si  tau(  43) = (   0.1247915   0.8754218   0.3925068  )
        44           Si  tau(  44) = (   0.2511293   0.7433981   0.5213998  )
        45           Si  tau(  45) = (   0.6346278   0.8683658   0.3844909  )
        46           Si  tau(  46) = (   0.3785044   0.8718551   0.6502069  )
        47           Si  tau(  47) = (   0.7546005   0.7482053   0.5137069  )
        48           Si  tau(  48) = (   0.8870723   0.8680375   0.6495982  )
        49           Si  tau(  49) = (   0.0038354   0.2494593   0.7756260  )
        50           Si  tau(  50) = (   0.2525547  -0.0022394   0.7735415  )
        51           Si  tau(  51) = (   0.3802503   0.1218201   0.9025234  )
        52           Si  tau(  52) = (   0.5056085   0.2532266   0.7734402  )
        53           Si  tau(  53) = (   0.7538013   0.0038465   0.7736921  )
        54           Si  tau(  54) = (   0.8833046   0.1250285   0.9073262  )
        55           Si  tau(  55) = (   0.1273787   0.3701337   0.9076054  )
        56           Si  tau(  56) = (   0.2505433   0.4964699   0.7820411  )
        57           Si  tau(  57) = (   0.6297365   0.3740443   0.9109794  )
        58           Si  tau(  58) = (   0.3742066   0.6258230   0.9089271  )
        59           Si  tau(  59) = (   0.7543551   0.4979070   0.7808944  )
        60           Si  tau(  60) = (   0.8792633   0.6235477   0.9042262  )
        61           Si  tau(  61) = (   0.0040770   0.7443342   0.7803551  )
        62           Si  tau(  62) = (   0.1224019   0.8692146   0.9081944  )
        63           Si  tau(  63) = (   0.5073213   0.7510244   0.7791435  )
        64           Si  tau(  64) = (   0.6304739   0.8754982   0.9064678  )

     number of k points=     1
                       cart. coord. in units 2pi/alat
        k(    1) = (   0.0000000   0.0000000   0.0000000), wk =   2.0000000

     Dense  grid:   101293 G-vectors     FFT dimensions: (  75,  75,  75)

     Estimated max dynamical RAM per process >     149.26 MB

     Estimated total dynamical RAM >     572.30 MB

     Initial potential from superposition of free atoms

     starting charge     255.9608, renormalised to     256.0000
     Starting wfcs are  256 randomized atomic wfcs

     total cpu time spent up to now is        4.3 secs

     Self-consistent Calculation

     iteration #  1     ecut=    30.00 Ry     beta= 0.50
     Davidson diagonalization with overlap
     ethr =  1.00E-02,  avg # of iterations =  2.0

     Threshold (ethr) on eigenvalues was too large:
     Diagonalizing with lowered threshold

     Davidson diagonalization with overlap
     ethr =  6.24E-04,  avg # of iterations =  2.0

     total cpu time spent up to now is        4.5 secs

     total energy              =    -503.73847411 Ry
     estimated scf accuracy    <       1.78794740 Ry

     iteration #  2     ecut=    30.00 Ry     beta= 0.50
     Davidson diagonalization with overlap
     ethr =  6.98E-04,  avg # of iterations =  1.0

     total cpu time spent up to now is        4.6 secs

     total energy              =    -503.71517577 Ry
     estimated scf accuracy    <       0.35418713 Ry

     iteration #  3     ecut=    30.00 Ry     beta= 0.50
     Davidson diagonalization with overlap
     ethr =  1.38E-04,  avg # of iterations =  2.0

     total cpu time spent up to now is        4.7 secs

     total energy              =    -503.73980448 Ry
     estimated scf accuracy    <       0.00606714 Ry

     iteration #  4     ecut=    30.00 Ry     beta= 0.50
     Davidson diagonalization with overlap
     ethr =  2.37E-06,  avg # of iterations = 10.0

     total cpu time spent up to now is        4.8 secs

     total energy              =    -503.74488492 Ry
     estimated scf accuracy    <       0.00093805 Ry

     iteration #  5     ecut=    30.00 Ry     beta= 0.50
     Davidson diagonalization with overlap
     ethr =  3.66E-07,  avg # of iterations =  7.0

     total cpu time spent up to now is        4.9 secs

     total energy              =    -503.74511086 Ry
     estimated scf accuracy    <       0.00013424 Ry

     iteration #  6     ecut=    30.00 Ry     beta= 0.50
     Davidson diagonalization with overlap
     ethr =  5.24E-08,  avg # of iterations =  6.0

     total cpu time spent up to now is        5.1 secs

     total energy              =    -503.74514945 Ry
     estimated scf accuracy    <       0.00005275 Ry

     iteration #  7     ecut=    30.00 Ry     beta= 0.50
     Davidson diagonalization with overlap
     ethr =  2.06E-08,  avg # of iterations =  4.0

     total cpu time spent up to now is        5.2 secs

     total energy              =    -503.74516055 Ry
     estimated scf accuracy    <       0.00000350 Ry

     iteration #  8     ecut=    30.00 Ry     beta= 0.50
     Davidson diagonalization with overlap
     ethr =  1.37E-09,  avg # of iterations =  8.0

     total cpu time spent up to now is        5.3 secs

     total energy              =    -503.74516140 Ry
     estimated scf accuracy    <       0.00000254 Ry

     iteration #  9     ecut=    30.00 Ry     beta= 0.50
     Davidson diagonalization with overlap
     ethr =  9.92E-10,  avg # of iterations =  3.0

     total cpu time spent up to now is        5.4 secs

     End of self-consistent calculation

          k = 0.0000 0.0000 0.0000 ( 12675 PWs)   bands (ev):

    -5.9810  -5.0664  -5.0086  -4.9428  -4.9167  -4.8380  -4.7630  -4.2973
    -4.1925  -4.1302  -4.0774  -4.0439  -4.0292  -3.9646  -3.9312  -3.8788
    -3.8389  -3.8027  -3.7207  -3.6699  -3.6455  -3.6165  -3.4043  -2.2844
    -2.1294  -2.0890  -2.0258  -1.9705  -1.9675  -1.9162  -1.8725  -1.8559
    -1.7890  -1.7825  -1.7684  -1.7280  -1.6826  -1.6572  -1.6416  -1.5942
    -1.5348  -1.1960  -1.0546  -0.9682  -0.8645   0.1437   0.2020   0.2133
     0.2411   0.2691   0.2898   0.3142   0.3538   0.3913   0.4033   0.4347
     0.4648   1.7746   1.7931   1.7956   1.8428   1.9073   1.9399   1.9826
     1.9927   2.0122   2.0327   2.0524   2.0660   2.0806   2.0970   2.1043
     2.1423   2.1561   2.1869   2.1938   2.2189   2.2581   2.2600   2.2764
     2.3288   2.3511   2.3854   2.3978   2.4046   2.4486   2.4771   2.8816
     2.8946   2.9667   2.9843   3.0515   3.0842   3.7517   3.8045   3.8160
     3.8291   3.8462   3.8793   3.8853   3.9359   3.9521   3.9896   4.0883
     4.1104   4.1349   4.2132   4.3215   4.3356   4.3728   4.4403   4.4549
     4.4557   4.4969   4.5308   4.5514   4.5550   4.5874   4.6223   4.6643
     4.7052   4.7189   4.7487   4.8290   5.0775   5.5755   5.8054   5.9230

     highest occupied level (ev):     5.9230

!    total energy              =    -503.74516169 Ry
     estimated scf accuracy    <       0.00000048 Ry

     The total energy is the sum of the following terms:
     one-electron contribution =     136.48847634 Ry
     hartree contribution      =      38.78616950 Ry
     xc contribution           =    -152.68274122 Ry
     ewald contribution        =    -526.33706631 Ry

     convergence has been achieved in   9 iterations

     Forces acting on atoms (cartesian axes, Ry/au):

     atom    1 type  1   force =     0.02068047   -0.06614384    0.05901345
     atom    2 type  1   force =     0.01120582    0.00489097   -0.02131507
     atom    3 type  1   force =     0.01237702   -0.02807570   -0.01945405
     atom    4 type  1   force =     0.03695924   -0.04224009    0.06585340
     atom    5 type  1   force =     0.00895860   -0.00922574    0.03187478
     atom    6 type  1   force =     0.00702050   -0.02890569    0.06646969
     atom    7 type  1   force =    -0.02117224    0.01623031    0.01478535
     atom    8 type  1   force =     0.00432652   -0.01411076   -0.01494711
     atom    9 type  1   force =     0.01275416   -0.05124894   -0.00994972
     atom   10 type  1   force =    -0.00907767    0.01032817    0.05129898
     atom   11 type  1   force =     0.02994197   -0.00617476    0.06029528
     atom   12 type  1   force =    -0.01295487   -0.03748865    0.02301912
     atom   13 type  1   force =    -0.01876729    0.02303053   -0.01985539
     atom   14 type  1   force =     0.02077151    0.00350206    0.01038845
     atom   15 type  1   force =     0.00689877   -0.00685483    0.08101382
     atom   16 type  1   force =    -0.01492297   -0.00472331    0.02443481
     atom   17 type  1   force =    -0.02367532   -0.00710913    0.02515602
     atom   18 type  1   force =     0.00677812    0.00654892   -0.02569055
     atom   19 type  1   force =     0.04553625    0.00231469   -0.00204969
     atom   20 type  1   force =    -0.00930381    0.01318139    0.09243651
     atom   21 type  1   force =    -0.01089878    0.02476745    0.02656770
     atom   22 type  1   force =    -0.00482532   -0.00543792   -0.03038804
     atom   23 type  1   force =     0.00742645   -0.00929282    0.05727715
     atom   24 type  1   force =    -0.02313941    0.06204262    0.01417039
     atom   25 type  1   force =     0.02817708   -0.05199559    0.02829834
     atom   26 type  1   force =     0.00720078    0.01621395   -0.00717846
     atom   27 type  1   force =    -0.00622437   -0.00052659    0.00683678
     atom   28 type  1   force =     0.00300521   -0.02239192   -0.01131046
     atom   29 type  1   force =     0.01078008   -0.02182838   -0.02064039
     atom   30 type  1   force =     0.00428132   -0.01163764   -0.00331674
     atom   31 type  1   force =    -0.04910799    0.01977470   -0.01603152
     atom   32 type  1   force =     0.01282009   -0.01697663   -0.00072423
     atom   33 type  1   force =     0.02641180    0.01616485   -0.00551890
     atom   34 type  1   force =     0.05414008    0.02465279   -0.00553467
     atom   35 type  1   force =    -0.01888199   -0.02328282   -0.00910008
     atom   36 type  1   force =    -0.01937624   -0.00016383    0.00428474
     atom   37 type  1   force =     0.03027479    0.00187771    0.01352199
     atom   38 type  1   force =    -0.00844343    0.00729348    0.00555438
     atom   39 type  1   force =    -0.02272789    0.00518125   -0.02569607
     atom   40 type  1   force =     0.00256312    0.02449619    0.01981386
     atom   41 type  1   force =    -0.04216690    0.01320176    0.00967199
     atom   42 type  1   force =    -0.03908536   -0.00648477    0.03320549
     atom   43 type  1   force =     0.00542954    0.01272509   -0.00923707
     atom   44 type  1   force =     0.00521202    0.02554881   -0.00813396
     atom   45 type  1   force =    -0.02204695    0.05926979    0.01684310
     atom   46 type  1   force =    -0.00156073    0.02033220   -0.00778091
     atom   47 type  1   force =     0.02627023   -0.01745369    0.01885878
     atom   48 type  1   force =    -0.04212372    0.04613595   -0.01533717
     atom   49 type  1   force =     0.00952733   -0.01004918   -0.00736541
     atom   50 type  1   force =    -0.00407767   -0.03765860    0.01258613
     atom   51 type  1   force =    -0.01266863    0.02128277   -0.05423728
     atom   52 type  1   force =    -0.00315144   -0.01312516    0.01531085
     atom   53 type  1   force =     0.01511048   -0.04122185    0.00403024
     atom   54 type  1   force =    -0.03319784    0.00446551   -0.07744309
     atom   55 type  1   force =    -0.03049843    0.03544708   -0.07066427
     atom   56 type  1   force =     0.01631419    0.00351645   -0.01952075
     atom   57 type  1   force =     0.00253382   -0.00970180   -0.06457279
     atom   58 type  1   force =     0.02169971   -0.00552609   -0.08769133
     atom   59 type  1   force =     0.00241491   -0.00995672   -0.02761252
     atom   60 type  1   force =    -0.01526310    0.00170117   -0.04431565
     atom   61 type  1   force =     0.00749184    0.00560018   -0.01557522
     atom   62 type  1   force =     0.00976807    0.06057422   -0.05624539
     atom   63 type  1   force =    -0.01131741   -0.01970449   -0.01465565
     atom   64 type  1   force =    -0.00240412    0.04442494   -0.06378196

     Total force =     0.397886     Total SCF correction =     0.001170


     Computing stress (Cartesian axis) and pressure

          total   stress  (Ry/bohr**3)                   (kbar)     P=      -12.77
  -0.00001841  -0.00006067   0.00004758           -2.71       -8.92        7.00
  -0.00006067  -0.00008116  -0.00003750           -8.92      -11.94       -5.52
   0.00004758  -0.00003750  -0.00016086            7.00       -5.52      -23.66

 
     init_run     :      1.07s CPU      4.25s WALL (       1 calls)
     electrons    :      1.01s CPU      1.10s WALL (       1 calls)
     forces       :      0.04s CPU      0.04s WALL (       1 calls)
     stress       :      0.14s CPU      0.14s WALL (       1 calls)

     Called by init_run:
     wfcinit      :      0.71s CPU      3.73s WALL (       1 calls)
                                        3.73s GPU  (       1 calls)
     potinit      :      0.16s CPU      0.24s WALL (       1 calls)
     hinit0       :      0.18s CPU      0.20s WALL (       1 calls)

     Called by electrons:
     c_bands      :      0.67s CPU      0.72s WALL (      10 calls)
     sum_band     :      0.18s CPU      0.21s WALL (      10 calls)
     v_of_rho     :      0.09s CPU      0.18s WALL (      10 calls)
     mix_rho      :      0.06s CPU      0.07s WALL (      10 calls)

     Called by c_bands:
     init_us_2    :      0.03s CPU      0.03s WALL (      21 calls)
     init_us_2:gp :      0.03s CPU      0.03s WALL (      21 calls)
     regterg      :      0.59s CPU      0.63s WALL (      10 calls)

     Called by *egterg:
     rdiaghg      :      0.23s CPU      0.82s WALL (      54 calls)
                                        0.81s GPU  (      54 calls)
     h_psi        :      0.97s CPU      3.41s WALL (      56 calls)
                                        3.41s GPU  (      56 calls)
     g_psi        :      0.00s CPU      0.00s WALL (      45 calls)
                                        0.00s GPU  (      45 calls)

     Called by h_psi:
     h_psi:calbec :      0.64s CPU      3.01s WALL (      56 calls)
                                        3.01s GPU  (      56 calls)
     vloc_psi     :      0.30s CPU      0.37s WALL (      56 calls)
                                        0.37s GPU  (      56 calls)
     add_vuspsi   :      0.02s CPU      0.03s WALL (      56 calls)
                                        0.03s GPU  (      56 calls)

     General routines
     calbec       :      0.64s CPU      3.02s WALL (      61 calls)
     fft          :      0.21s CPU      0.32s WALL (      87 calls)
                                        0.11s GPU  (      56 calls)
     ffts         :      0.02s CPU      0.03s WALL (      10 calls)
     fftw         :      0.33s CPU      0.45s WALL (     932 calls)
                                        0.41s GPU  (     932 calls)
 
     Parallel routines
 
     PWSCF        :      2.29s CPU      5.60s WALL

 
   This run was terminated on:  15:16: 4   8May2023            

=------------------------------------------------------------------------------=
   JOB DONE.
=------------------------------------------------------------------------------=
