An instance of this daemon is already running

     Program PWSCF v.7.1 starts on  8May2023 at 15:20:17 

     This program is part of the open-source Quantum ESPRESSO suite
     for quantum simulation of materials; please cite
         "P. Giannozzi et al., J. Phys.:Condens. Matter 21 395502 (2009);
         "P. Giannozzi et al., J. Phys.:Condens. Matter 29 465901 (2017);
         "P. Giannozzi et al., J. Chem. Phys. 152 154105 (2020);
          URL http://www.quantum-espresso.org", 
     in publications or presentations arising from this work. More details at
     http://www.quantum-espresso.org/quote

     Parallel version (MPI & OpenMP), running on       4 processor cores
     Number of MPI processes:                 4
     Threads/MPI process:                     1

     MPI processes distributed on     1 nodes
     183908 MiB available memory on the printing compute node when the environment starts
 
     Reading input from pw-si-77.in
Warning: card &CELL ignored
Warning: card / ignored

     Current dimensions of program PWSCF are:
     Max number of different atomic species (ntypx) = 10
     Max number of k-points (npk) =  40000
     Max angular momentum in pseudopotentials (lmaxx) =  4

     IMPORTANT: XC functional enforced from input :
     Exchange-correlation= PBE
                           (   1   4   3   4   0   0   0)
     Any further DFT definition will be discarded
     Please, verify this is what you really want


     gamma-point specific algorithms are used
 
     K-points division:     npool     =       2
     R & G space division:  proc/nbgrp/npool/nimage =       2
     Subspace diagonalization in iterative solution of the eigenvalue problem:
     a serial algorithm will be used

     Message from routine divide_et_impera:
     suboptimal parallelization: some nodes have no k-points
 
     Parallelization info
     --------------------
     sticks:   dense  smooth     PW     G-vecs:    dense   smooth      PW
     Min        2051    2051    544                97561    97561   13244
     Max        2052    2052    545                97568    97568   13249
     Sum        4103    4103   1089               195129   195129   26493
 
     Using Slab Decomposition
 


     bravais-lattice index     =            0
     lattice parameter (alat)  =      20.5554  a.u.
     unit-cell volume          =    8791.1665 (a.u.)^3
     number of atoms/cell      =           64
     number of atomic types    =            1
     number of electrons       =       256.00
     number of Kohn-Sham states=          128
     kinetic-energy cutoff     =      30.0000  Ry
     charge density cutoff     =     120.0000  Ry
     scf convergence threshold =      1.0E-06
     mixing beta               =       0.5000
     number of iterations used =            8  plain     mixing
     Exchange-correlation= PBE
                           (   1   4   3   4   0   0   0)

     GPU acceleration is ACTIVE.
     GPU-aware MPI enabled

     Message from routine print_cuda_info:
     High GPU oversubscription detected. Are you sure this is what you want?

     celldm(1)=  20.555355  celldm(2)=   0.000000  celldm(3)=   0.000000
     celldm(4)=   0.000000  celldm(5)=   0.000000  celldm(6)=   0.000000

     crystal axes: (cart. coord. in units of alat)
               a(1) = (   1.000000   0.000000   0.000000 )  
               a(2) = (   0.000000   1.017735   0.000000 )  
               a(3) = (   0.000000   0.000000   0.994574 )  

     reciprocal axes: (cart. coord. in units 2 pi/alat)
               b(1) = (  1.000000  0.000000  0.000000 )  
               b(2) = (  0.000000  0.982575  0.000000 )  
               b(3) = (  0.000000  0.000000  1.005456 )  


     PseudoPot. # 1 for Si read from file:
     /home/ppiaggi/pseudos/Si_ONCV_PBE_sr.upf
     MD5 check sum: 8553c464762ac42b85b1eed164b4d029
     Pseudo is Norm-conserving, Zval =  4.0
     Generated using ONCVPSP code by D. R. Hamann
     Using radial grid of 1510 points,  4 beta functions with: 
                l(1) =   0
                l(2) =   0
                l(3) =   1
                l(4) =   1

     atomic species   valence    mass     pseudopotential
        Si             4.00    28.08500     Si( 1.00)

     No symmetry found



   Cartesian axes

     site n.     atom                  positions (alat units)
         1           Si  tau(   1) = (  -0.0045246  -0.0006468   0.0016368  )
         2           Si  tau(   2) = (  -0.0042172   0.2508949   0.2499415  )
         3           Si  tau(   3) = (   0.2524713   0.0017425   0.2461891  )
         4           Si  tau(   4) = (   0.2533059   0.2459675   0.0023686  )
         5           Si  tau(   5) = (   0.1283082   0.1259745   0.1235629  )
         6           Si  tau(   6) = (   0.5115017   0.0032762   0.0018733  )
         7           Si  tau(   7) = (   0.5061040   0.2534475   0.2472141  )
         8           Si  tau(   8) = (   0.6395258   0.1256472   0.1205415  )
         9           Si  tau(   9) = (   0.7658988  -0.0005218   0.2440589  )
        10           Si  tau(  10) = (   0.7601541   0.2526880  -0.0027450  )
        11           Si  tau(  11) = (   0.0022330   0.4987907   0.0009882  )
        12           Si  tau(  12) = (   0.2513929   0.4994724   0.2483878  )
        13           Si  tau(  13) = (   0.1233769   0.6203470   0.1207849  )
        14           Si  tau(  14) = (   0.3849017   0.3751446   0.1232279  )
        15           Si  tau(  15) = (   0.5137419   0.4962590   0.0006604  )
        16           Si  tau(  16) = (   0.6351313   0.6213451   0.1211025  )
        17           Si  tau(  17) = (   0.8936927   0.3785952   0.1187813  )
        18           Si  tau(  18) = (   0.7648720   0.4957610   0.2426403  )
        19           Si  tau(  19) = (   0.0024837   0.7516093   0.2418450  )
        20           Si  tau(  20) = (   0.2545751   0.7521724   0.0011662  )
        21           Si  tau(  21) = (   0.3798321   0.8745037   0.1197697  )
        22           Si  tau(  22) = (   0.5091980   0.7456027   0.2445999  )
        23           Si  tau(  23) = (   0.7637853   0.7522566  -0.0036864  )
        24           Si  tau(  24) = (   0.8898100   0.8743517   0.1269119  )
        25           Si  tau(  25) = (  -0.0035379   0.0016624   0.4886297  )
        26           Si  tau(  26) = (   0.2548072   0.2475681   0.4901176  )
        27           Si  tau(  27) = (   0.1296552   0.1278277   0.6177688  )
        28           Si  tau(  28) = (   0.3839702   0.1286108   0.3727606  )
        29           Si  tau(  29) = (   0.5076771  -0.0035719   0.4912391  )
        30           Si  tau(  30) = (   0.6371832   0.1274011   0.6181049  )
        31           Si  tau(  31) = (   0.8876863   0.1270802   0.3698014  )
        32           Si  tau(  32) = (   0.7613457   0.2461571   0.4941744  )
        33           Si  tau(  33) = (   0.1266145   0.3775375   0.3712048  )
        34           Si  tau(  34) = (   0.0002263   0.5004788   0.4920266  )
        35           Si  tau(  35) = (   0.1302316   0.6259373   0.6136847  )
        36           Si  tau(  36) = (   0.6326563   0.3729066   0.3730882  )
        37           Si  tau(  37) = (   0.3853961   0.6289411   0.3691961  )
        38           Si  tau(  38) = (   0.3864713   0.3727877   0.6146868  )
        39           Si  tau(  39) = (   0.5073560   0.4954635   0.4905723  )
        40           Si  tau(  40) = (   0.6388620   0.6233398   0.6174923  )
        41           Si  tau(  41) = (   0.8898470   0.6222714   0.3735328  )
        42           Si  tau(  42) = (   0.8937464   0.3783935   0.6147916  )
        43           Si  tau(  43) = (   0.1291308   0.8713512   0.3669827  )
        44           Si  tau(  44) = (   0.2570249   0.7518449   0.4908858  )
        45           Si  tau(  45) = (   0.6383009   0.8751523   0.3708506  )
        46           Si  tau(  46) = (   0.3792514   0.8781241   0.6145573  )
        47           Si  tau(  47) = (   0.7684760   0.7524556   0.4897063  )
        48           Si  tau(  48) = (   0.8957093   0.8755858   0.6133422  )
        49           Si  tau(  49) = (  -0.0025639   0.2506921   0.7430987  )
        50           Si  tau(  50) = (   0.2586663  -0.0025149   0.7376268  )
        51           Si  tau(  51) = (   0.3828289   0.1235933   0.8653503  )
        52           Si  tau(  52) = (   0.5112759   0.2484726   0.7363115  )
        53           Si  tau(  53) = (   0.7594222   0.0032785   0.7363206  )
        54           Si  tau(  54) = (   0.8945061   0.1208974   0.8598788  )
        55           Si  tau(  55) = (   0.1298262   0.3751230   0.8634260  )
        56           Si  tau(  56) = (   0.2560897   0.4979816   0.7374423  )
        57           Si  tau(  57) = (   0.6339665   0.3716601   0.8627303  )
        58           Si  tau(  58) = (   0.3773271   0.6247562   0.8639142  )
        59           Si  tau(  59) = (   0.7608072   0.4984357   0.7411342  )
        60           Si  tau(  60) = (   0.8943023   0.6233762   0.8593026  )
        61           Si  tau(  61) = (  -0.0028150   0.7515412   0.7365263  )
        62           Si  tau(  62) = (   0.1269090   0.8709852   0.8622271  )
        63           Si  tau(  63) = (   0.5096462   0.7513267   0.7369856  )
        64           Si  tau(  64) = (   0.6355237   0.8767841   0.8619428  )

     number of k points=     1
                       cart. coord. in units 2pi/alat
        k(    1) = (   0.0000000   0.0000000   0.0000000), wk =   2.0000000

     Dense  grid:    97565 G-vectors     FFT dimensions: (  72,  75,  72)

     Estimated max dynamical RAM per process >     143.07 MB

     Estimated total dynamical RAM >     548.48 MB

     Initial potential from superposition of free atoms

     starting charge     255.9608, renormalised to     256.0000
     Starting wfcs are  256 randomized atomic wfcs

     total cpu time spent up to now is        4.3 secs

     Self-consistent Calculation

     iteration #  1     ecut=    30.00 Ry     beta= 0.50
     Davidson diagonalization with overlap
     ethr =  1.00E-02,  avg # of iterations =  2.0

     Threshold (ethr) on eigenvalues was too large:
     Diagonalizing with lowered threshold

     Davidson diagonalization with overlap
     ethr =  6.65E-04,  avg # of iterations =  2.0

     total cpu time spent up to now is        4.5 secs

     total energy              =    -503.66991321 Ry
     estimated scf accuracy    <       1.90122348 Ry

     iteration #  2     ecut=    30.00 Ry     beta= 0.50
     Davidson diagonalization with overlap
     ethr =  7.43E-04,  avg # of iterations =  1.0

     total cpu time spent up to now is        4.6 secs

     total energy              =    -503.64412412 Ry
     estimated scf accuracy    <       0.36881220 Ry

     iteration #  3     ecut=    30.00 Ry     beta= 0.50
     Davidson diagonalization with overlap
     ethr =  1.44E-04,  avg # of iterations =  2.0

     total cpu time spent up to now is        4.6 secs

     total energy              =    -503.67215755 Ry
     estimated scf accuracy    <       0.00671259 Ry

     iteration #  4     ecut=    30.00 Ry     beta= 0.50
     Davidson diagonalization with overlap
     ethr =  2.62E-06,  avg # of iterations = 15.0

     total cpu time spent up to now is        4.8 secs

     total energy              =    -503.67749563 Ry
     estimated scf accuracy    <       0.00168917 Ry

     iteration #  5     ecut=    30.00 Ry     beta= 0.50
     Davidson diagonalization with overlap
     ethr =  6.60E-07,  avg # of iterations =  9.0

     total cpu time spent up to now is        4.9 secs

     total energy              =    -503.67781923 Ry
     estimated scf accuracy    <       0.00030881 Ry

     iteration #  6     ecut=    30.00 Ry     beta= 0.50
     Davidson diagonalization with overlap
     ethr =  1.21E-07,  avg # of iterations = 12.0

     total cpu time spent up to now is        5.1 secs

     total energy              =    -503.67789734 Ry
     estimated scf accuracy    <       0.00016246 Ry

     iteration #  7     ecut=    30.00 Ry     beta= 0.50
     Davidson diagonalization with overlap
     ethr =  6.35E-08,  avg # of iterations =  3.0

     total cpu time spent up to now is        5.2 secs

     total energy              =    -503.67792480 Ry
     estimated scf accuracy    <       0.00000714 Ry

     iteration #  8     ecut=    30.00 Ry     beta= 0.50
     Davidson diagonalization with overlap
     ethr =  2.79E-09,  avg # of iterations = 16.0

     total cpu time spent up to now is        5.3 secs

     total energy              =    -503.67792620 Ry
     estimated scf accuracy    <       0.00002058 Ry

     iteration #  9     ecut=    30.00 Ry     beta= 0.50
     Davidson diagonalization with overlap
     ethr =  2.79E-09,  avg # of iterations =  3.0

     total cpu time spent up to now is        5.4 secs

     total energy              =    -503.67792861 Ry
     estimated scf accuracy    <       0.00000175 Ry

     iteration # 10     ecut=    30.00 Ry     beta= 0.50
     Davidson diagonalization with overlap
     ethr =  6.84E-10,  avg # of iterations =  9.0

     total cpu time spent up to now is        5.6 secs

     total energy              =    -503.67792910 Ry
     estimated scf accuracy    <       0.00000152 Ry

     iteration # 11     ecut=    30.00 Ry     beta= 0.50
     Davidson diagonalization with overlap
     ethr =  5.96E-10,  avg # of iterations =  2.0

     total cpu time spent up to now is        5.6 secs

     End of self-consistent calculation

          k = 0.0000 0.0000 0.0000 ( 12191 PWs)   bands (ev):

    -5.8690  -4.9187  -4.8522  -4.8185  -4.7475  -4.6919  -4.6027  -4.1158
    -3.9988  -3.9872  -3.8836  -3.8485  -3.7963  -3.7510  -3.7258  -3.6848
    -3.6546  -3.6089  -3.5420  -3.5005  -3.4374  -3.3798  -3.1296  -2.0126
    -1.9446  -1.8688  -1.7251  -1.6932  -1.6747  -1.6633  -1.6160  -1.5856
    -1.5509  -1.5163  -1.4789  -1.4509  -1.4135  -1.3626  -1.3419  -1.3115
    -1.2268  -0.9822  -0.8701  -0.8099  -0.6289   0.4612   0.4767   0.4969
     0.5603   0.5992   0.6087   0.6333   0.6709   0.6916   0.7113   0.7533
     0.8116   1.9917   2.0069   2.0337   2.0426   2.1405   2.1763   2.1937
     2.2206   2.2225   2.2755   2.3077   2.3164   2.3466   2.3666   2.3738
     2.3994   2.4138   2.4435   2.4462   2.4876   2.5089   2.5452   2.5502
     2.5661   2.5973   2.6380   2.7359   2.7869   2.8106   2.8561   3.0653
     3.2051   3.2343   3.3285   3.3562   3.3770   3.9645   4.0148   4.1199
     4.1513   4.1630   4.2103   4.2256   4.2507   4.2935   4.3256   4.3700
     4.3948   4.4739   4.6255   4.6632   4.6953   4.7411   4.7724   4.7804
     4.7937   4.8369   4.8570   4.8796   4.9151   4.9403   4.9602   4.9889
     4.9939   5.0265   5.0790   5.1666   5.6386   5.9688   6.1061   6.3945

     highest occupied level (ev):     6.3945

!    total energy              =    -503.67792880 Ry
     estimated scf accuracy    <       0.00000043 Ry

     The total energy is the sum of the following terms:
     one-electron contribution =     144.75395082 Ry
     hartree contribution      =      38.03443565 Ry
     xc contribution           =    -153.91346558 Ry
     ewald contribution        =    -532.55284970 Ry

     convergence has been achieved in  11 iterations

     Forces acting on atoms (cartesian axes, Ry/au):

     atom    1 type  1   force =     0.07151588   -0.05418953   -0.00977821
     atom    2 type  1   force =     0.08413158    0.01701360   -0.03019106
     atom    3 type  1   force =     0.02172931   -0.05517363    0.00795342
     atom    4 type  1   force =     0.02165106    0.02478994   -0.03576782
     atom    5 type  1   force =    -0.03061860   -0.01327348    0.00898737
     atom    6 type  1   force =    -0.01330941   -0.06674173   -0.03138026
     atom    7 type  1   force =     0.02363987   -0.02539508   -0.00500980
     atom    8 type  1   force =    -0.01422432    0.00683783    0.02316098
     atom    9 type  1   force =    -0.01620587   -0.04357860    0.01053610
     atom   10 type  1   force =     0.03176888   -0.01324597   -0.02430282
     atom   11 type  1   force =     0.06204064    0.02128230   -0.07495038
     atom   12 type  1   force =     0.02477107    0.01261600   -0.01185890
     atom   13 type  1   force =     0.03648934    0.02993534    0.00950860
     atom   14 type  1   force =    -0.03032178    0.00275878   -0.00368583
     atom   15 type  1   force =    -0.03254831    0.01127784   -0.04234411
     atom   16 type  1   force =     0.02414927    0.01611430   -0.00102413
     atom   17 type  1   force =    -0.08538041   -0.04667107    0.02086122
     atom   18 type  1   force =    -0.01752843    0.01449441    0.02584736
     atom   19 type  1   force =     0.04786339   -0.03982196    0.03875129
     atom   20 type  1   force =    -0.01825234   -0.02265213   -0.03196342
     atom   21 type  1   force =     0.02117380    0.06436530    0.02333135
     atom   22 type  1   force =     0.01037890    0.03672019   -0.00970744
     atom   23 type  1   force =    -0.00237632   -0.00953398   -0.01268130
     atom   24 type  1   force =    -0.06664011    0.06693111   -0.04220029
     atom   25 type  1   force =     0.09198766   -0.06144998    0.03108099
     atom   26 type  1   force =    -0.00107810    0.02415033    0.02260555
     atom   27 type  1   force =    -0.01260183   -0.02251217   -0.00436427
     atom   28 type  1   force =    -0.00710644   -0.03402571   -0.02795413
     atom   29 type  1   force =     0.01355930   -0.02713469    0.01407112
     atom   30 type  1   force =    -0.02050405   -0.03112023   -0.02556519
     atom   31 type  1   force =    -0.07315012   -0.01894919   -0.00598914
     atom   32 type  1   force =     0.00722642    0.03228130    0.00468354
     atom   33 type  1   force =     0.00290885   -0.02411017   -0.00370164
     atom   34 type  1   force =     0.08383498    0.00710932    0.01217036
     atom   35 type  1   force =    -0.00397422    0.00032197    0.00562013
     atom   36 type  1   force =     0.02746689   -0.00389559   -0.02640392
     atom   37 type  1   force =    -0.02157969   -0.02979820    0.00244185
     atom   38 type  1   force =    -0.02901789   -0.00487412   -0.00045461
     atom   39 type  1   force =     0.01216398    0.03978608    0.01595692
     atom   40 type  1   force =    -0.01242041    0.01127729   -0.02310132
     atom   41 type  1   force =    -0.05334380    0.02681675   -0.06021785
     atom   42 type  1   force =    -0.08824421   -0.02922181    0.01798057
     atom   43 type  1   force =    -0.00343241    0.07113992   -0.00257547
     atom   44 type  1   force =    -0.00127236    0.00026427    0.00605120
     atom   45 type  1   force =    -0.01191881    0.04221497   -0.02255781
     atom   46 type  1   force =     0.01868792    0.03346416    0.00287615
     atom   47 type  1   force =    -0.02199731   -0.00737613    0.02783593
     atom   48 type  1   force =    -0.08670671    0.08081835   -0.02005425
     atom   49 type  1   force =     0.08518453    0.01700224   -0.02142913
     atom   50 type  1   force =    -0.01915133   -0.03576327    0.01608000
     atom   51 type  1   force =     0.00186769   -0.00166300    0.00963735
     atom   52 type  1   force =    -0.02081103   -0.00012792    0.02757879
     atom   53 type  1   force =     0.02521430   -0.07313584    0.01801083
     atom   54 type  1   force =    -0.09687318   -0.00515831    0.04078009
     atom   55 type  1   force =     0.00033174   -0.01238735    0.02619699
     atom   56 type  1   force =     0.00171474    0.00346485    0.00161669
     atom   57 type  1   force =     0.00349160    0.00749865    0.01402380
     atom   58 type  1   force =     0.03089701    0.00282688    0.02083703
     atom   59 type  1   force =     0.01255930   -0.00211245    0.00096884
     atom   60 type  1   force =    -0.07452280   -0.00760543    0.04502266
     atom   61 type  1   force =     0.09421184   -0.01214678    0.01019862
     atom   62 type  1   force =     0.00579102    0.06143923    0.02003104
     atom   63 type  1   force =    -0.01435864   -0.00261708    0.01044431
     atom   64 type  1   force =     0.00106849    0.05044912    0.01747542

     Total force =     0.476306     Total SCF correction =     0.001327


     Computing stress (Cartesian axis) and pressure

          total   stress  (Ry/bohr**3)                   (kbar)     P=       21.34
   0.00014902   0.00000463   0.00003360           21.92        0.68        4.94
   0.00000463   0.00006570  -0.00010522            0.68        9.67      -15.48
   0.00003360  -0.00010522   0.00022042            4.94      -15.48       32.43

 
     init_run     :      1.01s CPU      4.29s WALL (       1 calls)
     electrons    :      1.19s CPU      1.28s WALL (       1 calls)
     forces       :      0.03s CPU      0.04s WALL (       1 calls)
     stress       :      0.13s CPU      0.13s WALL (       1 calls)

     Called by init_run:
     wfcinit      :      0.44s CPU      3.55s WALL (       1 calls)
                                        3.55s GPU  (       1 calls)
     potinit      :      0.15s CPU      0.24s WALL (       1 calls)
     hinit0       :      0.39s CPU      0.42s WALL (       1 calls)

     Called by electrons:
     c_bands      :      0.83s CPU      0.87s WALL (      12 calls)
     sum_band     :      0.19s CPU      0.22s WALL (      12 calls)
     v_of_rho     :      0.10s CPU      0.18s WALL (      12 calls)
     mix_rho      :      0.07s CPU      0.08s WALL (      12 calls)

     Called by c_bands:
     init_us_2    :      0.03s CPU      0.03s WALL (      25 calls)
     init_us_2:gp :      0.03s CPU      0.03s WALL (      25 calls)
     regterg      :      0.74s CPU      0.78s WALL (      12 calls)

     Called by *egterg:
     rdiaghg      :      0.33s CPU      0.97s WALL (      87 calls)
                                        0.96s GPU  (      87 calls)
     h_psi        :      0.73s CPU      3.21s WALL (      89 calls)
                                        3.21s GPU  (      89 calls)
     g_psi        :      0.00s CPU      0.00s WALL (      76 calls)
                                        0.00s GPU  (      76 calls)

     Called by h_psi:
     h_psi:calbec :      0.41s CPU      2.83s WALL (      89 calls)
                                        2.82s GPU  (      89 calls)
     vloc_psi     :      0.27s CPU      0.33s WALL (      89 calls)
                                        0.33s GPU  (      89 calls)
     add_vuspsi   :      0.03s CPU      0.04s WALL (      89 calls)
                                        0.04s GPU  (      89 calls)

     General routines
     calbec       :      0.42s CPU      2.83s WALL (      94 calls)
     fft          :      0.42s CPU      0.54s WALL (     103 calls)
                                        0.11s GPU  (      66 calls)
     ffts         :      0.02s CPU      0.03s WALL (      12 calls)
     fftw         :      0.30s CPU      0.42s WALL (    1158 calls)
                                        0.37s GPU  (    1158 calls)
 
     Parallel routines
 
     PWSCF        :      2.39s CPU      5.81s WALL

 
   This run was terminated on:  15:20:23   8May2023            

=------------------------------------------------------------------------------=
   JOB DONE.
=------------------------------------------------------------------------------=
