An instance of this daemon is already running
An instance of this daemon is already running

     Program PWSCF v.7.1 starts on  8May2023 at 15:19:12 

     This program is part of the open-source Quantum ESPRESSO suite
     for quantum simulation of materials; please cite
         "P. Giannozzi et al., J. Phys.:Condens. Matter 21 395502 (2009);
         "P. Giannozzi et al., J. Phys.:Condens. Matter 29 465901 (2017);
         "P. Giannozzi et al., J. Chem. Phys. 152 154105 (2020);
          URL http://www.quantum-espresso.org", 
     in publications or presentations arising from this work. More details at
     http://www.quantum-espresso.org/quote

     Parallel version (MPI & OpenMP), running on       4 processor cores
     Number of MPI processes:                 4
     Threads/MPI process:                     1

     MPI processes distributed on     1 nodes
     183902 MiB available memory on the printing compute node when the environment starts
 
     Reading input from pw-si-69.in
Warning: card &CELL ignored
Warning: card / ignored

     Current dimensions of program PWSCF are:
     Max number of different atomic species (ntypx) = 10
     Max number of k-points (npk) =  40000
     Max angular momentum in pseudopotentials (lmaxx) =  4

     IMPORTANT: XC functional enforced from input :
     Exchange-correlation= PBE
                           (   1   4   3   4   0   0   0)
     Any further DFT definition will be discarded
     Please, verify this is what you really want


     gamma-point specific algorithms are used
 
     K-points division:     npool     =       2
     R & G space division:  proc/nbgrp/npool/nimage =       2
     Subspace diagonalization in iterative solution of the eigenvalue problem:
     a serial algorithm will be used

     Message from routine divide_et_impera:
     suboptimal parallelization: some nodes have no k-points
 
     Parallelization info
     --------------------
     sticks:   dense  smooth     PW     G-vecs:    dense   smooth      PW
     Min        2047    2047    542                98044    98044   13326
     Max        2048    2048    543                98045    98045   13327
     Sum        4095    4095   1085               196089   196089   26653
 
     Using Slab Decomposition
 


     bravais-lattice index     =            0
     lattice parameter (alat)  =      20.8233  a.u.
     unit-cell volume          =    8836.2584 (a.u.)^3
     number of atoms/cell      =           64
     number of atomic types    =            1
     number of electrons       =       256.00
     number of Kohn-Sham states=          128
     kinetic-energy cutoff     =      30.0000  Ry
     charge density cutoff     =     120.0000  Ry
     scf convergence threshold =      1.0E-06
     mixing beta               =       0.5000
     number of iterations used =            8  plain     mixing
     Exchange-correlation= PBE
                           (   1   4   3   4   0   0   0)

     GPU acceleration is ACTIVE.
     GPU-aware MPI enabled

     Message from routine print_cuda_info:
     High GPU oversubscription detected. Are you sure this is what you want?

     celldm(1)=  20.823342  celldm(2)=   0.000000  celldm(3)=   0.000000
     celldm(4)=   0.000000  celldm(5)=   0.000000  celldm(6)=   0.000000

     crystal axes: (cart. coord. in units of alat)
               a(1) = (   1.000000   0.000000   0.000000 )  
               a(2) = (   0.000000   0.990796   0.000000 )  
               a(3) = (   0.000000   0.000000   0.987718 )  

     reciprocal axes: (cart. coord. in units 2 pi/alat)
               b(1) = (  1.000000  0.000000  0.000000 )  
               b(2) = (  0.000000  1.009290  0.000000 )  
               b(3) = (  0.000000  0.000000  1.012434 )  


     PseudoPot. # 1 for Si read from file:
     /home/ppiaggi/pseudos/Si_ONCV_PBE_sr.upf
     MD5 check sum: 8553c464762ac42b85b1eed164b4d029
     Pseudo is Norm-conserving, Zval =  4.0
     Generated using ONCVPSP code by D. R. Hamann
     Using radial grid of 1510 points,  4 beta functions with: 
                l(1) =   0
                l(2) =   0
                l(3) =   1
                l(4) =   1

     atomic species   valence    mass     pseudopotential
        Si             4.00    28.08500     Si( 1.00)

     No symmetry found



   Cartesian axes

     site n.     atom                  positions (alat units)
         1           Si  tau(   1) = (   0.0020450  -0.0041057  -0.0033846  )
         2           Si  tau(   2) = (   0.0037429   0.2552946   0.2511461  )
         3           Si  tau(   3) = (   0.2473660  -0.0011168   0.2544968  )
         4           Si  tau(   4) = (   0.2490157   0.2512068  -0.0039521  )
         5           Si  tau(   5) = (   0.1287852   0.1286097   0.1231306  )
         6           Si  tau(   6) = (   0.5039094   0.0018052  -0.0016106  )
         7           Si  tau(   7) = (   0.5014271   0.2479703   0.2467528  )
         8           Si  tau(   8) = (   0.6258496   0.1286202   0.1275758  )
         9           Si  tau(   9) = (   0.7524704   0.0023136   0.2532417  )
        10           Si  tau(  10) = (   0.7506349   0.2512972  -0.0018666  )
        11           Si  tau(  11) = (   0.0014544   0.4998319  -0.0036083  )
        12           Si  tau(  12) = (   0.2452429   0.4990368   0.2550326  )
        13           Si  tau(  13) = (   0.1262845   0.6290826   0.1267243  )
        14           Si  tau(  14) = (   0.3790171   0.3729075   0.1273864  )
        15           Si  tau(  15) = (   0.5020186   0.5048563  -0.0043676  )
        16           Si  tau(  16) = (   0.6266570   0.6293521   0.1295038  )
        17           Si  tau(  17) = (   0.8722455   0.3741545   0.1219584  )
        18           Si  tau(  18) = (   0.7470197   0.5059793   0.2516105  )
        19           Si  tau(  19) = (  -0.0036578   0.7500779   0.2511825  )
        20           Si  tau(  20) = (   0.2511092   0.7497226   0.0036358  )
        21           Si  tau(  21) = (   0.3741015   0.8807171   0.1296334  )
        22           Si  tau(  22) = (   0.4960724   0.7534310   0.2475265  )
        23           Si  tau(  23) = (   0.7534214   0.7517936   0.0004052  )
        24           Si  tau(  24) = (   0.8767008   0.8811658   0.1250341  )
        25           Si  tau(  25) = (   0.0030160   0.0021322   0.5064168  )
        26           Si  tau(  26) = (   0.2519865   0.2499024   0.5014744  )
        27           Si  tau(  27) = (   0.1261117   0.1282592   0.6262237  )
        28           Si  tau(  28) = (   0.3765826   0.1226615   0.3765409  )
        29           Si  tau(  29) = (   0.4992687   0.0022075   0.5020762  )
        30           Si  tau(  30) = (   0.6222583   0.1215702   0.6288355  )
        31           Si  tau(  31) = (   0.8737133   0.1278174   0.3791033  )
        32           Si  tau(  32) = (   0.7524461   0.2502283   0.5017362  )
        33           Si  tau(  33) = (   0.1233033   0.3796757   0.3783842  )
        34           Si  tau(  34) = (  -0.0020912   0.5061493   0.4977572  )
        35           Si  tau(  35) = (   0.1218289   0.6295245   0.6317973  )
        36           Si  tau(  36) = (   0.6234828   0.3784436   0.3762265  )
        37           Si  tau(  37) = (   0.3776640   0.6286351   0.3779870  )
        38           Si  tau(  38) = (   0.3784827   0.3799332   0.6247016  )
        39           Si  tau(  39) = (   0.4975637   0.5016102   0.5027231  )
        40           Si  tau(  40) = (   0.6257635   0.6291510   0.6290247  )
        41           Si  tau(  41) = (   0.8783255   0.6305697   0.3762007  )
        42           Si  tau(  42) = (   0.8722689   0.3729243   0.6316118  )
        43           Si  tau(  43) = (   0.1263488   0.8812243   0.3730090  )
        44           Si  tau(  44) = (   0.2490942   0.7565273   0.5038744  )
        45           Si  tau(  45) = (   0.6201121   0.8753751   0.3733888  )
        46           Si  tau(  46) = (   0.3754139   0.8797288   0.6275060  )
        47           Si  tau(  47) = (   0.7524867   0.7503544   0.5041759  )
        48           Si  tau(  48) = (   0.8768864   0.8775974   0.6264727  )
        49           Si  tau(  49) = (   0.0002823   0.2467228   0.7504565  )
        50           Si  tau(  50) = (   0.2539324  -0.0020504   0.7570727  )
        51           Si  tau(  51) = (   0.3765086   0.1239044   0.8754399  )
        52           Si  tau(  52) = (   0.5005833   0.2515246   0.7491881  )
        53           Si  tau(  53) = (   0.7523717  -0.0014902   0.7494311  )
        54           Si  tau(  54) = (   0.8777275   0.1283779   0.8771034  )
        55           Si  tau(  55) = (   0.1279325   0.3739267   0.8819383  )
        56           Si  tau(  56) = (   0.2477614   0.4979764   0.7493670  )
        57           Si  tau(  57) = (   0.6255538   0.3796641   0.8789247  )
        58           Si  tau(  58) = (   0.3719917   0.6270060   0.8774606  )
        59           Si  tau(  59) = (   0.7501550   0.5043077   0.7527051  )
        60           Si  tau(  60) = (   0.8720583   0.6309417   0.8828435  )
        61           Si  tau(  61) = (  -0.0013846   0.7578965   0.7487764  )
        62           Si  tau(  62) = (   0.1291249   0.8787613   0.8816619  )
        63           Si  tau(  63) = (   0.4987476   0.7536005   0.7526617  )
        64           Si  tau(  64) = (   0.6197719   0.8805813   0.8803379  )

     number of k points=     1
                       cart. coord. in units 2pi/alat
        k(    1) = (   0.0000000   0.0000000   0.0000000), wk =   2.0000000

     Dense  grid:    98045 G-vectors     FFT dimensions: (  75,  72,  72)

     Estimated max dynamical RAM per process >     143.72 MB

     Estimated total dynamical RAM >     550.94 MB

     Initial potential from superposition of free atoms

     starting charge     255.9608, renormalised to     256.0000
     Starting wfcs are  256 randomized atomic wfcs

     total cpu time spent up to now is        4.6 secs

     Self-consistent Calculation

     iteration #  1     ecut=    30.00 Ry     beta= 0.50
     Davidson diagonalization with overlap
     ethr =  1.00E-02,  avg # of iterations =  2.0

     Threshold (ethr) on eigenvalues was too large:
     Diagonalizing with lowered threshold

     Davidson diagonalization with overlap
     ethr =  6.59E-04,  avg # of iterations =  2.0

     total cpu time spent up to now is        4.7 secs

     total energy              =    -503.74413441 Ry
     estimated scf accuracy    <       1.88467948 Ry

     iteration #  2     ecut=    30.00 Ry     beta= 0.50
     Davidson diagonalization with overlap
     ethr =  7.36E-04,  avg # of iterations =  1.0

     total cpu time spent up to now is        4.8 secs

     total energy              =    -503.71806381 Ry
     estimated scf accuracy    <       0.36733253 Ry

     iteration #  3     ecut=    30.00 Ry     beta= 0.50
     Davidson diagonalization with overlap
     ethr =  1.43E-04,  avg # of iterations =  2.0

     total cpu time spent up to now is        4.9 secs

     total energy              =    -503.74551314 Ry
     estimated scf accuracy    <       0.00663403 Ry

     iteration #  4     ecut=    30.00 Ry     beta= 0.50
     Davidson diagonalization with overlap
     ethr =  2.59E-06,  avg # of iterations = 10.0

     total cpu time spent up to now is        5.0 secs

     total energy              =    -503.75030692 Ry
     estimated scf accuracy    <       0.00072584 Ry

     iteration #  5     ecut=    30.00 Ry     beta= 0.50
     Davidson diagonalization with overlap
     ethr =  2.84E-07,  avg # of iterations =  8.0

     total cpu time spent up to now is        5.2 secs

     total energy              =    -503.75052151 Ry
     estimated scf accuracy    <       0.00014100 Ry

     iteration #  6     ecut=    30.00 Ry     beta= 0.50
     Davidson diagonalization with overlap
     ethr =  5.51E-08,  avg # of iterations =  8.0

     total cpu time spent up to now is        5.3 secs

     total energy              =    -503.75056640 Ry
     estimated scf accuracy    <       0.00008586 Ry

     iteration #  7     ecut=    30.00 Ry     beta= 0.50
     Davidson diagonalization with overlap
     ethr =  3.35E-08,  avg # of iterations =  3.0

     total cpu time spent up to now is        5.4 secs

     total energy              =    -503.75058227 Ry
     estimated scf accuracy    <       0.00000283 Ry

     iteration #  8     ecut=    30.00 Ry     beta= 0.50
     Davidson diagonalization with overlap
     ethr =  1.11E-09,  avg # of iterations = 12.0

     total cpu time spent up to now is        5.5 secs

     total energy              =    -503.75058271 Ry
     estimated scf accuracy    <       0.00000857 Ry

     iteration #  9     ecut=    30.00 Ry     beta= 0.50
     Davidson diagonalization with overlap
     ethr =  1.11E-09,  avg # of iterations =  3.0

     total cpu time spent up to now is        5.6 secs

     End of self-consistent calculation

          k = 0.0000 0.0000 0.0000 ( 12251 PWs)   bands (ev):

    -5.8530  -4.8378  -4.8345  -4.8275  -4.7843  -4.6973  -4.6488  -4.1109
    -3.9850  -3.9582  -3.8675  -3.8218  -3.8085  -3.7790  -3.7402  -3.7263
    -3.6995  -3.6578  -3.6059  -3.4978  -3.4312  -3.3795  -3.3692  -2.0980
    -1.8850  -1.8567  -1.7871  -1.7478  -1.7021  -1.6445  -1.6163  -1.6013
    -1.5625  -1.5456  -1.5249  -1.4775  -1.4479  -1.4235  -1.4130  -1.3709
    -1.3634  -0.9941  -0.8755  -0.8272  -0.6539   0.4237   0.4545   0.4933
     0.5014   0.5307   0.5449   0.5863   0.6223   0.6765   0.6877   0.7326
     0.7751   1.9755   2.0212   2.0288   2.0452   2.0967   2.1363   2.2288
     2.2470   2.2655   2.2862   2.3113   2.3271   2.3325   2.3607   2.3665
     2.3806   2.3969   2.4161   2.4408   2.4452   2.4556   2.4641   2.5084
     2.5341   2.5493   2.5852   2.6169   2.6269   2.6451   2.6986   3.0494
     3.1396   3.2456   3.2757   3.3237   3.3321   3.9682   4.0243   4.0487
     4.1224   4.1812   4.2141   4.2181   4.2335   4.2400   4.2561   4.2715
     4.2887   4.3487   4.4206   4.7086   4.7184   4.7436   4.7658   4.7887
     4.8164   4.8198   4.8433   4.8576   4.8748   4.8841   4.9347   4.9515
     4.9868   4.9903   5.0311   5.0611   5.0947   5.8930   6.1126   6.2655

     highest occupied level (ev):     6.2655

!    total energy              =    -503.75058369 Ry
     estimated scf accuracy    <       0.00000072 Ry

     The total energy is the sum of the following terms:
     one-electron contribution =     144.72564632 Ry
     hartree contribution      =      37.60669945 Ry
     xc contribution           =    -153.74818740 Ry
     ewald contribution        =    -532.33474206 Ry

     convergence has been achieved in   9 iterations

     Forces acting on atoms (cartesian axes, Ry/au):

     atom    1 type  1   force =    -0.02422584    0.09027823    0.07913633
     atom    2 type  1   force =    -0.02092479   -0.01517601   -0.00498006
     atom    3 type  1   force =     0.02397133    0.07097818   -0.02992792
     atom    4 type  1   force =     0.04643159   -0.01859065    0.07680312
     atom    5 type  1   force =    -0.01784096   -0.01266452    0.01350505
     atom    6 type  1   force =    -0.05435830    0.07314865    0.10624318
     atom    7 type  1   force =    -0.00518329    0.01257980    0.03599789
     atom    8 type  1   force =     0.02067492   -0.01725299   -0.01515402
     atom    9 type  1   force =    -0.01645698    0.03031318   -0.00006758
     atom   10 type  1   force =    -0.01099068   -0.00127258    0.05133368
     atom   11 type  1   force =    -0.01120520    0.01893825    0.07087122
     atom   12 type  1   force =     0.03800018    0.01554454   -0.01474724
     atom   13 type  1   force =    -0.01549215   -0.02645820    0.00625730
     atom   14 type  1   force =    -0.02457763    0.02555019   -0.01803474
     atom   15 type  1   force =    -0.01026778   -0.00048901    0.08655261
     atom   16 type  1   force =    -0.01170942    0.00324732   -0.02631985
     atom   17 type  1   force =     0.01377523    0.02326703    0.02181763
     atom   18 type  1   force =     0.02171531   -0.01958040    0.00547863
     atom   19 type  1   force =     0.02607415    0.02825401   -0.01156591
     atom   20 type  1   force =     0.00153190    0.01657662    0.04977613
     atom   21 type  1   force =     0.00414623   -0.03491244   -0.02730620
     atom   22 type  1   force =     0.01042533   -0.01079015    0.01409066
     atom   23 type  1   force =    -0.04777166    0.03971663    0.07379887
     atom   24 type  1   force =    -0.00589329   -0.05017814    0.00900726
     atom   25 type  1   force =    -0.00558221    0.03699140   -0.03133290
     atom   26 type  1   force =     0.00104003    0.01750422   -0.00669649
     atom   27 type  1   force =     0.01918161   -0.01614915    0.01646681
     atom   28 type  1   force =    -0.00703839    0.01737852   -0.00707385
     atom   29 type  1   force =     0.00588713    0.01949195   -0.00408766
     atom   30 type  1   force =     0.02505785    0.02261398   -0.01642484
     atom   31 type  1   force =     0.03190082   -0.00134669   -0.00793883
     atom   32 type  1   force =    -0.03340316    0.00647365    0.01081424
     atom   33 type  1   force =     0.00283451   -0.01681241    0.01047381
     atom   34 type  1   force =     0.00352725   -0.01945118    0.04078761
     atom   35 type  1   force =     0.00670326   -0.00752853   -0.03042978
     atom   36 type  1   force =     0.00442952   -0.01311175    0.00219666
     atom   37 type  1   force =    -0.02898414   -0.00361765   -0.00235087
     atom   38 type  1   force =    -0.02268444   -0.02461703    0.00622871
     atom   39 type  1   force =     0.02785675    0.01975316   -0.00883298
     atom   40 type  1   force =    -0.00604629   -0.01171833   -0.00659022
     atom   41 type  1   force =    -0.03296173   -0.01644764   -0.00047012
     atom   42 type  1   force =     0.01589986    0.02433528   -0.02435532
     atom   43 type  1   force =    -0.03951850   -0.06894616    0.03705924
     atom   44 type  1   force =     0.00132813   -0.01643919   -0.00714605
     atom   45 type  1   force =     0.02447094   -0.02958058    0.01440848
     atom   46 type  1   force =     0.00019369   -0.04289974   -0.00316415
     atom   47 type  1   force =    -0.01409740    0.01302252   -0.01864306
     atom   48 type  1   force =    -0.00746309   -0.03117024   -0.01443862
     atom   49 type  1   force =     0.01065450    0.02857002    0.01063850
     atom   50 type  1   force =    -0.01630592    0.05184814   -0.02648676
     atom   51 type  1   force =     0.00406862    0.02289513   -0.04081374
     atom   52 type  1   force =     0.00139437    0.00662380    0.01251839
     atom   53 type  1   force =    -0.01906608    0.04306228    0.02648916
     atom   54 type  1   force =    -0.00569798   -0.02778942   -0.05100554
     atom   55 type  1   force =    -0.02735422    0.01100229   -0.09719680
     atom   56 type  1   force =     0.00438605    0.01190153    0.01326791
     atom   57 type  1   force =     0.00510978   -0.01754219   -0.06977901
     atom   58 type  1   force =     0.00454211   -0.00841664   -0.06419005
     atom   59 type  1   force =     0.00008463   -0.00370658    0.00852811
     atom   60 type  1   force =     0.04246880   -0.02930719   -0.09420369
     atom   61 type  1   force =     0.00611049   -0.01931072    0.04193314
     atom   62 type  1   force =     0.01521493   -0.07578473   -0.07984363
     atom   63 type  1   force =    -0.00387738   -0.00299985   -0.00006812
     atom   64 type  1   force =     0.07588710   -0.08980179   -0.09081370

     Total force =     0.458116     Total SCF correction =     0.001568


     Computing stress (Cartesian axis) and pressure

          total   stress  (Ry/bohr**3)                   (kbar)     P=       15.30
   0.00007785  -0.00010390  -0.00008303           11.45      -15.28      -12.21
  -0.00010390   0.00011737   0.00000806          -15.28       17.27        1.19
  -0.00008303   0.00000806   0.00011675          -12.21        1.19       17.17

 
     init_run     :      1.29s CPU      4.52s WALL (       1 calls)
     electrons    :      0.96s CPU      1.04s WALL (       1 calls)
     forces       :      0.04s CPU      0.04s WALL (       1 calls)
     stress       :      0.13s CPU      0.13s WALL (       1 calls)

     Called by init_run:
     wfcinit      :      0.63s CPU      3.69s WALL (       1 calls)
                                        3.69s GPU  (       1 calls)
     potinit      :      0.16s CPU      0.25s WALL (       1 calls)
     hinit0       :      0.48s CPU      0.51s WALL (       1 calls)

     Called by electrons:
     c_bands      :      0.66s CPU      0.70s WALL (      10 calls)
     sum_band     :      0.17s CPU      0.19s WALL (      10 calls)
     v_of_rho     :      0.08s CPU      0.18s WALL (      10 calls)
     mix_rho      :      0.05s CPU      0.07s WALL (      10 calls)

     Called by c_bands:
     init_us_2    :      0.03s CPU      0.03s WALL (      21 calls)
     init_us_2:gp :      0.03s CPU      0.03s WALL (      21 calls)
     regterg      :      0.58s CPU      0.61s WALL (      10 calls)

     Called by *egterg:
     rdiaghg      :      0.25s CPU      0.86s WALL (      60 calls)
                                        0.85s GPU  (      60 calls)
     h_psi        :      0.86s CPU      3.32s WALL (      62 calls)
                                        3.32s GPU  (      62 calls)
     g_psi        :      0.00s CPU      0.00s WALL (      51 calls)
                                        0.00s GPU  (      51 calls)

     Called by h_psi:
     h_psi:calbec :      0.58s CPU      2.98s WALL (      62 calls)
                                        2.98s GPU  (      62 calls)
     vloc_psi     :      0.24s CPU      0.30s WALL (      62 calls)
                                        0.30s GPU  (      62 calls)
     add_vuspsi   :      0.02s CPU      0.03s WALL (      62 calls)
                                        0.03s GPU  (      62 calls)

     General routines
     calbec       :      0.58s CPU      2.98s WALL (      67 calls)
     fft          :      0.51s CPU      0.62s WALL (      87 calls)
                                        0.12s GPU  (      56 calls)
     ffts         :      0.02s CPU      0.02s WALL (      10 calls)
     fftw         :      0.27s CPU      0.38s WALL (     950 calls)
                                        0.34s GPU  (     950 calls)
 
     Parallel routines
 
     PWSCF        :      2.45s CPU      5.81s WALL

 
   This run was terminated on:  15:19:18   8May2023            

=------------------------------------------------------------------------------=
   JOB DONE.
=------------------------------------------------------------------------------=
