
     Program PWSCF v.7.1 starts on  8May2023 at 15:11: 8 

     This program is part of the open-source Quantum ESPRESSO suite
     for quantum simulation of materials; please cite
         "P. Giannozzi et al., J. Phys.:Condens. Matter 21 395502 (2009);
         "P. Giannozzi et al., J. Phys.:Condens. Matter 29 465901 (2017);
         "P. Giannozzi et al., J. Chem. Phys. 152 154105 (2020);
          URL http://www.quantum-espresso.org", 
     in publications or presentations arising from this work. More details at
     http://www.quantum-espresso.org/quote

     Parallel version (MPI & OpenMP), running on       4 processor cores
     Number of MPI processes:                 4
     Threads/MPI process:                     1

     MPI processes distributed on     1 nodes
     183944 MiB available memory on the printing compute node when the environment starts
 
     Reading input from pw-si-9.in
Warning: card &CELL ignored
Warning: card / ignored

     Current dimensions of program PWSCF are:
     Max number of different atomic species (ntypx) = 10
     Max number of k-points (npk) =  40000
     Max angular momentum in pseudopotentials (lmaxx) =  4

     IMPORTANT: XC functional enforced from input :
     Exchange-correlation= PBE
                           (   1   4   3   4   0   0   0)
     Any further DFT definition will be discarded
     Please, verify this is what you really want


     gamma-point specific algorithms are used
 
     K-points division:     npool     =       2
     R & G space division:  proc/nbgrp/npool/nimage =       2
     Subspace diagonalization in iterative solution of the eigenvalue problem:
     a serial algorithm will be used

     Message from routine divide_et_impera:
     suboptimal parallelization: some nodes have no k-points
 
     Parallelization info
     --------------------
     sticks:   dense  smooth     PW     G-vecs:    dense   smooth      PW
     Min        2128    2128    558               102236   102236   13914
     Max        2129    2129    559               102241   102241   13919
     Sum        4257    4257   1117               204477   204477   27833
 
     Using Slab Decomposition
 


     bravais-lattice index     =            0
     lattice parameter (alat)  =      21.0961  a.u.
     unit-cell volume          =    9214.7403 (a.u.)^3
     number of atoms/cell      =           64
     number of atomic types    =            1
     number of electrons       =       256.00
     number of Kohn-Sham states=          128
     kinetic-energy cutoff     =      30.0000  Ry
     charge density cutoff     =     120.0000  Ry
     scf convergence threshold =      1.0E-06
     mixing beta               =       0.5000
     number of iterations used =            8  plain     mixing
     Exchange-correlation= PBE
                           (   1   4   3   4   0   0   0)

     GPU acceleration is ACTIVE.
     GPU-aware MPI enabled

     Message from routine print_cuda_info:
     High GPU oversubscription detected. Are you sure this is what you want?

     celldm(1)=  21.096053  celldm(2)=   0.000000  celldm(3)=   0.000000
     celldm(4)=   0.000000  celldm(5)=   0.000000  celldm(6)=   0.000000

     crystal axes: (cart. coord. in units of alat)
               a(1) = (   1.000000   0.000000   0.000000 )  
               a(2) = (   0.000000   1.002560   0.000000 )  
               a(3) = (   0.000000   0.000000   0.978970 )  

     reciprocal axes: (cart. coord. in units 2 pi/alat)
               b(1) = (  1.000000  0.000000  0.000000 )  
               b(2) = (  0.000000  0.997447  0.000000 )  
               b(3) = (  0.000000  0.000000  1.021482 )  


     PseudoPot. # 1 for Si read from file:
     /home/ppiaggi/pseudos/Si_ONCV_PBE_sr.upf
     MD5 check sum: 8553c464762ac42b85b1eed164b4d029
     Pseudo is Norm-conserving, Zval =  4.0
     Generated using ONCVPSP code by D. R. Hamann
     Using radial grid of 1510 points,  4 beta functions with: 
                l(1) =   0
                l(2) =   0
                l(3) =   1
                l(4) =   1

     atomic species   valence    mass     pseudopotential
        Si             4.00    28.08500     Si( 1.00)

     No symmetry found



   Cartesian axes

     site n.     atom                  positions (alat units)
         1           Si  tau(   1) = (  -0.0043979  -0.0037977   0.0023278  )
         2           Si  tau(   2) = (  -0.0011996   0.2526798   0.2384803  )
         3           Si  tau(   3) = (   0.2506385  -0.0030939   0.2448585  )
         4           Si  tau(   4) = (   0.2485746   0.2497858  -0.0032886  )
         5           Si  tau(   5) = (   0.1208812   0.1268757   0.1233767  )
         6           Si  tau(   6) = (   0.4966357  -0.0028637  -0.0016812  )
         7           Si  tau(   7) = (   0.4947098   0.2495606   0.2418201  )
         8           Si  tau(   8) = (   0.6200031   0.1234261   0.1208054  )
         9           Si  tau(   9) = (   0.7358359   0.0017158   0.2430547  )
        10           Si  tau(  10) = (   0.7362581   0.2499051   0.0040693  )
        11           Si  tau(  11) = (  -0.0016220   0.5001815   0.0023638  )
        12           Si  tau(  12) = (   0.2458140   0.4964336   0.2431657  )
        13           Si  tau(  13) = (   0.1264400   0.6258011   0.1187444  )
        14           Si  tau(  14) = (   0.3704327   0.3719224   0.1207997  )
        15           Si  tau(  15) = (   0.4901571   0.4998672  -0.0020417  )
        16           Si  tau(  16) = (   0.6170121   0.6270368   0.1247590  )
        17           Si  tau(  17) = (   0.8662865   0.3782264   0.1223472  )
        18           Si  tau(  18) = (   0.7369506   0.4991350   0.2385013  )
        19           Si  tau(  19) = (  -0.0004464   0.7486707   0.2468963  )
        20           Si  tau(  20) = (   0.2457155   0.7522638   0.0039802  )
        21           Si  tau(  21) = (   0.3740080   0.8701781   0.1246401  )
        22           Si  tau(  22) = (   0.4949314   0.7508470   0.2384215  )
        23           Si  tau(  23) = (   0.7376180   0.7464973   0.0002245  )
        24           Si  tau(  24) = (   0.8637952   0.8697999   0.1220426  )
        25           Si  tau(  25) = (   0.0036334   0.0004553   0.4853113  )
        26           Si  tau(  26) = (   0.2429061   0.2478474   0.4815759  )
        27           Si  tau(  27) = (   0.1200830   0.1278501   0.6083740  )
        28           Si  tau(  28) = (   0.3688802   0.1284057   0.3606516  )
        29           Si  tau(  29) = (   0.4944932  -0.0001214   0.4838027  )
        30           Si  tau(  30) = (   0.6146753   0.1217794   0.6079625  )
        31           Si  tau(  31) = (   0.8660453   0.1282444   0.3607820  )
        32           Si  tau(  32) = (   0.7389506   0.2464191   0.4819036  )
        33           Si  tau(  33) = (   0.1216403   0.3767327   0.3599572  )
        34           Si  tau(  34) = (   0.0006275   0.4952734   0.4838576  )
        35           Si  tau(  35) = (   0.1217873   0.6262784   0.6047688  )
        36           Si  tau(  36) = (   0.6150040   0.3748233   0.3667857  )
        37           Si  tau(  37) = (   0.3740980   0.6263993   0.3652587  )
        38           Si  tau(  38) = (   0.3724132   0.3761136   0.6091260  )
        39           Si  tau(  39) = (   0.4955971   0.4988865   0.4889457  )
        40           Si  tau(  40) = (   0.6166783   0.6222616   0.6023763  )
        41           Si  tau(  41) = (   0.8626589   0.6202584   0.3646509  )
        42           Si  tau(  42) = (   0.8660660   0.3764589   0.6089670  )
        43           Si  tau(  43) = (   0.1250050   0.8731929   0.3639533  )
        44           Si  tau(  44) = (   0.2485242   0.7490554   0.4834176  )
        45           Si  tau(  45) = (   0.6160423   0.8740307   0.3630004  )
        46           Si  tau(  46) = (   0.3696367   0.8762575   0.6060863  )
        47           Si  tau(  47) = (   0.7367993   0.7469343   0.4838573  )
        48           Si  tau(  48) = (   0.8671999   0.8682407   0.6081015  )
        49           Si  tau(  49) = (   0.0010911   0.2515279   0.7236112  )
        50           Si  tau(  50) = (   0.2460294  -0.0022116   0.7293084  )
        51           Si  tau(  51) = (   0.3681315   0.1253109   0.8458703  )
        52           Si  tau(  52) = (   0.4891633   0.2488903   0.7237504  )
        53           Si  tau(  53) = (   0.7358675  -0.0031664   0.7246878  )
        54           Si  tau(  54) = (   0.8672191   0.1269621   0.8480200  )
        55           Si  tau(  55) = (   0.1191557   0.3724177   0.8463538  )
        56           Si  tau(  56) = (   0.2433516   0.4988074   0.7309586  )
        57           Si  tau(  57) = (   0.6128254   0.3743630   0.8498615  )
        58           Si  tau(  58) = (   0.3671627   0.6255791   0.8447580  )
        59           Si  tau(  59) = (   0.7429258   0.4979484   0.7238840  )
        60           Si  tau(  60) = (   0.8641912   0.6225980   0.8496976  )
        61           Si  tau(  61) = (   0.0041115   0.7516741   0.7243538  )
        62           Si  tau(  62) = (   0.1241255   0.8743108   0.8467887  )
        63           Si  tau(  63) = (   0.4955556   0.7513236   0.7305746  )
        64           Si  tau(  64) = (   0.6195654   0.8715533   0.8467750  )

     number of k points=     1
                       cart. coord. in units 2pi/alat
        k(    1) = (   0.0000000   0.0000000   0.0000000), wk =   2.0000000

     Dense  grid:   102239 G-vectors     FFT dimensions: (  75,  75,  75)

     Estimated max dynamical RAM per process >     150.54 MB

     Estimated total dynamical RAM >     577.22 MB

     Initial potential from superposition of free atoms

     starting charge     255.9608, renormalised to     256.0000
     Starting wfcs are  256 randomized atomic wfcs

     total cpu time spent up to now is        4.4 secs

     Self-consistent Calculation

     iteration #  1     ecut=    30.00 Ry     beta= 0.50
     Davidson diagonalization with overlap
     ethr =  1.00E-02,  avg # of iterations =  2.0

     Threshold (ethr) on eigenvalues was too large:
     Diagonalizing with lowered threshold

     Davidson diagonalization with overlap
     ethr =  6.12E-04,  avg # of iterations =  2.0

     total cpu time spent up to now is        4.6 secs

     total energy              =    -503.82209195 Ry
     estimated scf accuracy    <       1.75411062 Ry

     iteration #  2     ecut=    30.00 Ry     beta= 0.50
     Davidson diagonalization with overlap
     ethr =  6.85E-04,  avg # of iterations =  1.0

     total cpu time spent up to now is        4.7 secs

     total energy              =    -503.79787083 Ry
     estimated scf accuracy    <       0.35079941 Ry

     iteration #  3     ecut=    30.00 Ry     beta= 0.50
     Davidson diagonalization with overlap
     ethr =  1.37E-04,  avg # of iterations =  2.0

     total cpu time spent up to now is        4.7 secs

     total energy              =    -503.82170372 Ry
     estimated scf accuracy    <       0.00594833 Ry

     iteration #  4     ecut=    30.00 Ry     beta= 0.50
     Davidson diagonalization with overlap
     ethr =  2.32E-06,  avg # of iterations =  9.0

     total cpu time spent up to now is        4.9 secs

     total energy              =    -503.82625897 Ry
     estimated scf accuracy    <       0.00045079 Ry

     iteration #  5     ecut=    30.00 Ry     beta= 0.50
     Davidson diagonalization with overlap
     ethr =  1.76E-07,  avg # of iterations =  7.0

     total cpu time spent up to now is        5.0 secs

     total energy              =    -503.82644106 Ry
     estimated scf accuracy    <       0.00005862 Ry

     iteration #  6     ecut=    30.00 Ry     beta= 0.50
     Davidson diagonalization with overlap
     ethr =  2.29E-08,  avg # of iterations =  7.0

     total cpu time spent up to now is        5.1 secs

     total energy              =    -503.82645794 Ry
     estimated scf accuracy    <       0.00005808 Ry

     iteration #  7     ecut=    30.00 Ry     beta= 0.50
     Davidson diagonalization with overlap
     ethr =  2.27E-08,  avg # of iterations =  3.0

     total cpu time spent up to now is        5.3 secs

     total energy              =    -503.82646764 Ry
     estimated scf accuracy    <       0.00000285 Ry

     iteration #  8     ecut=    30.00 Ry     beta= 0.50
     Davidson diagonalization with overlap
     ethr =  1.11E-09,  avg # of iterations =  5.0

     total cpu time spent up to now is        5.4 secs

     total energy              =    -503.82646817 Ry
     estimated scf accuracy    <       0.00000487 Ry

     iteration #  9     ecut=    30.00 Ry     beta= 0.50
     Davidson diagonalization with overlap
     ethr =  1.11E-09,  avg # of iterations =  3.0

     total cpu time spent up to now is        5.5 secs

     End of self-consistent calculation

          k = 0.0000 0.0000 0.0000 ( 12753 PWs)   bands (ev):

    -5.9669  -5.0633  -4.9883  -4.9828  -4.9283  -4.8250  -4.8095  -4.2411
    -4.1715  -4.1197  -4.1096  -4.0907  -4.0197  -4.0062  -3.9861  -3.9536
    -3.9270  -3.8887  -3.8321  -3.7916  -3.7481  -3.6831  -3.4570  -2.1721
    -2.1474  -2.1202  -2.0442  -2.0152  -1.9980  -1.9807  -1.9560  -1.9261
    -1.8964  -1.8625  -1.8543  -1.8262  -1.8123  -1.7722  -1.7467  -1.6913
    -1.6272  -1.1815  -1.0697  -1.0359  -0.9935   0.1250   0.1423   0.1638
     0.1891   0.2157   0.2265   0.2455   0.2573   0.2945   0.3171   0.3419
     0.3578   1.8287   1.8588   1.8751   1.8760   1.8900   1.9004   1.9044
     1.9386   1.9541   1.9773   1.9840   1.9961   2.0058   2.0120   2.0331
     2.0401   2.0610   2.0790   2.1034   2.1321   2.1423   2.1732   2.2061
     2.2164   2.2359   2.2501   2.2809   2.3169   2.3419   2.3725   2.8035
     2.8159   2.9357   2.9482   3.0175   3.0411   3.6167   3.6673   3.7589
     3.7716   3.8151   3.8375   3.8500   3.9192   3.9483   3.9657   3.9881
     4.0438   4.1377   4.1813   4.2199   4.2431   4.2775   4.2969   4.3211
     4.3313   4.3491   4.3820   4.3968   4.4260   4.4414   4.5015   4.5318
     4.5719   4.6082   4.7011   4.7503   4.9234   5.5547   5.6462   5.7664

     highest occupied level (ev):     5.7664

!    total energy              =    -503.82646892 Ry
     estimated scf accuracy    <       0.00000038 Ry

     The total energy is the sum of the following terms:
     one-electron contribution =     135.28640901 Ry
     hartree contribution      =      38.54667192 Ry
     xc contribution           =    -152.36237244 Ry
     ewald contribution        =    -525.29717740 Ry

     convergence has been achieved in   9 iterations

     Forces acting on atoms (cartesian axes, Ry/au):

     atom    1 type  1   force =    -0.01497171    0.00343958   -0.03109697
     atom    2 type  1   force =    -0.03472920    0.00217931    0.01392807
     atom    3 type  1   force =    -0.01659119    0.00368263   -0.01499404
     atom    4 type  1   force =    -0.02042220   -0.00609159   -0.01522231
     atom    5 type  1   force =     0.01656052   -0.02566230   -0.02020184
     atom    6 type  1   force =    -0.00894400   -0.00233906   -0.02378193
     atom    7 type  1   force =     0.00275114    0.00060286   -0.00341590
     atom    8 type  1   force =    -0.02820572   -0.00111474    0.00022355
     atom    9 type  1   force =     0.03989775   -0.02565569    0.00177809
     atom   10 type  1   force =     0.03501504    0.01388178   -0.04822982
     atom   11 type  1   force =    -0.02184518   -0.00075398   -0.03828964
     atom   12 type  1   force =     0.02011971    0.02512372   -0.00998244
     atom   13 type  1   force =    -0.02191450   -0.00874074    0.02457208
     atom   14 type  1   force =    -0.00170746    0.00941132   -0.00532233
     atom   15 type  1   force =     0.00494403    0.01272647   -0.01429904
     atom   16 type  1   force =    -0.01342630   -0.02095001   -0.03582453
     atom   17 type  1   force =     0.01024905   -0.01365347   -0.01380789
     atom   18 type  1   force =     0.01653969   -0.00316418    0.02903021
     atom   19 type  1   force =    -0.03173962   -0.01128362   -0.01666143
     atom   20 type  1   force =     0.01214267   -0.00358424   -0.05375328
     atom   21 type  1   force =    -0.01664893    0.04209098   -0.02856319
     atom   22 type  1   force =     0.00592635   -0.01317147    0.03802071
     atom   23 type  1   force =     0.02216024    0.00539507   -0.02802897
     atom   24 type  1   force =     0.01794419    0.01988747    0.00777045
     atom   25 type  1   force =    -0.05128398   -0.01127685   -0.00233211
     atom   26 type  1   force =     0.01126083    0.02263727    0.01592151
     atom   27 type  1   force =     0.02206169   -0.02470643   -0.01149022
     atom   28 type  1   force =     0.01080264   -0.01999261    0.01325310
     atom   29 type  1   force =    -0.01654827   -0.00337047   -0.00275144
     atom   30 type  1   force =     0.00345090    0.01054187   -0.01805831
     atom   31 type  1   force =     0.02931114   -0.01952124    0.00050599
     atom   32 type  1   force =     0.01471232    0.01358182    0.02776222
     atom   33 type  1   force =    -0.00276304   -0.02088326    0.00999660
     atom   34 type  1   force =    -0.04198725    0.02146052    0.01009400
     atom   35 type  1   force =     0.01103399   -0.01933701   -0.00667403
     atom   36 type  1   force =     0.00733893   -0.00324934   -0.01827542
     atom   37 type  1   force =    -0.00744336   -0.01763416   -0.01317090
     atom   38 type  1   force =    -0.03743480   -0.00310667   -0.02058704
     atom   39 type  1   force =    -0.01680145    0.00072819   -0.01665701
     atom   40 type  1   force =     0.00523153    0.01430049    0.03406517
     atom   41 type  1   force =     0.03002084    0.00412646   -0.00505137
     atom   42 type  1   force =     0.02570426   -0.02679222   -0.03165708
     atom   43 type  1   force =    -0.00202757    0.01561512    0.00289091
     atom   44 type  1   force =    -0.00175461    0.00230193    0.01194983
     atom   45 type  1   force =    -0.00028700    0.01314122    0.00036385
     atom   46 type  1   force =     0.00743636    0.00106016    0.00161912
     atom   47 type  1   force =     0.02766470    0.00539907   -0.00096501
     atom   48 type  1   force =     0.01094767    0.03297175   -0.01759466
     atom   49 type  1   force =    -0.05488181   -0.00136557    0.01987974
     atom   50 type  1   force =    -0.00484791    0.00876367   -0.01271415
     atom   51 type  1   force =     0.00995454   -0.01342161    0.03659085
     atom   52 type  1   force =     0.02260746   -0.00342274    0.02396743
     atom   53 type  1   force =     0.04537069   -0.00211708    0.01552810
     atom   54 type  1   force =     0.00296924   -0.01195050    0.02258217
     atom   55 type  1   force =     0.00900039    0.01046319    0.04734756
     atom   56 type  1   force =     0.00006513    0.00502883   -0.02037311
     atom   57 type  1   force =     0.01079849   -0.00306150    0.01123914
     atom   58 type  1   force =     0.00321693    0.00651665    0.05116946
     atom   59 type  1   force =    -0.01578466    0.00905488    0.02748917
     atom   60 type  1   force =     0.03408276    0.00997673    0.01387156
     atom   61 type  1   force =    -0.05034313   -0.01779336    0.02305348
     atom   62 type  1   force =    -0.00899697    0.01232278    0.04892495
     atom   63 type  1   force =    -0.01255710   -0.01588298   -0.02801224
     atom   64 type  1   force =    -0.00240487    0.01663691    0.04245054

     Total force =     0.286458     Total SCF correction =     0.000951


     Computing stress (Cartesian axis) and pressure

          total   stress  (Ry/bohr**3)                   (kbar)     P=      -22.38
  -0.00019093   0.00001364  -0.00000536          -28.09        2.01       -0.79
   0.00001364  -0.00019795   0.00001319            2.01      -29.12        1.94
  -0.00000536   0.00001319  -0.00006752           -0.79        1.94       -9.93

 
     init_run     :      0.78s CPU      4.32s WALL (       1 calls)
     electrons    :      1.00s CPU      1.10s WALL (       1 calls)
     forces       :      0.04s CPU      0.04s WALL (       1 calls)
     stress       :      0.13s CPU      0.14s WALL (       1 calls)

     Called by init_run:
     wfcinit      :      0.43s CPU      3.82s WALL (       1 calls)
                                        3.82s GPU  (       1 calls)
     potinit      :      0.15s CPU      0.23s WALL (       1 calls)
     hinit0       :      0.18s CPU      0.20s WALL (       1 calls)

     Called by electrons:
     c_bands      :      0.68s CPU      0.71s WALL (      10 calls)
     sum_band     :      0.17s CPU      0.22s WALL (      10 calls)
     v_of_rho     :      0.08s CPU      0.16s WALL (      10 calls)
     mix_rho      :      0.06s CPU      0.07s WALL (      10 calls)

     Called by c_bands:
     init_us_2    :      0.03s CPU      0.03s WALL (      21 calls)
     init_us_2:gp :      0.03s CPU      0.03s WALL (      21 calls)
     regterg      :      0.60s CPU      0.63s WALL (      10 calls)

     Called by *egterg:
     rdiaghg      :      0.21s CPU      0.88s WALL (      50 calls)
                                        0.87s GPU  (      50 calls)
     h_psi        :      0.72s CPU      3.45s WALL (      52 calls)
                                        3.45s GPU  (      52 calls)
     g_psi        :      0.00s CPU      0.00s WALL (      41 calls)
                                        0.00s GPU  (      41 calls)

     Called by h_psi:
     h_psi:calbec :      0.38s CPU      3.04s WALL (      52 calls)
                                        3.04s GPU  (      52 calls)
     vloc_psi     :      0.32s CPU      0.38s WALL (      52 calls)
                                        0.38s GPU  (      52 calls)
     add_vuspsi   :      0.02s CPU      0.03s WALL (      52 calls)
                                        0.03s GPU  (      52 calls)

     General routines
     calbec       :      0.38s CPU      3.05s WALL (      57 calls)
     fft          :      0.20s CPU      0.31s WALL (      87 calls)
                                        0.10s GPU  (      56 calls)
     ffts         :      0.02s CPU      0.02s WALL (      10 calls)
     fftw         :      0.34s CPU      0.46s WALL (     932 calls)
                                        0.42s GPU  (     932 calls)
 
     Parallel routines
 
     PWSCF        :      1.98s CPU      5.67s WALL

 
   This run was terminated on:  15:11:13   8May2023            

=------------------------------------------------------------------------------=
   JOB DONE.
=------------------------------------------------------------------------------=
