11.449205053482467 0.0 0.0 0.0 10.969116987179842 0.0 0.0 0.0 11.184659721516702
11.26669236349854 0.0 0.0 0.0 11.062753965026854 0.0 0.0 0.0 10.634405588059003
10.558889800933636 0.0 0.0 0.0 11.36663431181526 0.0 0.0 0.0 11.211819869553969
11.022106657797531 0.0 0.0 0.0 11.52605941840535 0.0 0.0 0.0 10.670931317573444
10.896372565561105 0.0 0.0 0.0 11.437824214716402 0.0 0.0 0.0 10.537522327859481
11.217878411913967 0.0 0.0 0.0 10.614053670635874 0.0 0.0 0.0 11.173332216740256
11.051891396969712 0.0 0.0 0.0 10.610688840511283 0.0 0.0 0.0 11.066435686048125
11.474052569300708 0.0 0.0 0.0 10.472241565422493 0.0 0.0 0.0 10.611880785190884
10.8438189186451 0.0 0.0 0.0 10.534737548006959 0.0 0.0 0.0 10.502075965424
10.460939628844603 0.0 0.0 0.0 11.44430979771451 0.0 0.0 0.0 11.190841230507607
11.40783292097897 0.0 0.0 0.0 11.319684595998565 0.0 0.0 0.0 10.941275370176772
11.492876990133468 0.0 0.0 0.0 11.036402901839345 0.0 0.0 0.0 11.345159042179281
10.450351851259866 0.0 0.0 0.0 10.917534830770437 0.0 0.0 0.0 10.532355762236701
11.269897589849537 0.0 0.0 0.0 11.298658368498835 0.0 0.0 0.0 10.525317995883357
11.464099275188785 0.0 0.0 0.0 11.208782320231055 0.0 0.0 0.0 10.795134690183694
11.404110159318202 0.0 0.0 0.0 10.528331519633362 0.0 0.0 0.0 11.29859933212419
10.48049113916164 0.0 0.0 0.0 10.70037184326125 0.0 0.0 0.0 10.699826857722014
11.08978154344224 0.0 0.0 0.0 11.441926466572706 0.0 0.0 0.0 10.785278321822403
10.799134665994517 0.0 0.0 0.0 10.679761031396614 0.0 0.0 0.0 10.650290192893115
11.356890618662401 0.0 0.0 0.0 11.30858976286123 0.0 0.0 0.0 11.107186664629872
10.596838156899084 0.0 0.0 0.0 11.405281536727074 0.0 0.0 0.0 10.447073043227629
10.768053971839082 0.0 0.0 0.0 11.111813326836074 0.0 0.0 0.0 10.727964506901925
11.042883742529117 0.0 0.0 0.0 10.44370791354323 0.0 0.0 0.0 11.247563592696894
11.308447091123675 0.0 0.0 0.0 11.454473068411355 0.0 0.0 0.0 10.627757735367666
11.232322303815975 0.0 0.0 0.0 10.485956951372012 0.0 0.0 0.0 10.44465570226088
10.625180359001291 0.0 0.0 0.0 10.862706265926764 0.0 0.0 0.0 10.927286112148774
11.381842382390687 0.0 0.0 0.0 11.189955901665963 0.0 0.0 0.0 11.527552728570052
11.14763119585945 0.0 0.0 0.0 10.93179076064522 0.0 0.0 0.0 11.369602828231402
10.827972707140951 0.0 0.0 0.0 11.268043173904575 0.0 0.0 0.0 11.450158846865977
10.95871069905957 0.0 0.0 0.0 11.447666453030209 0.0 0.0 0.0 10.97852404800347
11.09251686043222 0.0 0.0 0.0 10.695781902402 0.0 0.0 0.0 11.39378961836156
11.043452078850889 0.0 0.0 0.0 10.928335134380948 0.0 0.0 0.0 10.697482812124647
11.124205050022848 0.0 0.0 0.0 11.415303247771845 0.0 0.0 0.0 10.925115152242588
10.544480305550167 0.0 0.0 0.0 11.373381902369466 0.0 0.0 0.0 10.80347383081509
11.511879743685444 0.0 0.0 0.0 11.236964543526492 0.0 0.0 0.0 10.910844502267627
10.937335114905338 0.0 0.0 0.0 10.881073463074264 0.0 0.0 0.0 11.224976091092234
11.286299437422455 0.0 0.0 0.0 10.92298217223239 0.0 0.0 0.0 10.615622379653063
11.297335428102668 0.0 0.0 0.0 10.66610810839286 0.0 0.0 0.0 11.210074809256003
10.733958025950447 0.0 0.0 0.0 10.480990837152872 0.0 0.0 0.0 11.138456500200364
11.456832084586466 0.0 0.0 0.0 11.154577940530906 0.0 0.0 0.0 10.931925865799053
10.633315929402519 0.0 0.0 0.0 11.123809526593998 0.0 0.0 0.0 10.527344302850093
11.525503940091713 0.0 0.0 0.0 10.920541763780239 0.0 0.0 0.0 10.746633434828196
11.378377859207596 0.0 0.0 0.0 11.504325123731165 0.0 0.0 0.0 11.25884799979662
11.469649814927205 0.0 0.0 0.0 11.056742421589826 0.0 0.0 0.0 11.225059532623883
11.035752021292137 0.0 0.0 0.0 11.351451779365242 0.0 0.0 0.0 10.961856625757564
11.369274952869498 0.0 0.0 0.0 11.227829803180848 0.0 0.0 0.0 10.764816080725238
11.07977956502715 0.0 0.0 0.0 11.020236829644695 0.0 0.0 0.0 10.671700203867637
11.038840828657296 0.0 0.0 0.0 11.012215144578574 0.0 0.0 0.0 10.825239258622778
10.535800740978752 0.0 0.0 0.0 11.280270957137052 0.0 0.0 0.0 10.736244350075873
10.569405081240829 0.0 0.0 0.0 10.588112928234626 0.0 0.0 0.0 11.415813609551677
11.203874795449307 0.0 0.0 0.0 11.24633748092406 0.0 0.0 0.0 11.27300270293723
10.464753938162415 0.0 0.0 0.0 11.194764708134686 0.0 0.0 0.0 11.042335102271414
11.202081943067405 0.0 0.0 0.0 10.456572187674325 0.0 0.0 0.0 11.281504704043753
11.40930773785865 0.0 0.0 0.0 10.63765061831632 0.0 0.0 0.0 10.936106699430963
11.202813265969349 0.0 0.0 0.0 10.601367830159251 0.0 0.0 0.0 11.519931301089144
10.843362767891499 0.0 0.0 0.0 11.259791271629606 0.0 0.0 0.0 11.141132352860566
10.533961850179725 0.0 0.0 0.0 10.497208857284448 0.0 0.0 0.0 11.216183355444766
11.189068417159575 0.0 0.0 0.0 11.029870351720229 0.0 0.0 0.0 10.524046135785696
11.489262709800412 0.0 0.0 0.0 10.57526888271037 0.0 0.0 0.0 11.389122296021792
10.501144925603679 0.0 0.0 0.0 11.132022209299171 0.0 0.0 0.0 10.564477330649995
11.302382720315943 0.0 0.0 0.0 11.054159791012363 0.0 0.0 0.0 10.535063957433694
11.228551916206458 0.0 0.0 0.0 11.279686741632862 0.0 0.0 0.0 11.366124134283819
10.564803356236986 0.0 0.0 0.0 11.206625724931738 0.0 0.0 0.0 10.564835050647055
11.037691455760752 0.0 0.0 0.0 10.915173080601807 0.0 0.0 0.0 10.580896594864093
11.383418272117163 0.0 0.0 0.0 11.323143072366303 0.0 0.0 0.0 10.984577446116994
10.858542216113118 0.0 0.0 0.0 11.346210205580974 0.0 0.0 0.0 11.31063762128099
10.628126288520194 0.0 0.0 0.0 10.491342303186938 0.0 0.0 0.0 10.713502026995876
10.523568280630453 0.0 0.0 0.0 11.496114366853197 0.0 0.0 0.0 10.83934899402733
11.505106275418518 0.0 0.0 0.0 10.852571162795606 0.0 0.0 0.0 11.472190166364545
11.156842054348052 0.0 0.0 0.0 11.464558915049027 0.0 0.0 0.0 11.268533200154131
10.785995725088307 0.0 0.0 0.0 11.308383070045785 0.0 0.0 0.0 11.3166019987883
10.916363822138287 0.0 0.0 0.0 11.370833880781547 0.0 0.0 0.0 10.515809684412567
11.151464555556764 0.0 0.0 0.0 10.527194418272142 0.0 0.0 0.0 11.10622306385487
11.228552445383666 0.0 0.0 0.0 10.468031359705385 0.0 0.0 0.0 11.113044326378004
11.524401134789505 0.0 0.0 0.0 10.800749414332667 0.0 0.0 0.0 11.26098789805162
11.252525231276499 0.0 0.0 0.0 11.026439494329692 0.0 0.0 0.0 11.011811211529032
10.911427127961556 0.0 0.0 0.0 10.460501490471417 0.0 0.0 0.0 11.263560704235132
10.79568495977326 0.0 0.0 0.0 11.342302876341458 0.0 0.0 0.0 10.484089104779324
11.099341658888358 0.0 0.0 0.0 11.491081823397163 0.0 0.0 0.0 11.309196911632961
10.834754642243212 0.0 0.0 0.0 11.465164006347491 0.0 0.0 0.0 10.986376198706765
11.282549158546852 0.0 0.0 0.0 11.007491892610638 0.0 0.0 0.0 11.330048690504334
10.576161086659878 0.0 0.0 0.0 10.738452278534673 0.0 0.0 0.0 11.222977946397824
11.357592836817885 0.0 0.0 0.0 11.146920847287749 0.0 0.0 0.0 11.20577589336814
10.611266173484843 0.0 0.0 0.0 11.300499745251205 0.0 0.0 0.0 10.824573846104236
11.028502822714902 0.0 0.0 0.0 11.298282058764153 0.0 0.0 0.0 10.755337836299077
10.894279140524858 0.0 0.0 0.0 11.260675536578992 0.0 0.0 0.0 10.674203807607116
10.437506603704293 0.0 0.0 0.0 10.72760666224765 0.0 0.0 0.0 10.948579114554672
10.585466138691567 0.0 0.0 0.0 10.99624573766963 0.0 0.0 0.0 11.335425243685588
11.039356247258233 0.0 0.0 0.0 11.095679042831744 0.0 0.0 0.0 10.844379137219159
10.57911124959645 0.0 0.0 0.0 10.859373064820758 0.0 0.0 0.0 10.906608796550206
11.07726703164189 0.0 0.0 0.0 10.682030143952908 0.0 0.0 0.0 11.517488700746371
11.193263204890194 0.0 0.0 0.0 10.72683992714242 0.0 0.0 0.0 10.73883910529806
11.055373383000678 0.0 0.0 0.0 11.375979211107696 0.0 0.0 0.0 11.09122595888175
11.103295141811966 0.0 0.0 0.0 10.796966332144516 0.0 0.0 0.0 10.749055613607597
11.283057168666874 0.0 0.0 0.0 10.537235806760824 0.0 0.0 0.0 11.172347811727914
10.608611291430535 0.0 0.0 0.0 10.977897050485232 0.0 0.0 0.0 11.40170046296659
11.48688511660328 0.0 0.0 0.0 11.010661833439142 0.0 0.0 0.0 11.52960484235193
10.470676489478308 0.0 0.0 0.0 11.326947471434863 0.0 0.0 0.0 11.234439044650324
10.74553959833247 0.0 0.0 0.0 10.605761619237361 0.0 0.0 0.0 11.283558020481378
11.389335002483765 0.0 0.0 0.0 11.330304079165892 0.0 0.0 0.0 11.188153788999891
