0.1326917068878404 0.012923862664371007 -0.0006331410394575805 -0.050338719858646366 2.61267882527156 2.7703492628245834 2.9429895359850344 -0.03960394520050121 2.949734262682041 2.9815206906720246 2.569089411791942 0.17143352694781439 1.488578699313071 1.238060933378832 1.255140857477617 5.622768717313539 0.0050685630771766885 0.14333832266707375 5.584556995447541 2.9083785891083567 2.873941670148492 7.250056825690561 1.4233354043158013 1.274143103104882 8.750038933236901 0.08301360616077998 2.9659108445021065 8.380937170881722 2.773827531319831 0.04572125546057689 0.05060892109790855 5.315286576556203 -0.07554528970439336 2.9073046536743403 5.610576458852086 2.5986615635245816 1.5479210740257763 7.038827006897347 1.2436378411603832 4.1570380516051975 3.9205318228154105 1.438359051186981 5.5299168092503015 5.62683204018702 -0.01085957099322812 7.30859088652649 6.777637436932756 1.3683952489461602 10.013444971842626 4.308873974262966 1.3851958124416406 8.656741651097082 5.648598123914196 2.787983328447957 0.12613818191522705 8.342078568930203 2.8699699409154396 2.9451786239912603 8.276424247471514 -0.11460196290333811 4.324519312968549 9.63838389825711 1.2402786443976916 5.692768012090026 8.138701759883173 2.809712774718961 8.391226571463287 8.212779261499708 -0.04539724295756333 9.986309210945368 9.606122328257408 1.534340026991335 0.02083182859481135 0.010389008665529992 5.630909102106565 2.872931850262775 2.5599105841005647 5.432082207147789 1.465489087481713 1.4397386803959256 7.167535535347081 4.478894669307181 1.2455956552245289 4.293325953800337 5.760334350792647 0.07511136483286639 5.74372727886257 7.00740580854857 1.5309350334084297 7.0779947373853105 9.933360072334528 1.2363824799179914 4.192650803924055 8.618836767926519 2.9072783205027175 5.4452613870848525 1.5357414096898816 3.914622888087308 4.07787824786542 0.14821110433783588 5.334462850100281 5.601776599847979 1.5709488601498456 6.846141465529258 6.932075763899182 7.032938680738341 4.232727601293265 4.30127513686897 4.496590560637843 6.741736164646552 4.092067247688201 4.362047517292854 4.225919903968464 6.806362347491439 5.836448665988199 5.3057928957258556 5.793447741648329 7.161619731095946 7.035788387876153 7.1073138616862686 10.126729131244309 6.847311574285725 4.257140741228806 9.826114223678053 3.9415834761472484 7.177573053417468 1.240128659811491 9.790702977368136 4.142653270376003 2.878371367583685 8.134470133695405 5.497371298965272 7.311105131956236 9.4547707069734 4.234331634921258 4.2919188464992635 9.420187238188854 7.04948850664315 8.546586559436518 8.121737472755427 5.395179129419405 10.031651497718673 9.569780261576645 6.9815374746507315 -0.027642960681128072 2.755501933711227 8.549664105754893 2.860644563399378 0.057858557737773646 8.232858877322506 4.493484391306834 1.4259206348168778 9.690943763896133 5.665246412982465 2.858533329987516 8.423193896893116 8.508841965136702 0.02584085580570993 8.560883181786801 9.926896996081837 1.4862785540178267 9.65827116743501 1.4331301992390555 4.000531998206114 9.71483367516073 2.7724032502111777 5.402937110763644 8.325932899963782 7.014591329640135 4.0033496475697765 9.647639435622345 4.2235831212170485 6.694382252545348 9.763917562145515 8.746742707102003 5.372508558493003 8.41970761395433 10.058359058346934 6.89201156065553 9.846904835134671 -0.11792566713036408 8.344392453271512 8.214540149236935 1.384510005058937 9.751410450545091 9.604423266227471 5.542774266525362 8.267705677823287 8.275609064071705 7.12747133210343 9.607018801013096 9.833266542074963
0.12130960334702513 -0.03479830603390159 0.05021677453334935 0.10284124122477832 2.9229968667089707 2.7416053729951173 2.778574770647465 0.05126908360010011 2.760082748471255 2.540198600297508 2.800780294626684 0.10367046978273181 1.2381024571710364 1.313058634796156 1.3684299210858057 5.38106578635352 0.05951630241018104 -0.04739108808858391 5.277154209354209 2.8586708133288123 2.433837644378373 6.682110747082477 1.4339727772412223 1.3202287578162863 8.046648025956696 -0.039556230219007026 2.5948127648603307 8.121965864406683 2.969793073440762 0.10989419064432841 -0.035492334283493104 5.667539466403252 0.039997884559656166 2.677789700779025 5.584791244339537 2.531599860685686 1.4248366164036612 7.096583065735444 1.1714757452102513 4.052380249249191 4.309784736331861 1.3459968099208437 5.558192837007789 5.33616125726956 -0.14629349366308317 6.628856472287929 6.985095764790916 1.4671148794976894 9.503610488965634 4.147589433066936 1.2806004207661528 8.26616487995939 5.425334873988178 2.647552151813868 -0.04652355277659452 8.455585018651474 2.453105941658428 2.531757594378775 8.40900851242077 0.05629064838651141 3.991564897209499 9.514182026410307 1.2995081838905762 5.316623686042018 8.219045319156768 2.7862676681932617 7.931456236563049 8.116353924940423 -0.15039118967568757 9.564217407196603 9.867129191404679 1.206606418668876 -0.1586001017317326 0.06488713465986079 5.2484094971272155 2.6540597933230243 2.8000209195613843 5.3458945528023865 1.5014061843752338 1.2870134220594562 6.453702219466507 3.9132749053140206 1.3358511534475135 3.7486167030984348 5.313874613105324 -0.024829536630678085 5.2965058801577545 6.7435919606408525 1.269139941294002 6.41046403418311 9.377697315118883 1.3107996629772742 3.7293934725878333 7.949698138168789 2.5868280599823192 5.384201306838282 1.4382496136624061 4.063179373879605 4.019035346530181 0.13538958879368926 5.497591552123004 5.280296489854389 1.2338098473805434 6.729792515834039 6.432475771053676 6.596510925181561 4.027178911770518 3.9230634076394284 3.8672763804015653 6.945234207208859 3.8709087620195572 4.050011990514385 4.2894866633697815 6.486722641445449 5.359874264687016 5.580474974495081 5.164993160206345 6.9050639422560405 6.982898759780034 6.349677975543561 9.539481384112543 7.101368029982221 4.00703181248611 9.427582848896748 4.131113022154556 6.631639345301713 1.5228985267278432 9.496358119091251 3.7792080262038064 2.681579816090106 8.221299784298703 5.213007296382631 6.913913929107569 9.626678822990602 4.100696332780819 4.239186515312943 9.679188369419924 6.481773183490165 8.065173848209994 8.197681417097101 5.083018959908003 9.287197608709082 9.609723577652773 6.624170654933949 0.04167211504487205 2.9413705886153645 7.812774025875192 2.609689305457094 0.16083654016588708 7.954729842978328 4.067521557116497 1.4868270844568663 8.982183459705977 5.393800528731982 2.942036450134047 7.90408380746593 8.09024223871878 0.020890700980398996 7.721895758601977 9.344729846594053 1.5006073758866616 9.035237187376456 1.2879181374562452 4.176782559649997 9.273519844179797 2.692271907143066 5.737997980436862 7.674389750251284 6.934605209633134 4.201373242402569 9.266938969170274 4.145484814933434 6.8644227295624285 9.24248236005683 8.09053517272023 5.452468449207192 7.722874834168365 9.551740672073265 6.890625675992218 9.088435128709188 -0.013112176572639602 8.43519568548125 7.9485342888476405 1.2558046842125652 9.763376474767695 9.083519470830993 5.2255088182291685 8.121279722841745 7.81129020249092 6.853443337854199 9.797023324842046 9.021752083286584
-0.022998317875413555 0.18334773017035194 0.08699680484785242 0.011132237517124333 2.9532887447627556 2.9288058469813305 2.427317711219868 -0.1730137447221782 2.861643916624532 2.4235999261209593 2.906026098124796 0.08894808768306495 1.329059074022298 1.5292302833124773 1.600982163065742 5.240200674743688 -0.16791168917036706 -0.02029524208637454 5.197401270824583 2.722166261799099 2.8265271609245866 6.612888025534463 1.4326079945220938 1.4559146319796947 7.565645161275168 0.2007772895647531 2.894957213946477 7.686956246198095 2.687429626131988 0.20562381998338167 0.14384586753607911 5.707713470792687 0.1865882534502585 2.521481890464594 5.73760252015219 2.9528526626139766 1.4323556370558514 7.0557479256762425 1.4551195475776846 3.9267698135157523 4.393832800859231 1.424906340301293 5.084933256109939 5.65154017705172 0.12129524658822514 6.367168933309997 6.917339886387644 1.5995778307222175 8.954089543315877 4.310259188084841 1.4236720060835637 7.685677564643202 5.827797612720745 2.7845872506352785 -0.1350017414388171 8.337796710526824 3.090692633631285 2.6933246543078484 8.376352496634933 0.0992683465744975 3.746729127631053 9.986286486473906 1.3173714389016444 5.013471745826201 8.49755482499291 2.855334979968474 7.892892609319585 8.411630803348832 -0.020843248467043 9.021370789127428 10.074737250447347 1.2475159357566277 0.014369593130090586 -0.014565988480387952 5.636709160437328 2.707558037759507 2.971413079106058 5.908334488788386 1.464957265205214 1.5008226461920455 7.093804276296767 3.933597191661036 1.5522264894099307 4.465111642349413 5.018430200476718 -0.0903893761408924 5.660821441186741 6.330949829514835 1.6153760416423744 7.163461272313526 8.988334134718265 1.6127299838582605 4.527375303727559 7.55265455915308 2.8852768237769815 5.955350057405004 1.4732037581397432 4.343092055920844 4.323059730190513 -0.018824388737104486 5.844601029949951 5.94332770547766 1.2855363861518294 7.131212311083514 7.0420709957170935 6.462852536797078 4.235307964721894 4.132490775285302 3.848129314056359 7.2241611621121535 4.318810832934617 3.972584836362003 4.318405371566262 7.328561129129905 5.248178971877274 5.62428451480857 5.877270234994039 6.486281657376368 7.246242968352846 7.343232706508303 8.909142461211264 7.193379886564472 4.188631336467886 8.905389831776011 4.173602868614218 7.149960675814053 1.1946697481919348 9.687229162420023 4.334373580612214 2.5398015642692138 8.619741241880334 5.631545863324671 6.329509596945987 9.81691767051101 4.31725867613388 3.8882763248574683 10.002181839180231 7.138909741748396 7.852785722299718 8.312076310860729 5.970091323456087 9.041647025212159 9.829161759124172 7.366769527763564 0.12640469336289695 2.7828471455960844 8.476377915608158 2.693634029779016 -0.11897862616590031 8.557637019738182 3.983565025865994 1.5537226840947231 9.928243213349194 5.204337405534817 2.6579460381408406 8.865512072664824 7.574813445289318 -0.14855090883137514 8.546950367370657 8.926242583243875 1.5746736332377356 9.977536334495873 1.2687804839267278 4.06878899311627 10.290364562628133 2.640796289326164 5.760765556708497 8.489280878944898 6.439496272557412 4.404195295309867 9.997706981682596 4.022564285345743 6.8873579187978935 10.281288140955251 7.6493729338406515 5.472658857267162 8.625104102010228 9.140807671110686 6.98526628036603 10.048583936299414 -0.15654504429966198 8.582805189467688 8.863593522387996 1.4388905339536493 10.050409568345996 10.29678647940506 4.960176805444968 8.306578296941382 8.790497495963072 6.420553624254537 9.978562658584522 10.218907275900314
-0.14840715509391486 -0.11696549364188162 -0.013446970122512987 -0.12696254438050397 2.674754462439711 2.6144018152242747 2.815663278374326 -0.14549952335758787 2.7128369431530674 3.0380982084140067 2.594968738975912 -0.09636517629845803 1.522814255841307 1.516122734889358 1.2170356663086903 5.701455812569555 -0.09015311698612336 -0.008963177134120953 5.849519077935747 2.800111085880174 2.741835003559067 7.270853899989378 1.3846973395231117 1.4054519663597445 8.724493414446348 0.007501645791296999 2.54923801845271 8.769233247581013 2.9831287580902384 -0.07990696663703477 -0.1897609970633054 5.566892423437833 0.1852650797575898 2.967036482369854 5.70505893923599 2.7479170020128394 1.36472858889118 6.871066660561739 1.2538836710763732 4.176132925252933 3.9788350116570257 1.2554510146431122 5.7531087109999905 5.491364539775941 0.08086588991626315 7.045467249786738 7.1559980375617975 1.3793439023194194 10.159299455257138 4.17288471042088 1.185528974427376 8.74265674400773 5.7551279609397 2.7179589161169457 -0.16981318843402343 8.248729691615845 2.6270243317687845 2.922222801120581 8.460764161813227 0.017964931641544196 4.107953480099795 9.704417113489834 1.3605964011051717 5.708465872403914 8.155840887757256 2.6357902131937307 8.783539942022834 8.152085656018945 0.1778505086088894 9.877837837432955 9.760758816092498 1.4889830016658632 0.16956298661289146 0.0384770721317054 5.2769283525378246 3.034347385518358 2.878373554203865 5.209334181248216 1.523039106817126 1.4984565023382401 6.5638915701155796 4.3904137007871755 1.1941603861510974 3.8784092912658354 5.731979332536993 -0.12746845907609688 5.284190818614648 7.074908398880382 1.4863024253266868 6.544662402840387 9.823828412599081 1.2951427229285069 3.952606806654131 8.784407381816804 2.732910403798248 5.1621066586408855 1.4938713059685962 4.094503203345285 3.8104932744618183 0.1577627192250534 5.76835118229706 5.333011035634031 1.58058993452015 6.924644018814628 6.462736186263643 7.2495426567665255 4.352739038020157 3.8658176366199672 4.409714511755644 7.06793030315533 3.7423612243673086 4.504386692471464 4.25426863935006 6.704394772525189 5.649671751069891 5.679142659851509 5.408154247773565 7.162507693753893 6.988029949782289 6.344515274673439 10.199407799174198 7.011524672334051 3.7348254100453726 10.123308970387432 4.171864063344368 6.703570318947185 1.3184368431390963 9.56495990900205 3.764528885277471 2.8270226614958522 8.54224398307033 5.245976072621398 7.3603445883653675 9.552353925617528 3.9598670683096224 4.193082720871295 9.761877559918265 6.555943529004643 8.44579614097194 8.225307714968025 5.257326638057598 10.007148090531569 9.553869465282974 6.422372129472123 0.10327934380489442 2.6640497924536577 7.670055865553485 2.681050289762645 -0.13636991241293417 7.861579297471373 4.429757110502184 1.4049273140828336 9.052967623798034 5.7518400665236795 2.6450752358422593 7.957812208489937 8.761592723245828 0.1376914630012041 7.8834835300324135 9.959543611876542 1.2980878298274703 8.974069179920187 1.4993537018201848 4.052978518722698 9.021725462476507 2.6935416432379267 5.763914784367296 7.696948703587846 7.320526125853407 4.041336969670732 9.314300670443748 4.446905304040385 6.951230442283901 9.167466369969901 8.718868833418872 5.545750920657513 7.831708286218076 10.09861283820997 6.986267514927708 9.147319061210114 -0.09860156173932516 8.220593559950485 7.895382996380172 1.462804396142928 9.54284956304651 9.010367181565647 5.689496826845844 8.295422642050273 7.925971546776891 7.020425023460223 9.903912835153307 9.30910264494393
0.009888458103246702 -0.0917572637373335 0.084426184275224 -0.11492295181171641 2.6770589492110317 2.6422809968935304 2.7643378038239197 -0.16300755430628103 2.521617836014276 2.7130692812656982 2.5990474594651536 0.15750815507244234 1.509292522085335 1.2796808904720618 1.3947781842448272 5.491631209836702 0.08146999839818726 0.1868444589307025 5.294061451389717 2.775518571713442 2.636905816306939 6.610417352642945 1.2844687565773691 1.2091225195610273 7.962952479725604 -0.16791745978432285 2.5178367947340266 8.3373714545489 2.686137806832657 -0.14840205651940291 0.09738415053018927 5.431919088177426 -0.025396175538553264 2.8604416305776557 5.391891263557837 2.734063322287765 1.3735378852027786 7.004061887220918 1.3378936712663154 4.040800995477371 4.217457346059274 1.324688357354112 5.334235287401684 5.402866090005871 0.08908002499797515 6.676134465223099 6.970362675787407 1.4588902611460755 9.550441729890432 3.9624277461623163 1.1763298863249712 8.13334014717054 5.606055107784915 2.779733288621801 -0.19236129236064609 8.318058723813701 2.7730657982489344 2.7021674605138544 8.1418513037815 -0.10138638817351986 4.245036065022709 9.711722209145071 1.2447068034483801 5.482347500410842 8.047582426167805 2.8075833272621185 8.276700452103857 8.145909112924913 -0.18340774302352453 9.636255022393252 9.556857514057034 1.448978920660441 -0.016492749515233288 0.16730399400888177 5.470281947068997 2.553756686896399 2.571766211472758 5.357651592045075 1.292140892500781 1.3701491133348895 6.898083767648271 4.171092191155555 1.3765681664132614 3.9392282793329803 5.521710646303932 0.11986118785842871 5.5498047636897185 6.693020573787949 1.4893488913785886 6.965329641299374 9.48858956065928 1.531970052668781 3.9826819234871813 8.128511964486739 2.537562497989462 5.349906450425474 1.2454924319103573 4.278891094583908 3.9346300101103138 0.15437217904807385 5.39757917003706 5.2336955473765086 1.2479615499337133 6.617523966830204 6.6290632253771316 6.700853976025331 4.238082000051368 4.0050794172956925 3.9161083560233725 6.753038883516317 3.9541672061203643 4.027411532868809 3.9711949675285667 6.764628265377048 5.597899172919592 5.573128449166302 5.562944699366529 6.852708003373505 6.801984299443561 6.780886742882122 9.678826060369643 6.914942635281706 3.9019212789430124 9.580669357024554 4.123420561181225 6.629231029514641 1.311619248098978 9.46026552981236 4.11817940597719 2.5366243203115673 8.338230088707068 5.541933224148357 6.851704447460216 9.607778442330414 4.195359502496316 4.121254362315192 9.657344951493895 6.778275972015414 8.282775179809159 8.124422555862886 5.506586481182934 9.462820729178985 9.461302864480603 6.740105978918253 0.13506380686189956 2.5738114606033142 8.086837697972493 2.667507189020061 -0.18596948021368795 8.185758237034428 3.9878555211813094 1.359469578583383 9.4423137560106 5.591834251949601 2.788967964371114 8.317355907783224 7.977411966120104 0.1453685063971507 8.253208962489763 9.666459767144987 1.1649115775135197 9.435869641275326 1.16507284382749 4.249303084519383 9.459198774938192 2.682719614758841 5.564566079604285 8.22254548045302 6.6702297209298225 4.249616900049271 9.498223043644494 4.094606193568856 6.804999325732452 9.613167788201341 8.218629324152957 5.278589691983877 8.248765421757529 9.4452557766033 6.839845925197117 9.669169695002042 -0.17649944281695878 7.9964087020509025 8.27561735267084 1.5409682771334212 9.613634152947148 9.441306931185542 5.543409682630991 8.21327157776247 8.18628889037837 6.858452570990067 9.580903629034715 9.53603018753522
0.1396850219851527 0.03541484214641239 0.1291783570645541 0.024875645378419218 2.7029534122898764 2.86005867766089 2.6800958632377605 0.1324135931985501 3.0900027493483027 2.815565206515716 2.524038347710419 0.14486768181145696 1.2707309782299019 1.197819255703826 1.3696446211269535 5.535758254349021 0.1637081086042665 0.08816130643923185 5.845306634823058 2.5631034874920684 2.7397435663295893 7.0614648781546805 1.438808450475609 1.3604179161331542 8.440035565133993 -0.10606167502112299 2.703110462587643 8.47009723570224 2.4135007392029424 -0.12433111180276607 0.1741384919516641 5.236771506399802 0.03163553890943858 2.7974472110926336 4.980287056177643 3.030863216148534 1.295880339841572 6.452733436859216 1.3883852088018969 4.173724963724552 3.637227685099084 1.3659157983428332 5.651121794149304 4.9735361369493525 -0.06434350699505613 7.22663579810386 6.403724769653247 1.592186014850344 10.068398116074919 3.894020626977571 1.2823717706579452 8.521444830557094 4.936578836521302 2.713245815732807 0.17697437161419594 7.683389666250396 2.7347392707700346 2.8235893549437576 7.610687718050623 -0.018460140714645624 4.043229627734439 9.070729368784303 1.5884796278230473 5.729503354189029 7.71458658611393 3.1011903394885043 8.513500329065778 7.615829993514645 -0.12905496040202302 9.767866666268379 9.084239059755772 1.5076278909570187 -0.0762389452630497 -0.06082558032507991 5.790627330079866 2.6810763058109615 2.4399053814089053 5.983377404104736 1.4879248093143331 1.4207768327162986 7.452228454755292 4.041688291240642 1.4016918561741092 4.214508682478907 5.773745544857777 -0.005877046500001727 5.947803268084875 6.864518195815913 1.4530820789669283 7.135652073456192 9.991131613149339 1.2148266811641286 4.288627448722104 8.577838227121628 2.513794181144659 5.668275052028961 1.3009003404309034 3.668402169205793 4.34667099520103 -0.10107644985486842 4.91727511135008 5.979262686303246 1.4210168953143132 6.393865376317016 7.437861717873154 7.155241854526917 3.703327911853446 4.372035740078208 4.321730286127821 6.514064943500674 4.44112104427798 4.16191590312033 3.7758088678485042 7.119546565420206 5.513221536619486 5.204318184154134 5.7576972480016915 6.872492985578942 6.2555949287996055 7.204516385451249 9.904069658794473 6.255238200266106 4.159397489416856 9.73581718764554 3.9060742373311723 7.098093494745263 1.5516098268466096 8.92693748151255 4.267674695424331 2.9185251381559443 7.506812407531983 5.796701811239918 6.992105857721658 8.88717571148152 4.283284373234509 4.1982786559925485 9.052247914100676 7.390155446350807 8.596876088574486 7.6672112420047345 5.690008569664203 9.904804429830454 8.745585893742025 7.210413624132392 0.16420618240575546 2.6623031862886237 8.550408270828816 2.7138886001658102 0.16891096061171215 8.942961099036127 4.207812730854835 1.1471065927670865 10.394026203464593 5.577301423471862 2.605624855612428 8.74311459512788 8.530820733333773 -0.11168631925685665 8.531692362486378 9.934373635536419 1.4196191476641888 10.047660746042656 1.3170944697063423 3.8308258307318948 10.29650469927846 2.8909358879896834 5.067143723357568 8.915578257832644 7.253608064957466 3.907881437543332 10.344619301575001 4.345406740304006 6.365063473494426 10.400337381859135 8.29839077979028 5.156005025409703 8.855334885397143 10.095138172845399 6.428493845186753 10.31926240921271 0.03991096781390751 7.721869232778944 8.775066478208535 1.539150129294497 8.818461719057183 10.18815794242483 5.7586844213019415 7.579891276446396 8.52568743217248 6.9160329370591045 8.816109329954203 10.086414028804453
0.048710106143004306 0.18943494448975934 0.06627266676192888 -0.11755896878956683 2.699801343206489 2.5374976869071504 2.8291869409799526 0.13188332522917928 2.5778105659667374 2.83091214122702 2.921086733513175 -0.06484918314999917 1.2879343743241447 1.506484421510081 1.4656642606353736 5.566275155381538 -0.07988307101729708 -0.18851432193639178 5.354237987795836 2.895330300612537 2.7777149671768457 6.714547883311316 1.5386564773666598 1.4963741512601332 8.142997110045673 -0.19199677291557693 2.793049466490141 8.199163927314213 2.606390757119301 0.021100271055094575 0.1682164181967172 5.338804021459968 0.15148717018912414 2.885441068190529 5.679159174110187 2.7672720349958486 1.3100337363615253 7.033173912285953 1.2167502470254026 4.103922041408697 4.044664010116425 1.499905230561465 5.576439579899332 5.450758576122131 -0.09028511120012496 6.795125013108343 7.043647789762861 1.508468236015837 9.376241199791913 3.9475897220311413 1.4337331360112484 7.96258382450326 5.5210077134086895 2.525633481492503 0.09637470335985529 8.246111256779402 2.5451489113212724 2.885767098986739 8.349927198616836 -0.09825241970820044 3.865323863228657 9.707846570023152 1.240298512024926 5.472260030834936 8.225421010895134 2.5375341581487603 7.989909625982268 8.419798361217618 0.05650500514528705 9.378524520554528 9.454426700290636 1.359424639014583 -0.1267320386490517 0.1486534652349411 5.249448374326328 2.874407965008934 2.7968888935614484 5.29178595988984 1.2805351330338735 1.1860602498051573 6.811689587934121 4.221935242934679 1.434888058662232 4.092991720817094 5.5911606992400955 0.018830212562156997 5.363593413863371 6.93095386356624 1.3231368588017727 6.916637243450606 9.28802831822872 1.22241213098807 4.104760879965727 8.227141790385641 2.696885854255968 5.343767425886347 1.182610954500163 4.039334788084806 3.9758825640073834 0.09671620680402164 5.310815106497142 5.257521780991814 1.4526042405715742 6.777014278676129 6.870490070922559 6.631553704865772 3.9715955353344987 3.9943513797208596 4.164181374061535 6.990379883607747 4.060197443474865 3.935584052406613 4.04092405006769 6.78514073442032 5.266212988386391 5.331161638558963 5.512687849565051 6.730406242276827 6.909900010455013 6.657903624334427 9.409769322722902 6.72879266613287 4.239015941088696 9.29185558821949 4.213951356589508 6.851842214568451 1.4334612594828833 9.436995657179336 4.213820944271024 2.70296992047 8.081530910852287 5.335667494681508 6.572864845980444 9.651263096448947 4.135490663995001 3.996691065129598 9.49898240045752 6.829957259224172 8.013008079001935 8.354129127725963 5.399676734085337 9.358878678407274 9.799747467745513 6.835842391393059 0.052097510856175526 2.7770993768260346 8.159150554511484 2.7372440460702823 -0.07425986867451888 8.143055685070077 3.9695365679672436 1.3781255444473954 9.677787635801673 5.429603045610052 2.8428736032859603 8.293019904624698 8.184576535859353 -0.13240607969225593 8.10281353811543 9.444082129943073 1.4148841352337167 9.696437702534059 1.2791050182871055 4.085918510323033 9.473566365811909 2.585916023117275 5.480397538470525 8.070438127457148 6.940189929206688 4.128915893802944 9.339537868462576 4.171766287127275 7.041073804256507 9.44029464676133 8.221466644153299 5.4415059326445885 8.076214951090344 9.471125003002317 6.685789756707262 9.709545245730865 -0.11907307791095167 8.309808832845835 8.172900212598455 1.328201940629004 9.514231800207058 9.607053320482787 5.582843045774736 8.356249985685043 8.051001166057297 6.726949210647856 9.544290734428536 9.559186473653373
-0.1419007555297988 -0.03417776038817602 0.1637829211847122 0.16622459957145935 2.650924946427243 2.592512839607447 2.8059566077173494 -0.05184780134489911 2.7478405314538414 2.6659846404244503 2.5692537876442176 -0.18146787840977535 1.5835397321154754 1.3873426124224888 1.3575204023896192 5.761141300935253 0.15581074945956205 -0.05664280791360988 5.784770964796472 2.6818486655067657 2.689655610874918 7.1083052234758215 1.5359533938948144 1.2269112619932694 8.45616447360209 0.005096774151283375 2.6773978805151337 8.345001557500192 2.5353571415439893 0.10085806948941016 0.09148606335080532 5.550606205151668 -0.0008697331847529936 2.813609800781073 5.387596635110127 2.6630277770773416 1.5260742346326466 6.670813367871469 1.2021628780065445 4.438722320165639 4.038285917333843 1.17025698002709 5.59604689554187 5.339776226217053 0.14784316735543962 6.971920045016086 6.801191879811176 1.4111661877721278 10.180955529871941 4.052353105783805 1.2336511204724765 8.462476349920461 5.377229828613764 2.821438546849107 -0.1511855588688769 8.09135270918746 2.4808783399449497 2.932720793097727 8.1776456163454 -0.14716046122756624 4.084332437699704 9.526618996976145 1.192230938102558 5.78891653998976 8.053658151686792 2.5479246713231443 8.387870912709612 8.027504196260328 -0.07419351872361224 9.81159200880307 9.369246628961902 1.5001336965839718 0.014528445363248557 0.02999432082140898 5.340635632754494 2.745406884903893 2.854008792472324 5.349292805418031 1.2482036613461207 1.3347294917712171 6.752229802687456 4.108413031826895 1.1908620836310404 3.8834780000688376 5.843646623340067 -0.019143309306621302 5.424183946537856 7.112630941294448 1.3082370517939588 6.499736391468453 10.126926511133618 1.2325335477522268 4.093024032520948 8.71674364966668 2.617798209254415 5.348351933107348 1.2774544635610388 3.9175570836049176 3.907459917343933 -0.13402496584623078 5.5779190398876315 5.095256134128456 1.625352327083264 6.659526342359047 6.629596276232027 7.2981365388033606 4.047306817463827 3.8926893694714724 4.090491709118904 6.798249932732408 3.8441185575403654 4.435748245739676 3.9010539537944924 6.73978963489182 5.509837748967686 5.50641274427575 5.349393777080641 7.077227752091871 6.603846207456002 6.695175076286609 10.029656377882628 6.9460586779301385 4.055239977410241 10.120164851954529 4.199539957332281 6.700468056736827 1.294729797109378 9.582614668324847 3.791116466506994 2.6506897283495725 7.939813749499447 5.2210656783350675 7.2960207235095815 9.390752445692542 3.962963351837411 4.254226439282825 9.477589222942266 6.677352430430714 8.34689248136361 8.207743203639932 5.1700508932066995 10.164414535688037 9.465434759055606 6.727063763187209 0.1369141322831807 2.827621913778703 8.01104352044441 2.7600810507347715 -0.029389638251006836 7.8908333138916165 4.425812863619918 1.3353364691521332 9.10549143514613 5.817107139747275 2.8246157120055466 7.788296590511317 8.587481563041965 -0.15777625466468323 7.8215472474518934 9.895041645734336 1.158675071363638 9.21484833537362 1.4219162276243058 3.8699019010688414 9.380592172142427 2.8902759778333693 5.569984732535961 7.958720693323141 7.321050221784255 4.174414077016026 9.07873394455452 4.115017496485784 6.917379283533172 9.2594823998682 8.644894279882976 5.281652118116746 7.756570835157201 10.076717204495615 6.597253216849682 9.026343420523093 0.12674008986998175 8.229252462586341 7.803288587598366 1.2212970080711105 9.612485069378508 9.100169769564488 5.645003235639305 7.95116732451677 7.977072293002481 7.210900464524225 9.321281647006453 9.225734916451373