An instance of this daemon is already running
An instance of this daemon is already running

     Program PWSCF v.7.1 starts on 10May2023 at 11:38:13 

     This program is part of the open-source Quantum ESPRESSO suite
     for quantum simulation of materials; please cite
         "P. Giannozzi et al., J. Phys.:Condens. Matter 21 395502 (2009);
         "P. Giannozzi et al., J. Phys.:Condens. Matter 29 465901 (2017);
         "P. Giannozzi et al., J. Chem. Phys. 152 154105 (2020);
          URL http://www.quantum-espresso.org", 
     in publications or presentations arising from this work. More details at
     http://www.quantum-espresso.org/quote

     Parallel version (MPI & OpenMP), running on       4 processor cores
     Number of MPI processes:                 4
     Threads/MPI process:                     1

     MPI processes distributed on     1 nodes
     706980 MiB available memory on the printing compute node when the environment starts
 
     Reading input from pw-si-49.in
Warning: card &CELL ignored
Warning: card / ignored

     Current dimensions of program PWSCF are:
     Max number of different atomic species (ntypx) = 10
     Max number of k-points (npk) =  40000
     Max angular momentum in pseudopotentials (lmaxx) =  4

     IMPORTANT: XC functional enforced from input :
     Exchange-correlation= PBE
                           (   1   4   3   4   0   0   0)
     Any further DFT definition will be discarded
     Please, verify this is what you really want


     gamma-point specific algorithms are used
 
     K-points division:     npool     =       2
     R & G space division:  proc/nbgrp/npool/nimage =       2
     Subspace diagonalization in iterative solution of the eigenvalue problem:
     a serial algorithm will be used

     Message from routine divide_et_impera:
     suboptimal parallelization: some nodes have no k-points
 
     Parallelization info
     --------------------
     sticks:   dense  smooth     PW     G-vecs:    dense   smooth      PW
     Min        1904    1904    501                95684    95684   13055
     Max        1905    1905    504                95687    95687   13060
     Sum        3809    3809   1005               191371   191371   26115
 
     Using Slab Decomposition
 


     bravais-lattice index     =            0
     lattice parameter (alat)  =      19.9733  a.u.
     unit-cell volume          =    8621.2931 (a.u.)^3
     number of atoms/cell      =           64
     number of atomic types    =            1
     number of electrons       =       256.00
     number of Kohn-Sham states=          154
     kinetic-energy cutoff     =      30.0000  Ry
     charge density cutoff     =     120.0000  Ry
     scf convergence threshold =      1.0E-06
     mixing beta               =       0.5000
     number of iterations used =            8  plain     mixing
     Exchange-correlation= PBE
                           (   1   4   3   4   0   0   0)

     GPU acceleration is ACTIVE.
     GPU-aware MPI enabled

     Message from routine print_cuda_info:
     High GPU oversubscription detected. Are you sure this is what you want?

     celldm(1)=  19.973281  celldm(2)=   0.000000  celldm(3)=   0.000000
     celldm(4)=   0.000000  celldm(5)=   0.000000  celldm(6)=   0.000000

     crystal axes: (cart. coord. in units of alat)
               a(1) = (   1.000000   0.000000   0.000000 )  
               a(2) = (   0.000000   1.001770   0.000000 )  
               a(3) = (   0.000000   0.000000   1.080081 )  

     reciprocal axes: (cart. coord. in units 2 pi/alat)
               b(1) = (  1.000000  0.000000  0.000000 )  
               b(2) = (  0.000000  0.998233  0.000000 )  
               b(3) = (  0.000000  0.000000  0.925857 )  


     PseudoPot. # 1 for Si read from file:
     /home/ppiaggi/pseudos/Si_ONCV_PBE_sr.upf
     MD5 check sum: 8553c464762ac42b85b1eed164b4d029
     Pseudo is Norm-conserving, Zval =  4.0
     Generated using ONCVPSP code by D. R. Hamann
     Using radial grid of 1510 points,  4 beta functions with: 
                l(1) =   0
                l(2) =   0
                l(3) =   1
                l(4) =   1

     atomic species   valence    mass     pseudopotential
        Si             4.00    28.08500     Si( 1.00)

     No symmetry found



   Cartesian axes

     site n.     atom                  positions (alat units)
         1           Si  tau(   1) = (  -0.0006497  -0.0036512   0.0014270  )
         2           Si  tau(   2) = (  -0.0102249   0.2593432   0.2688062  )
         3           Si  tau(   3) = (   0.2443172   0.0172123   0.2588029  )
         4           Si  tau(   4) = (   0.2539763   0.2379443  -0.0025041  )
         5           Si  tau(   5) = (   0.1403327   0.1383992   0.1410681  )
         6           Si  tau(   6) = (   0.5253673  -0.0089118   0.0099960  )
         7           Si  tau(   7) = (   0.5287431   0.2333719   0.2665455  )
         8           Si  tau(   8) = (   0.6558007   0.1198800   0.1267294  )
         9           Si  tau(   9) = (   0.7761670  -0.0014020   0.2691463  )
        10           Si  tau(  10) = (   0.7807066   0.2323975   0.0073427  )
        11           Si  tau(  11) = (   0.0078002   0.5028652  -0.0031259  )
        12           Si  tau(  12) = (   0.2616648   0.4839392   0.2733523  )
        13           Si  tau(  13) = (   0.1481085   0.6006886   0.1380134  )
        14           Si  tau(  14) = (   0.4035210   0.3760384   0.1274278  )
        15           Si  tau(  15) = (   0.5031909   0.4958452  -0.0033851  )
        16           Si  tau(  16) = (   0.6411997   0.6230994   0.1410666  )
        17           Si  tau(  17) = (   0.9238390   0.3512447   0.1263726  )
        18           Si  tau(  18) = (   0.7631696   0.4956749   0.2944981  )
        19           Si  tau(  19) = (  -0.0123634   0.7226662   0.2921980  )
        20           Si  tau(  20) = (   0.2751382   0.7361554   0.0143180  )
        21           Si  tau(  21) = (   0.3765511   0.8506165   0.1375516  )
        22           Si  tau(  22) = (   0.5047699   0.7415477   0.2933548  )
        23           Si  tau(  23) = (   0.7906101   0.7165220  -0.0026945  )
        24           Si  tau(  24) = (   0.9060087   0.8471430   0.1180409  )
        25           Si  tau(  25) = (   0.0118820  -0.0126199   0.5472495  )
        26           Si  tau(  26) = (   0.2599482   0.2446241   0.5692236  )
        27           Si  tau(  27) = (   0.1490141   0.1205831   0.6919555  )
        28           Si  tau(  28) = (   0.3748710   0.1063600   0.4112722  )
        29           Si  tau(  29) = (   0.5264425   0.0089223   0.5333932  )
        30           Si  tau(  30) = (   0.6471518   0.1323090   0.7047903  )
        31           Si  tau(  31) = (   0.9172502   0.1264393   0.3976204  )
        32           Si  tau(  32) = (   0.7868400   0.2287541   0.5626152  )
        33           Si  tau(  33) = (   0.1143739   0.3601447   0.3949076  )
        34           Si  tau(  34) = (   0.0164934   0.5032738   0.5703749  )
        35           Si  tau(  35) = (   0.1270421   0.6192389   0.6856213  )
        36           Si  tau(  36) = (   0.6626874   0.3631148   0.4334931  )
        37           Si  tau(  37) = (   0.3724527   0.6081005   0.4289439  )
        38           Si  tau(  38) = (   0.3989826   0.3820929   0.6908493  )
        39           Si  tau(  39) = (   0.5260067   0.4776792   0.5432079  )
        40           Si  tau(  40) = (   0.6386590   0.5972136   0.7100402  )
        41           Si  tau(  41) = (   0.8979502   0.6079074   0.4250427  )
        42           Si  tau(  42) = (   0.8949422   0.3809401   0.7098737  )
        43           Si  tau(  43) = (   0.1250828   0.8676680   0.4015665  )
        44           Si  tau(  44) = (   0.2700040   0.7159524   0.5631440  )
        45           Si  tau(  45) = (   0.6600654   0.8649497   0.3968011  )
        46           Si  tau(  46) = (   0.3796511   0.8504477   0.6769401  )
        47           Si  tau(  47) = (   0.7640412   0.7369164   0.5507985  )
        48           Si  tau(  48) = (   0.9063769   0.8618814   0.7059353  )
        49           Si  tau(  49) = (  -0.0105830   0.2522873   0.8320779  )
        50           Si  tau(  50) = (   0.2649639   0.0076368   0.8466463  )
        51           Si  tau(  51) = (   0.4039123   0.1132323   0.9479761  )
        52           Si  tau(  52) = (   0.5252856   0.2293462   0.8244370  )
        53           Si  tau(  53) = (   0.7883528   0.0155043   0.8098942  )
        54           Si  tau(  54) = (   0.9181766   0.1331330   0.9618809  )
        55           Si  tau(  55) = (   0.1381732   0.3779673   0.9696977  )
        56           Si  tau(  56) = (   0.2617928   0.5015357   0.8273753  )
        57           Si  tau(  57) = (   0.6512583   0.3731707   0.9731306  )
        58           Si  tau(  58) = (   0.3963314   0.6218216   0.9773650  )
        59           Si  tau(  59) = (   0.7852399   0.4960397   0.8427530  )
        60           Si  tau(  60) = (   0.9305520   0.6049382   0.9784975  )
        61           Si  tau(  61) = (  -0.0022681   0.7189393   0.8347849  )
        62           Si  tau(  62) = (   0.1213747   0.8654227   0.9788683  )
        63           Si  tau(  63) = (   0.5353645   0.7223773   0.8474420  )
        64           Si  tau(  64) = (   0.6383312   0.8381210   0.9500362  )

     number of k points=     1  Fermi-Dirac smearing, width (Ry)=  0.0100
                       cart. coord. in units 2pi/alat
        k(    1) = (   0.0000000   0.0000000   0.0000000), wk =   2.0000000

     Dense  grid:    95686 G-vectors     FFT dimensions: (  72,  72,  75)

     Estimated max dynamical RAM per process >     153.42 MB

     Estimated total dynamical RAM >     590.33 MB

     Initial potential from superposition of free atoms

     starting charge     255.9608, renormalised to     256.0000
     Starting wfcs are  256 randomized atomic wfcs

     total cpu time spent up to now is        5.2 secs

     Self-consistent Calculation

     iteration #  1     ecut=    30.00 Ry     beta= 0.50
     Davidson diagonalization with overlap
     ethr =  1.00E-02,  avg # of iterations =  3.0

     Threshold (ethr) on eigenvalues was too large:
     Diagonalizing with lowered threshold

     Davidson diagonalization with overlap
     ethr =  7.82E-04,  avg # of iterations =  4.0

     total cpu time spent up to now is        5.4 secs

     total energy              =    -501.63227010 Ry
     estimated scf accuracy    <       2.32072389 Ry

     iteration #  2     ecut=    30.00 Ry     beta= 0.50
     Davidson diagonalization with overlap
     ethr =  9.07E-04,  avg # of iterations =  4.0

     total cpu time spent up to now is        5.5 secs

     total energy              =    -501.29100400 Ry
     estimated scf accuracy    <       2.68758641 Ry

     iteration #  3     ecut=    30.00 Ry     beta= 0.50
     Davidson diagonalization with overlap
     ethr =  9.07E-04,  avg # of iterations =  5.0

     total cpu time spent up to now is        5.7 secs

     total energy              =    -501.61324435 Ry
     estimated scf accuracy    <       2.34223058 Ry

     iteration #  4     ecut=    30.00 Ry     beta= 0.50
     Davidson diagonalization with overlap
     ethr =  9.07E-04,  avg # of iterations =  2.0

     total cpu time spent up to now is        5.8 secs

     total energy              =    -501.81611915 Ry
     estimated scf accuracy    <       0.48728542 Ry

     iteration #  5     ecut=    30.00 Ry     beta= 0.50
     Davidson diagonalization with overlap
     ethr =  1.90E-04,  avg # of iterations =  9.0

     total cpu time spent up to now is        5.9 secs

     total energy              =    -501.88737743 Ry
     estimated scf accuracy    <       0.10445583 Ry

     iteration #  6     ecut=    30.00 Ry     beta= 0.50
     Davidson diagonalization with overlap
     ethr =  4.08E-05,  avg # of iterations = 10.0

     total cpu time spent up to now is        6.0 secs

     total energy              =    -501.89975696 Ry
     estimated scf accuracy    <       0.02823720 Ry

     iteration #  7     ecut=    30.00 Ry     beta= 0.50
     Davidson diagonalization with overlap
     ethr =  1.10E-05,  avg # of iterations =  5.0

     total cpu time spent up to now is        6.2 secs

     total energy              =    -501.90193334 Ry
     estimated scf accuracy    <       0.01149319 Ry

     iteration #  8     ecut=    30.00 Ry     beta= 0.50
     Davidson diagonalization with overlap
     ethr =  4.49E-06,  avg # of iterations =  5.0

     total cpu time spent up to now is        6.3 secs

     total energy              =    -501.90343134 Ry
     estimated scf accuracy    <       0.00311866 Ry

     iteration #  9     ecut=    30.00 Ry     beta= 0.50
     Davidson diagonalization with overlap
     ethr =  1.22E-06,  avg # of iterations =  5.0

     total cpu time spent up to now is        6.4 secs

     total energy              =    -501.90381568 Ry
     estimated scf accuracy    <       0.00052308 Ry

     iteration # 10     ecut=    30.00 Ry     beta= 0.50
     Davidson diagonalization with overlap
     ethr =  2.04E-07,  avg # of iterations =  4.0

     total cpu time spent up to now is        6.5 secs

     total energy              =    -501.90385663 Ry
     estimated scf accuracy    <       0.00043902 Ry

     iteration # 11     ecut=    30.00 Ry     beta= 0.50
     Davidson diagonalization with overlap
     ethr =  1.71E-07,  avg # of iterations =  2.0

     total cpu time spent up to now is        6.6 secs

     total energy              =    -501.90390192 Ry
     estimated scf accuracy    <       0.00006263 Ry

     iteration # 12     ecut=    30.00 Ry     beta= 0.50
     Davidson diagonalization with overlap
     ethr =  2.45E-08,  avg # of iterations =  4.0

     total cpu time spent up to now is        6.7 secs

     total energy              =    -501.90391216 Ry
     estimated scf accuracy    <       0.00001256 Ry

     iteration # 13     ecut=    30.00 Ry     beta= 0.50
     Davidson diagonalization with overlap
     ethr =  4.91E-09,  avg # of iterations =  4.0

     total cpu time spent up to now is        6.8 secs

     total energy              =    -501.90391360 Ry
     estimated scf accuracy    <       0.00001957 Ry

     iteration # 14     ecut=    30.00 Ry     beta= 0.50
     Davidson diagonalization with overlap
     ethr =  4.91E-09,  avg # of iterations =  2.0

     total cpu time spent up to now is        6.9 secs

     total energy              =    -501.90391540 Ry
     estimated scf accuracy    <       0.00000206 Ry

     iteration # 15     ecut=    30.00 Ry     beta= 0.50
     Davidson diagonalization with overlap
     ethr =  8.03E-10,  avg # of iterations =  4.0

     total cpu time spent up to now is        7.0 secs

     End of self-consistent calculation

          k = 0.0000 0.0000 0.0000 ( 11969 PWs)   bands (ev):

    -6.3365  -5.5113  -5.3100  -5.0924  -5.0671  -4.7052  -4.6327  -4.5123
    -4.3202  -4.1766  -4.0806  -3.9982  -3.9421  -3.8443  -3.7307  -3.6511
    -3.5969  -3.4678  -3.4239  -3.3760  -3.2886  -3.1683  -2.9837  -2.3763
    -2.2372  -2.0437  -1.9765  -1.8978  -1.8759  -1.7337  -1.6845  -1.5082
    -1.4726  -1.3835  -1.3676  -1.3085  -1.2664  -1.2257  -1.0548  -1.0143
    -0.8747  -0.8539  -0.7305  -0.6728  -0.3912   0.2315   0.2710   0.3468
     0.4222   0.4918   0.5925   0.7047   0.8266   0.8617   0.9386   0.9852
     1.1071   1.6373   1.7450   1.8386   1.9580   1.9933   1.9979   2.0694
     2.0968   2.1642   2.2141   2.2908   2.3438   2.3685   2.3994   2.4469
     2.4831   2.5093   2.5337   2.5754   2.6157   2.7202   2.7800   2.8071
     2.8518   2.8902   2.9753   3.0315   3.0697   3.1469   3.1687   3.2187
     3.2701   3.3557   3.3999   3.5782   3.6665   3.7425   3.8534   3.9527
     4.0812   4.1472   4.2925   4.3025   4.3297   4.3860   4.4846   4.5306
     4.5871   4.6307   4.6431   4.6877   4.7188   4.7990   4.8353   4.9227
     4.9560   5.0128   5.1577   5.2427   5.2688   5.2884   5.3724   5.6265
     5.6355   5.6915   5.8378   5.9185   6.0244   6.1707   6.2050   6.3460
     6.4494   6.4977   6.6867   6.8263   6.8964   7.0067   7.0444   7.1007
     7.1181   7.1962   7.2302   7.2747   7.4830   7.5343   7.5492   7.7198
     7.8393   7.8570   8.0202   8.0849   8.1369   8.2184   8.3681   8.4198
     8.5015   8.6095

     the Fermi energy is     6.3913 ev

!    total energy              =    -501.90391561 Ry
     estimated scf accuracy    <       0.00000026 Ry
     smearing contrib. (-TS)   =      -0.08624551 Ry
     internal energy E=F+TS    =    -501.81767010 Ry

     The total energy is F=E-TS. E is the sum of the following terms:
     one-electron contribution =     136.23684300 Ry
     hartree contribution      =      43.14280866 Ry
     xc contribution           =    -154.22622076 Ry
     ewald contribution        =    -526.97110100 Ry

     convergence has been achieved in  15 iterations

     Forces acting on atoms (cartesian axes, Ry/au):

     atom    1 type  1   force =     0.07810260   -0.00879420    0.11636526
     atom    2 type  1   force =     0.14440170   -0.11939574    0.11298256
     atom    3 type  1   force =     0.06806302   -0.15349424    0.08368074
     atom    4 type  1   force =     0.10072442    0.02382832    0.00187397
     atom    5 type  1   force =    -0.12336755    0.01810752   -0.04497356
     atom    6 type  1   force =    -0.02467697   -0.07229965   -0.01426001
     atom    7 type  1   force =    -0.03270714    0.03442216    0.04091418
     atom    8 type  1   force =    -0.03150500   -0.04808746    0.06505751
     atom    9 type  1   force =     0.03663810   -0.02800518   -0.01555596
     atom   10 type  1   force =     0.00156608    0.07678827   -0.00785092
     atom   11 type  1   force =     0.38038322   -0.46179777    0.50243939
     atom   12 type  1   force =     0.02471202   -0.03101178    0.03372909
     atom   13 type  1   force =    -0.04885090    0.05637787    0.01811949
     atom   14 type  1   force =    -0.06217687   -0.09558464    0.08547103
     atom   15 type  1   force =     0.15966120   -0.04808467    0.08604420
     atom   16 type  1   force =    -0.00979436   -0.02303277    0.02610396
     atom   17 type  1   force =    -0.18981118    0.17009631   -0.19480586
     atom   18 type  1   force =     0.01405697   -0.01192199   -0.05653673
     atom   19 type  1   force =     0.13197898    0.09733185   -0.12792946
     atom   20 type  1   force =    -0.15869596   -0.01492328   -0.03609521
     atom   21 type  1   force =     0.10284916    0.14967158    0.11392344
     atom   22 type  1   force =    -0.00136499   -0.00516718   -0.02901776
     atom   23 type  1   force =    -0.12056063    0.05424188    0.02798594
     atom   24 type  1   force =    -0.03447888    0.02555766    0.09619208
     atom   25 type  1   force =     0.03757851    0.00646168    0.02659938
     atom   26 type  1   force =     0.02918686    0.04199247   -0.09573764
     atom   27 type  1   force =    -0.07917596   -0.03562884    0.04287788
     atom   28 type  1   force =     0.02747055    0.06535964   -0.00044408
     atom   29 type  1   force =    -0.00049809   -0.06471712    0.04477943
     atom   30 type  1   force =     0.05029827   -0.08881468   -0.15211623
     atom   31 type  1   force =    -0.09633498   -0.11118972    0.10495070
     atom   32 type  1   force =     0.01138019    0.04532919   -0.01144867
     atom   33 type  1   force =     0.10075934    0.06434451    0.12190862
     atom   34 type  1   force =    -0.04890730   -0.11968676   -0.09799024
     atom   35 type  1   force =     0.07632620    0.04042324    0.10698301
     atom   36 type  1   force =    -0.00954122   -0.06633942   -0.05477925
     atom   37 type  1   force =     0.10159174   -0.06850380   -0.09082133
     atom   38 type  1   force =    -0.01702225   -0.05771623    0.02242354
     atom   39 type  1   force =    -0.03921777    0.06264757    0.03991753
     atom   40 type  1   force =     0.03865391    0.01004200   -0.07873325
     atom   41 type  1   force =    -0.08563706   -0.04577177    0.08071318
     atom   42 type  1   force =    -0.03014171   -0.00873335   -0.12931143
     atom   43 type  1   force =     0.03052027   -0.01786127    0.00756044
     atom   44 type  1   force =    -0.09163609    0.08851084   -0.01176000
     atom   45 type  1   force =    -0.03578213    0.02012305    0.04686668
     atom   46 type  1   force =     0.08667965    0.08742855    0.06799389
     atom   47 type  1   force =    -0.00226602    0.00377521    0.04322450
     atom   48 type  1   force =    -0.05760702    0.02629207   -0.07339386
     atom   49 type  1   force =     0.20885378    0.05257457   -0.08777599
     atom   50 type  1   force =    -0.08226150   -0.12350584   -0.08935097
     atom   51 type  1   force =     0.01444321    0.02448905    0.09890684
     atom   52 type  1   force =    -0.05898283    0.17328049    0.05186126
     atom   53 type  1   force =     0.00040298   -0.07059727    0.05956967
     atom   54 type  1   force =    -0.14279388   -0.08676624    0.01803040
     atom   55 type  1   force =     0.00245150   -0.02438565   -0.09098170
     atom   56 type  1   force =     0.01639839    0.00383745    0.00073076
     atom   57 type  1   force =    -0.00336456   -0.03872365   -0.05155785
     atom   58 type  1   force =    -0.07783343    0.03720720   -0.16512818
     atom   59 type  1   force =    -0.05501533    0.01958123    0.02856219
     atom   60 type  1   force =    -0.41009030    0.35780606   -0.41867169
     atom   61 type  1   force =     0.10412002    0.12032093   -0.08183407
     atom   62 type  1   force =     0.08317522   -0.03740899   -0.08264433
     atom   63 type  1   force =    -0.18515129   -0.08579754   -0.18704121
     atom   64 type  1   force =     0.18382308    0.21549825    0.15320470

     Total force =     1.522391     Total SCF correction =     0.000805


     Computing stress (Cartesian axis) and pressure

          total   stress  (Ry/bohr**3)                   (kbar)     P=       75.85
   0.00047276  -0.00006212   0.00006753           69.55       -9.14        9.93
  -0.00006212   0.00066899  -0.00031714           -9.14       98.41      -46.65
   0.00006753  -0.00031714   0.00040518            9.93      -46.65       59.60

 
     init_run     :      1.21s CPU      5.08s WALL (       1 calls)
     electrons    :      1.73s CPU      1.88s WALL (       1 calls)
     forces       :      0.04s CPU      0.05s WALL (       1 calls)
     stress       :      0.16s CPU      0.17s WALL (       1 calls)

     Called by init_run:
     wfcinit      :      0.56s CPU      4.25s WALL (       1 calls)
                                        4.25s GPU  (       1 calls)
     potinit      :      0.20s CPU      0.30s WALL (       1 calls)
     hinit0       :      0.43s CPU      0.46s WALL (       1 calls)

     Called by electrons:
     c_bands      :      1.07s CPU      1.14s WALL (      16 calls)
     sum_band     :      0.34s CPU      0.38s WALL (      16 calls)
     v_of_rho     :      0.16s CPU      0.27s WALL (      16 calls)
     mix_rho      :      0.15s CPU      0.16s WALL (      16 calls)

     Called by c_bands:
     init_us_2    :      0.06s CPU      0.06s WALL (      33 calls)
     init_us_2:gp :      0.06s CPU      0.06s WALL (      33 calls)
     regterg      :      0.94s CPU      0.99s WALL (      16 calls)

     Called by *egterg:
     rdiaghg      :      0.40s CPU      1.16s WALL (      87 calls)
                                        1.15s GPU  (      87 calls)
     h_psi        :      0.92s CPU      3.89s WALL (      89 calls)
                                        3.89s GPU  (      89 calls)
     g_psi        :      0.00s CPU      0.00s WALL (      72 calls)
                                        0.00s GPU  (      72 calls)

     Called by h_psi:
     h_psi:calbec :      0.51s CPU      3.40s WALL (      89 calls)
                                        3.40s GPU  (      89 calls)
     vloc_psi     :      0.36s CPU      0.43s WALL (      89 calls)
                                        0.43s GPU  (      89 calls)
     add_vuspsi   :      0.03s CPU      0.05s WALL (      89 calls)
                                        0.05s GPU  (      89 calls)

     General routines
     calbec       :      0.52s CPU      3.40s WALL (      94 calls)
     fft          :      0.52s CPU      0.66s WALL (     135 calls)
                                        0.14s GPU  (      86 calls)
     ffts         :      0.04s CPU      0.05s WALL (      16 calls)
     fftw         :      0.42s CPU      0.57s WALL (    1718 calls)
                                        0.50s GPU  (    1718 calls)
 
     Parallel routines
 
     PWSCF        :      3.19s CPU      7.27s WALL

 
   This run was terminated on:  11:38:21  10May2023            

=------------------------------------------------------------------------------=
   JOB DONE.
=------------------------------------------------------------------------------=
