An instance of this daemon is already running
An instance of this daemon is already running

     Program PWSCF v.7.1 starts on 10May2023 at 11:18:35 

     This program is part of the open-source Quantum ESPRESSO suite
     for quantum simulation of materials; please cite
         "P. Giannozzi et al., J. Phys.:Condens. Matter 21 395502 (2009);
         "P. Giannozzi et al., J. Phys.:Condens. Matter 29 465901 (2017);
         "P. Giannozzi et al., J. Chem. Phys. 152 154105 (2020);
          URL http://www.quantum-espresso.org", 
     in publications or presentations arising from this work. More details at
     http://www.quantum-espresso.org/quote

     Parallel version (MPI & OpenMP), running on       4 processor cores
     Number of MPI processes:                 4
     Threads/MPI process:                     1

     MPI processes distributed on     1 nodes
     147592 MiB available memory on the printing compute node when the environment starts
 
     Reading input from pw-si-61.in
Warning: card &CELL ignored
Warning: card / ignored

     Current dimensions of program PWSCF are:
     Max number of different atomic species (ntypx) = 10
     Max number of k-points (npk) =  40000
     Max angular momentum in pseudopotentials (lmaxx) =  4

     IMPORTANT: XC functional enforced from input :
     Exchange-correlation= PBE
                           (   1   4   3   4   0   0   0)
     Any further DFT definition will be discarded
     Please, verify this is what you really want


     gamma-point specific algorithms are used
 
     K-points division:     npool     =       2
     R & G space division:  proc/nbgrp/npool/nimage =       2
     Subspace diagonalization in iterative solution of the eigenvalue problem:
     a serial algorithm will be used

     Message from routine divide_et_impera:
     suboptimal parallelization: some nodes have no k-points
 
     Parallelization info
     --------------------
     sticks:   dense  smooth     PW     G-vecs:    dense   smooth      PW
     Min        2023    2023    540                97943    97943   13312
     Max        2028    2028    541                97944    97944   13313
     Sum        4051    4051   1081               195887   195887   26625
 
     Using Slab Decomposition
 


     bravais-lattice index     =            0
     lattice parameter (alat)  =      20.5309  a.u.
     unit-cell volume          =    8825.0733 (a.u.)^3
     number of atoms/cell      =           64
     number of atomic types    =            1
     number of electrons       =       256.00
     number of Kohn-Sham states=          154
     kinetic-energy cutoff     =      30.0000  Ry
     charge density cutoff     =     120.0000  Ry
     scf convergence threshold =      1.0E-06
     mixing beta               =       0.5000
     number of iterations used =            8  plain     mixing
     Exchange-correlation= PBE
                           (   1   4   3   4   0   0   0)

     GPU acceleration is ACTIVE.
     GPU-aware MPI enabled

     Message from routine print_cuda_info:
     High GPU oversubscription detected. Are you sure this is what you want?

     celldm(1)=  20.530911  celldm(2)=   0.000000  celldm(3)=   0.000000
     celldm(4)=   0.000000  celldm(5)=   0.000000  celldm(6)=   0.000000

     crystal axes: (cart. coord. in units of alat)
               a(1) = (   1.000000   0.000000   0.000000 )  
               a(2) = (   0.000000   1.007571   0.000000 )  
               a(3) = (   0.000000   0.000000   1.012088 )  

     reciprocal axes: (cart. coord. in units 2 pi/alat)
               b(1) = (  1.000000  0.000000  0.000000 )  
               b(2) = (  0.000000  0.992486  0.000000 )  
               b(3) = (  0.000000  0.000000  0.988057 )  


     PseudoPot. # 1 for Si read from file:
     /home/ppiaggi/pseudos/Si_ONCV_PBE_sr.upf
     MD5 check sum: 8553c464762ac42b85b1eed164b4d029
     Pseudo is Norm-conserving, Zval =  4.0
     Generated using ONCVPSP code by D. R. Hamann
     Using radial grid of 1510 points,  4 beta functions with: 
                l(1) =   0
                l(2) =   0
                l(3) =   1
                l(4) =   1

     atomic species   valence    mass     pseudopotential
        Si             4.00    28.08500     Si( 1.00)

     No symmetry found



   Cartesian axes

     site n.     atom                  positions (alat units)
         1           Si  tau(   1) = (  -0.0028498  -0.0025959  -0.0032614  )
         2           Si  tau(   2) = (  -0.0037750   0.2539558   0.2555520  )
         3           Si  tau(   3) = (   0.2548969   0.0011546   0.2616449  )
         4           Si  tau(   4) = (   0.2524678   0.2547069  -0.0002820  )
         5           Si  tau(   5) = (   0.1304390   0.1271917   0.1278806  )
         6           Si  tau(   6) = (   0.5047874   0.0032472   0.0041882  )
         7           Si  tau(   7) = (   0.5040824   0.2482100   0.2591555  )
         8           Si  tau(   8) = (   0.6330647   0.1215567   0.1312519  )
         9           Si  tau(   9) = (   0.7636672   0.0031442   0.2565570  )
        10           Si  tau(  10) = (   0.7637046   0.2506532  -0.0018980  )
        11           Si  tau(  11) = (  -0.0035280   0.5011803   0.0046005  )
        12           Si  tau(  12) = (   0.2524083   0.5049737   0.2593240  )
        13           Si  tau(  13) = (   0.1289490   0.6330544   0.1303048  )
        14           Si  tau(  14) = (   0.3782751   0.3811615   0.1260457  )
        15           Si  tau(  15) = (   0.5078851   0.5057731   0.0029814  )
        16           Si  tau(  16) = (   0.6351672   0.6306536   0.1334375  )
        17           Si  tau(  17) = (   0.8901330   0.3746346   0.1251807  )
        18           Si  tau(  18) = (   0.7606492   0.5065759   0.2562096  )
        19           Si  tau(  19) = (   0.0003701   0.7536463   0.2615115  )
        20           Si  tau(  20) = (   0.2534243   0.7525081  -0.0036706  )
        21           Si  tau(  21) = (   0.3802760   0.8821040   0.1335925  )
        22           Si  tau(  22) = (   0.5122428   0.7570527   0.2583850  )
        23           Si  tau(  23) = (   0.7585704   0.7505984   0.0012887  )
        24           Si  tau(  24) = (   0.8848213   0.8802807   0.1289204  )
        25           Si  tau(  25) = (   0.0033564  -0.0031384   0.5192585  )
        26           Si  tau(  26) = (   0.2569015   0.2539226   0.5153702  )
        27           Si  tau(  27) = (   0.1224659   0.1225688   0.6436304  )
        28           Si  tau(  28) = (   0.3846836   0.1295612   0.3889691  )
        29           Si  tau(  29) = (   0.5040325  -0.0040279   0.5163146  )
        30           Si  tau(  30) = (   0.6369639   0.1300156   0.6404303  )
        31           Si  tau(  31) = (   0.8843843   0.1278870   0.3888852  )
        32           Si  tau(  32) = (   0.7594174   0.2496682   0.5182317  )
        33           Si  tau(  33) = (   0.1262815   0.3746483   0.3898299  )
        34           Si  tau(  34) = (   0.0043125   0.4987709   0.5156771  )
        35           Si  tau(  35) = (   0.1280086   0.6286168   0.6435518  )
        36           Si  tau(  36) = (   0.6353963   0.3748514   0.3853839  )
        37           Si  tau(  37) = (   0.3795502   0.6257540   0.3840837  )
        38           Si  tau(  38) = (   0.3834391   0.3810818   0.6459920  )
        39           Si  tau(  39) = (   0.5081340   0.5022202   0.5147562  )
        40           Si  tau(  40) = (   0.6355324   0.6283732   0.6440517  )
        41           Si  tau(  41) = (   0.8883778   0.6298649   0.3847300  )
        42           Si  tau(  42) = (   0.8842087   0.3799039   0.6454194  )
        43           Si  tau(  43) = (   0.1312384   0.8801920   0.3872599  )
        44           Si  tau(  44) = (   0.2578411   0.7585347   0.5115979  )
        45           Si  tau(  45) = (   0.6363737   0.8790151   0.3864770  )
        46           Si  tau(  46) = (   0.3795403   0.8772062   0.6416112  )
        47           Si  tau(  47) = (   0.7601215   0.7576767   0.5147789  )
        48           Si  tau(  48) = (   0.8910305   0.8792092   0.6430103  )
        49           Si  tau(  49) = (   0.0040429   0.2508623   0.7727978  )
        50           Si  tau(  50) = (   0.2569884  -0.0044301   0.7751909  )
        51           Si  tau(  51) = (   0.3829807   0.1220193   0.8994469  )
        52           Si  tau(  52) = (   0.5043838   0.2541994   0.7725820  )
        53           Si  tau(  53) = (   0.7604310  -0.0009228   0.7720024  )
        54           Si  tau(  54) = (   0.8927874   0.1230832   0.9029612  )
        55           Si  tau(  55) = (   0.1247497   0.3747082   0.9008623  )
        56           Si  tau(  56) = (   0.2579013   0.5063007   0.7735016  )
        57           Si  tau(  57) = (   0.6369265   0.3731682   0.9070061  )
        58           Si  tau(  58) = (   0.3807400   0.6253641   0.9033122  )
        59           Si  tau(  59) = (   0.7589043   0.5005086   0.7781061  )
        60           Si  tau(  60) = (   0.8898368   0.6323824   0.9003328  )
        61           Si  tau(  61) = (   0.0043892   0.7578216   0.7784037  )
        62           Si  tau(  62) = (   0.1262480   0.8817653   0.9067333  )
        63           Si  tau(  63) = (   0.5036820   0.7587606   0.7718256  )
        64           Si  tau(  64) = (   0.6314984   0.8762838   0.9018909  )

     number of k points=     1  Fermi-Dirac smearing, width (Ry)=  0.0100
                       cart. coord. in units 2pi/alat
        k(    1) = (   0.0000000   0.0000000   0.0000000), wk =   2.0000000

     Dense  grid:    97944 G-vectors     FFT dimensions: (  72,  75,  75)

     Estimated max dynamical RAM per process >     157.23 MB

     Estimated total dynamical RAM >     605.02 MB

     Initial potential from superposition of free atoms

     starting charge     255.9608, renormalised to     256.0000
     Starting wfcs are  256 randomized atomic wfcs

     total cpu time spent up to now is        4.3 secs

     Self-consistent Calculation

     iteration #  1     ecut=    30.00 Ry     beta= 0.50
     Davidson diagonalization with overlap
     ethr =  1.00E-02,  avg # of iterations =  3.0

     Threshold (ethr) on eigenvalues was too large:
     Diagonalizing with lowered threshold

     Davidson diagonalization with overlap
     ethr =  6.61E-04,  avg # of iterations =  3.0

     total cpu time spent up to now is        4.5 secs

     total energy              =    -503.76121385 Ry
     estimated scf accuracy    <       1.87446674 Ry

     iteration #  2     ecut=    30.00 Ry     beta= 0.50
     Davidson diagonalization with overlap
     ethr =  7.32E-04,  avg # of iterations =  1.0

     total cpu time spent up to now is        4.6 secs

     total energy              =    -503.74680914 Ry
     estimated scf accuracy    <       0.34704465 Ry

     iteration #  3     ecut=    30.00 Ry     beta= 0.50
     Davidson diagonalization with overlap
     ethr =  1.36E-04,  avg # of iterations =  5.0

     total cpu time spent up to now is        4.7 secs

     total energy              =    -503.76223915 Ry
     estimated scf accuracy    <       0.05965604 Ry

     iteration #  4     ecut=    30.00 Ry     beta= 0.50
     Davidson diagonalization with overlap
     ethr =  2.33E-05,  avg # of iterations = 18.0

     total cpu time spent up to now is        4.9 secs

     total energy              =    -503.77401605 Ry
     estimated scf accuracy    <       0.01156063 Ry

     iteration #  5     ecut=    30.00 Ry     beta= 0.50
     Davidson diagonalization with overlap
     ethr =  4.52E-06,  avg # of iterations = 14.0

     total cpu time spent up to now is        5.1 secs

     total energy              =    -503.77577612 Ry
     estimated scf accuracy    <       0.00187409 Ry

     iteration #  6     ecut=    30.00 Ry     beta= 0.50
     Davidson diagonalization with overlap
     ethr =  7.32E-07,  avg # of iterations =  4.0

     total cpu time spent up to now is        5.2 secs

     total energy              =    -503.77604680 Ry
     estimated scf accuracy    <       0.00061055 Ry

     iteration #  7     ecut=    30.00 Ry     beta= 0.50
     Davidson diagonalization with overlap
     ethr =  2.38E-07,  avg # of iterations =  4.0

     total cpu time spent up to now is        5.3 secs

     total energy              =    -503.77609829 Ry
     estimated scf accuracy    <       0.00014218 Ry

     iteration #  8     ecut=    30.00 Ry     beta= 0.50
     Davidson diagonalization with overlap
     ethr =  5.55E-08,  avg # of iterations =  5.0

     total cpu time spent up to now is        5.4 secs

     total energy              =    -503.77612878 Ry
     estimated scf accuracy    <       0.00000911 Ry

     iteration #  9     ecut=    30.00 Ry     beta= 0.50
     Davidson diagonalization with overlap
     ethr =  3.56E-09,  avg # of iterations =  4.0

     total cpu time spent up to now is        5.5 secs

     total energy              =    -503.77613022 Ry
     estimated scf accuracy    <       0.00000275 Ry

     iteration # 10     ecut=    30.00 Ry     beta= 0.50
     Davidson diagonalization with overlap
     ethr =  1.08E-09,  avg # of iterations =  5.0

     total cpu time spent up to now is        5.6 secs

     End of self-consistent calculation

          k = 0.0000 0.0000 0.0000 ( 12242 PWs)   bands (ev):

    -5.8671  -4.9116  -4.8484  -4.8325  -4.7887  -4.6785  -4.6118  -4.1142
    -3.9828  -3.9631  -3.9521  -3.8679  -3.8391  -3.7910  -3.7434  -3.7123
    -3.6625  -3.5842  -3.5516  -3.5302  -3.4727  -3.4217  -3.3267  -2.0708
    -1.9446  -1.8506  -1.7686  -1.7164  -1.6605  -1.6296  -1.6059  -1.5903
    -1.5673  -1.5533  -1.5297  -1.5087  -1.4917  -1.4644  -1.4292  -1.3980
    -1.3807  -0.9517  -0.9114  -0.7961  -0.6699   0.4429   0.4509   0.5075
     0.5124   0.5359   0.5403   0.5605   0.6072   0.6434   0.6799   0.7003
     0.7443   1.9891   2.0028   2.0525   2.0822   2.1265   2.1354   2.1982
     2.2150   2.2499   2.2705   2.2940   2.3075   2.3161   2.3401   2.3535
     2.4021   2.4184   2.4317   2.4448   2.4526   2.4721   2.4887   2.4959
     2.5225   2.5348   2.5675   2.5824   2.6237   2.6582   2.6927   3.1137
     3.1341   3.2074   3.2599   3.2732   3.3370   3.9662   3.9962   4.0923
     4.1356   4.1661   4.1837   4.1902   4.2089   4.2445   4.2823   4.2999
     4.3475   4.3906   4.4142   4.6459   4.6924   4.7220   4.7528   4.7866
     4.7934   4.8157   4.8398   4.8538   4.8733   4.9093   4.9345   4.9491
     4.9666   4.9972   5.0151   5.0608   5.1076   5.9370   6.1136   6.1928
     6.4930   6.6152   6.6252   6.8066   6.8307   6.9368   7.0824   7.1349
     7.1674   7.1782   7.2432   7.2957   7.4161   7.4278   7.4444   7.4824
     8.1532   8.1956   8.3083   8.3425   8.3675   8.3758   8.4363   8.4631
     8.4856   8.4973

     the Fermi energy is     6.3246 ev

!    total energy              =    -503.77613075 Ry
     estimated scf accuracy    <       0.00000022 Ry
     smearing contrib. (-TS)   =      -0.05723623 Ry
     internal energy E=F+TS    =    -503.71889452 Ry

     The total energy is F=E-TS. E is the sum of the following terms:
     one-electron contribution =     145.02030639 Ry
     hartree contribution      =      37.38494516 Ry
     xc contribution           =    -153.65837299 Ry
     ewald contribution        =    -532.46577309 Ry

     convergence has been achieved in  10 iterations

     Forces acting on atoms (cartesian axes, Ry/au):

     atom    1 type  1   force =     0.07271570   -0.02624638    0.11607692
     atom    2 type  1   force =     0.06380729   -0.02439978    0.02271020
     atom    3 type  1   force =     0.00129831    0.00882726   -0.00586984
     atom    4 type  1   force =     0.02322059   -0.02409488    0.03907901
     atom    5 type  1   force =    -0.01665522   -0.00958343    0.01310419
     atom    6 type  1   force =     0.02005741   -0.04047705    0.04176579
     atom    7 type  1   force =     0.01661602    0.02702216   -0.02325638
     atom    8 type  1   force =     0.00682582    0.02881047   -0.00175655
     atom    9 type  1   force =    -0.01608545   -0.02038036    0.01439639
     atom   10 type  1   force =     0.00090767   -0.03304115    0.07547888
     atom   11 type  1   force =     0.07730436    0.01922028    0.02327520
     atom   12 type  1   force =    -0.00927913   -0.01325206   -0.00757909
     atom   13 type  1   force =    -0.00879952   -0.01800477    0.00418577
     atom   14 type  1   force =     0.00606317   -0.01318854    0.02758532
     atom   15 type  1   force =     0.02014326   -0.01653538    0.05369846
     atom   16 type  1   force =    -0.00850006   -0.00430004   -0.01124322
     atom   17 type  1   force =    -0.07953539    0.01109599    0.02726544
     atom   18 type  1   force =     0.00691487   -0.02878307    0.00593583
     atom   19 type  1   force =     0.04737946    0.02730859   -0.02445481
     atom   20 type  1   force =     0.01053559    0.01299998    0.08173000
     atom   21 type  1   force =    -0.00096503   -0.00659960   -0.01005283
     atom   22 type  1   force =    -0.02710700   -0.00942724    0.00488862
     atom   23 type  1   force =     0.00025812    0.01391452    0.04841574
     atom   24 type  1   force =    -0.02736211   -0.00581137    0.01013983
     atom   25 type  1   force =     0.02318981    0.01020507   -0.04290998
     atom   26 type  1   force =    -0.01090206   -0.01267488    0.01554958
     atom   27 type  1   force =     0.05150857    0.01269770    0.01017192
     atom   28 type  1   force =    -0.01987328   -0.02564645    0.00900178
     atom   29 type  1   force =     0.02490490    0.01651531   -0.00691043
     atom   30 type  1   force =    -0.03460296   -0.03250864    0.02920888
     atom   31 type  1   force =    -0.01045751   -0.01377923    0.00497323
     atom   32 type  1   force =     0.00934978    0.02847560   -0.02251367
     atom   33 type  1   force =     0.01296847    0.00132677   -0.02231308
     atom   34 type  1   force =     0.01146644    0.02502112   -0.00151779
     atom   35 type  1   force =     0.01505649    0.01482159    0.00211418
     atom   36 type  1   force =    -0.00400913    0.00588439    0.00181294
     atom   37 type  1   force =     0.02325833    0.01918504    0.01051629
     atom   38 type  1   force =    -0.01082767   -0.00391634   -0.00730495
     atom   39 type  1   force =     0.00507959    0.00433848   -0.00772365
     atom   40 type  1   force =    -0.00879112    0.00560954    0.00780462
     atom   41 type  1   force =    -0.04145583   -0.01979465    0.03313359
     atom   42 type  1   force =    -0.02401037   -0.01816814    0.00806943
     atom   43 type  1   force =    -0.01374621    0.01031043    0.00028155
     atom   44 type  1   force =    -0.01524602   -0.03545488    0.00431375
     atom   45 type  1   force =    -0.00268171    0.02713082    0.00269785
     atom   46 type  1   force =     0.00048895    0.01946226    0.01331452
     atom   47 type  1   force =     0.01137396   -0.02011179    0.00375652
     atom   48 type  1   force =    -0.05366350   -0.00401672    0.02030487
     atom   49 type  1   force =     0.01015782    0.00209678   -0.01791188
     atom   50 type  1   force =    -0.02215989    0.00496136   -0.02037992
     atom   51 type  1   force =    -0.02197184    0.03391888   -0.04302213
     atom   52 type  1   force =     0.02417665   -0.01257919   -0.00266174
     atom   53 type  1   force =    -0.00155608   -0.00214911   -0.00431458
     atom   54 type  1   force =    -0.08343570    0.04576855   -0.09819067
     atom   55 type  1   force =     0.01019835    0.03364379   -0.05025456
     atom   56 type  1   force =    -0.02577499   -0.01863776   -0.00777697
     atom   57 type  1   force =    -0.03695616    0.02496448   -0.06674566
     atom   58 type  1   force =     0.01143889    0.02456642   -0.06614154
     atom   59 type  1   force =     0.00083848    0.01781606   -0.01746453
     atom   60 type  1   force =    -0.05030354   -0.01727993   -0.04085523
     atom   61 type  1   force =     0.03551596   -0.00475029   -0.03879989
     atom   62 type  1   force =     0.02599307   -0.00122962   -0.07105449
     atom   63 type  1   force =     0.00959011   -0.03411585   -0.00455830
     atom   64 type  1   force =    -0.00388775    0.03301886   -0.04121875

     Total force =     0.403826     Total SCF correction =     0.000717


     Computing stress (Cartesian axis) and pressure

          total   stress  (Ry/bohr**3)                   (kbar)     P=       14.30
   0.00012446  -0.00007374   0.00002617           18.31      -10.85        3.85
  -0.00007374   0.00011148  -0.00008776          -10.85       16.40      -12.91
   0.00002617  -0.00008776   0.00005560            3.85      -12.91        8.18

 
     init_run     :      1.08s CPU      4.25s WALL (       1 calls)
     electrons    :      1.22s CPU      1.32s WALL (       1 calls)
     forces       :      0.03s CPU      0.04s WALL (       1 calls)
     stress       :      0.15s CPU      0.17s WALL (       1 calls)

     Called by init_run:
     wfcinit      :      0.61s CPU      3.61s WALL (       1 calls)
                                        3.61s GPU  (       1 calls)
     potinit      :      0.14s CPU      0.25s WALL (       1 calls)
     hinit0       :      0.30s CPU      0.33s WALL (       1 calls)

     Called by electrons:
     c_bands      :      0.85s CPU      0.92s WALL (      11 calls)
     sum_band     :      0.19s CPU      0.22s WALL (      11 calls)
     v_of_rho     :      0.09s CPU      0.20s WALL (      11 calls)
     mix_rho      :      0.07s CPU      0.08s WALL (      11 calls)

     Called by c_bands:
     init_us_2    :      0.03s CPU      0.03s WALL (      23 calls)
     init_us_2:gp :      0.03s CPU      0.03s WALL (      23 calls)
     regterg      :      0.77s CPU      0.83s WALL (      11 calls)

     Called by *egterg:
     rdiaghg      :      0.35s CPU      0.95s WALL (      76 calls)
                                        0.94s GPU  (      76 calls)
     h_psi        :      0.91s CPU      3.32s WALL (      78 calls)
                                        3.32s GPU  (      78 calls)
     g_psi        :      0.00s CPU      0.00s WALL (      66 calls)
                                        0.00s GPU  (      66 calls)

     Called by h_psi:
     h_psi:calbec :      0.57s CPU      2.92s WALL (      78 calls)
                                        2.92s GPU  (      78 calls)
     vloc_psi     :      0.30s CPU      0.35s WALL (      78 calls)
                                        0.35s GPU  (      78 calls)
     add_vuspsi   :      0.03s CPU      0.04s WALL (      78 calls)
                                        0.04s GPU  (      78 calls)

     General routines
     calbec       :      0.57s CPU      2.93s WALL (      83 calls)
     fft          :      0.33s CPU      0.44s WALL (      95 calls)
                                        0.11s GPU  (      61 calls)
     ffts         :      0.02s CPU      0.02s WALL (      11 calls)
     fftw         :      0.33s CPU      0.44s WALL (    1225 calls)
                                        0.40s GPU  (    1225 calls)
 
     Parallel routines
 
     PWSCF        :      2.51s CPU      5.85s WALL

 
   This run was terminated on:  11:18:41  10May2023            

=------------------------------------------------------------------------------=
   JOB DONE.
=------------------------------------------------------------------------------=
