An instance of this daemon is already running

     Program PWSCF v.7.1 starts on 10May2023 at 11:10:39 

     This program is part of the open-source Quantum ESPRESSO suite
     for quantum simulation of materials; please cite
         "P. Giannozzi et al., J. Phys.:Condens. Matter 21 395502 (2009);
         "P. Giannozzi et al., J. Phys.:Condens. Matter 29 465901 (2017);
         "P. Giannozzi et al., J. Chem. Phys. 152 154105 (2020);
          URL http://www.quantum-espresso.org", 
     in publications or presentations arising from this work. More details at
     http://www.quantum-espresso.org/quote

     Parallel version (MPI & OpenMP), running on       4 processor cores
     Number of MPI processes:                 4
     Threads/MPI process:                     1

     MPI processes distributed on     1 nodes
     150762 MiB available memory on the printing compute node when the environment starts
 
     Reading input from pw-si-4.in
Warning: card &CELL ignored
Warning: card / ignored

     Current dimensions of program PWSCF are:
     Max number of different atomic species (ntypx) = 10
     Max number of k-points (npk) =  40000
     Max angular momentum in pseudopotentials (lmaxx) =  4

     IMPORTANT: XC functional enforced from input :
     Exchange-correlation= PBE
                           (   1   4   3   4   0   0   0)
     Any further DFT definition will be discarded
     Please, verify this is what you really want


     gamma-point specific algorithms are used
 
     K-points division:     npool     =       2
     R & G space division:  proc/nbgrp/npool/nimage =       2
     Subspace diagonalization in iterative solution of the eigenvalue problem:
     a serial algorithm will be used

     Message from routine divide_et_impera:
     suboptimal parallelization: some nodes have no k-points
 
     Parallelization info
     --------------------
     sticks:   dense  smooth     PW     G-vecs:    dense   smooth      PW
     Min        2009    2009    528                95782    95782   12984
     Max        2010    2010    529                95783    95783   12989
     Sum        4019    4019   1057               191565   191565   25973
 
     Using Slab Decomposition
 


     bravais-lattice index     =            0
     lattice parameter (alat)  =      20.3510  a.u.
     unit-cell volume          =    8628.9834 (a.u.)^3
     number of atoms/cell      =           64
     number of atomic types    =            1
     number of electrons       =       256.00
     number of Kohn-Sham states=          154
     kinetic-energy cutoff     =      30.0000  Ry
     charge density cutoff     =     120.0000  Ry
     scf convergence threshold =      1.0E-06
     mixing beta               =       0.5000
     number of iterations used =            8  plain     mixing
     Exchange-correlation= PBE
                           (   1   4   3   4   0   0   0)

     GPU acceleration is ACTIVE.
     GPU-aware MPI enabled

     Message from routine print_cuda_info:
     High GPU oversubscription detected. Are you sure this is what you want?

     celldm(1)=  20.350997  celldm(2)=   0.000000  celldm(3)=   0.000000
     celldm(4)=   0.000000  celldm(5)=   0.000000  celldm(6)=   0.000000

     crystal axes: (cart. coord. in units of alat)
               a(1) = (   1.000000   0.000000   0.000000 )  
               a(2) = (   0.000000   1.014944   0.000000 )  
               a(3) = (   0.000000   0.000000   1.008696 )  

     reciprocal axes: (cart. coord. in units 2 pi/alat)
               b(1) = (  1.000000  0.000000  0.000000 )  
               b(2) = (  0.000000  0.985276  0.000000 )  
               b(3) = (  0.000000  0.000000  0.991379 )  


     PseudoPot. # 1 for Si read from file:
     /home/ppiaggi/pseudos/Si_ONCV_PBE_sr.upf
     MD5 check sum: 8553c464762ac42b85b1eed164b4d029
     Pseudo is Norm-conserving, Zval =  4.0
     Generated using ONCVPSP code by D. R. Hamann
     Using radial grid of 1510 points,  4 beta functions with: 
                l(1) =   0
                l(2) =   0
                l(3) =   1
                l(4) =   1

     atomic species   valence    mass     pseudopotential
        Si             4.00    28.08500     Si( 1.00)

     No symmetry found



   Cartesian axes

     site n.     atom                  positions (alat units)
         1           Si  tau(   1) = (  -0.0022211  -0.0034685  -0.0044074  )
         2           Si  tau(   2) = (  -0.0021283   0.2510588   0.2505900  )
         3           Si  tau(   3) = (   0.2542808  -0.0010044   0.2555216  )
         4           Si  tau(   4) = (   0.2539719   0.2521616  -0.0024675  )
         5           Si  tau(   5) = (   0.1241049   0.1245509   0.1260248  )
         6           Si  tau(   6) = (   0.5032738  -0.0043528  -0.0030621  )
         7           Si  tau(   7) = (   0.5076277   0.2532532   0.2545042  )
         8           Si  tau(   8) = (   0.6324378   0.1205114   0.1294995  )
         9           Si  tau(   9) = (   0.7530277   0.0000459   0.2498088  )
        10           Si  tau(  10) = (   0.7593703   0.2513316   0.0044636  )
        11           Si  tau(  11) = (   0.0019346   0.4974604   0.0003641  )
        12           Si  tau(  12) = (   0.2532506   0.5024954   0.2553311  )
        13           Si  tau(  13) = (   0.1241850   0.6198900   0.1297908  )
        14           Si  tau(  14) = (   0.3809920   0.3741405   0.1270132  )
        15           Si  tau(  15) = (   0.5023072   0.4946801  -0.0009524  )
        16           Si  tau(  16) = (   0.6262674   0.6242097   0.1242623  )
        17           Si  tau(  17) = (   0.8794329   0.3698369   0.1235659  )
        18           Si  tau(  18) = (   0.7524238   0.4970415   0.2478056  )
        19           Si  tau(  19) = (   0.0032523   0.7454665   0.2515087  )
        20           Si  tau(  20) = (   0.2538146   0.7491723  -0.0016610  )
        21           Si  tau(  21) = (   0.3821752   0.8725355   0.1265032  )
        22           Si  tau(  22) = (   0.5025900   0.7517802   0.2495983  )
        23           Si  tau(  23) = (   0.7532001   0.7462963   0.0041898  )
        24           Si  tau(  24) = (   0.8863679   0.8707083   0.1291639  )
        25           Si  tau(  25) = (   0.0034682  -0.0042470   0.5085996  )
        26           Si  tau(  26) = (   0.2507291   0.2515259   0.5003578  )
        27           Si  tau(  27) = (   0.1271466   0.1244674   0.6295234  )
        28           Si  tau(  28) = (   0.3782876   0.1205386   0.3793259  )
        29           Si  tau(  29) = (   0.5009604  -0.0029516   0.5021882  )
        30           Si  tau(  30) = (   0.6280258   0.1235307   0.6307066  )
        31           Si  tau(  31) = (   0.8835833   0.1263356   0.3763827  )
        32           Si  tau(  32) = (   0.7580998   0.2493465   0.5017192  )
        33           Si  tau(  33) = (   0.1251737   0.3769158   0.3760886  )
        34           Si  tau(  34) = (   0.0030329   0.4963436   0.5077943  )
        35           Si  tau(  35) = (   0.1272897   0.6235254   0.6352783  )
        36           Si  tau(  36) = (   0.6342263   0.3701842   0.3796314  )
        37           Si  tau(  37) = (   0.3813593   0.6234239   0.3745966  )
        38           Si  tau(  38) = (   0.3765166   0.3755955   0.6272156  )
        39           Si  tau(  39) = (   0.5070533   0.4970068   0.5072757  )
        40           Si  tau(  40) = (   0.6315297   0.6273621   0.6268905  )
        41           Si  tau(  41) = (   0.8816176   0.6264480   0.3774709  )
        42           Si  tau(  42) = (   0.8780321   0.3715549   0.6348778  )
        43           Si  tau(  43) = (   0.1225884   0.8753141   0.3745473  )
        44           Si  tau(  44) = (   0.2480031   0.7479622   0.5056443  )
        45           Si  tau(  45) = (   0.6286892   0.8746634   0.3744481  )
        46           Si  tau(  46) = (   0.3766127   0.8764148   0.6268263  )
        47           Si  tau(  47) = (   0.7539143   0.7447055   0.5030302  )
        48           Si  tau(  48) = (   0.8858144   0.8703461   0.6270123  )
        49           Si  tau(  49) = (  -0.0037732   0.2485805   0.7542794  )
        50           Si  tau(  50) = (   0.2484694  -0.0020534   0.7586467  )
        51           Si  tau(  51) = (   0.3739888   0.1256118   0.8796753  )
        52           Si  tau(  52) = (   0.5004542   0.2450351   0.7586935  )
        53           Si  tau(  53) = (   0.7605283  -0.0023290   0.7612546  )
        54           Si  tau(  54) = (   0.8812575   0.1263221   0.8867269  )
        55           Si  tau(  55) = (   0.1232355   0.3724562   0.8873888  )
        56           Si  tau(  56) = (   0.2508382   0.4948961   0.7606918  )
        57           Si  tau(  57) = (   0.6264549   0.3702016   0.8812732  )
        58           Si  tau(  58) = (   0.3788310   0.6216079   0.8870714  )
        59           Si  tau(  59) = (   0.7596351   0.4966630   0.7601334  )
        60           Si  tau(  60) = (   0.8776915   0.6222405   0.8867775  )
        61           Si  tau(  61) = (   0.0044758   0.7502550   0.7567409  )
        62           Si  tau(  62) = (   0.1285832   0.8689831   0.8825121  )
        63           Si  tau(  63) = (   0.5013060   0.7499953   0.7523803  )
        64           Si  tau(  64) = (   0.6335995   0.8715174   0.8861918  )

     number of k points=     1  Fermi-Dirac smearing, width (Ry)=  0.0100
                       cart. coord. in units 2pi/alat
        k(    1) = (   0.0000000   0.0000000   0.0000000), wk =   2.0000000

     Dense  grid:    95783 G-vectors     FFT dimensions: (  72,  75,  72)

     Estimated max dynamical RAM per process >     153.38 MB

     Estimated total dynamical RAM >     590.15 MB

     Initial potential from superposition of free atoms

     starting charge     255.9608, renormalised to     256.0000
     Starting wfcs are  256 randomized atomic wfcs

     total cpu time spent up to now is        4.4 secs

     Self-consistent Calculation

     iteration #  1     ecut=    30.00 Ry     beta= 0.50
     Davidson diagonalization with overlap
     ethr =  1.00E-02,  avg # of iterations =  3.0

     Threshold (ethr) on eigenvalues was too large:
     Diagonalizing with lowered threshold

     Davidson diagonalization with overlap
     ethr =  6.89E-04,  avg # of iterations =  4.0

     total cpu time spent up to now is        4.6 secs

     total energy              =    -503.80484850 Ry
     estimated scf accuracy    <       1.94887566 Ry

     iteration #  2     ecut=    30.00 Ry     beta= 0.50
     Davidson diagonalization with overlap
     ethr =  7.61E-04,  avg # of iterations =  1.0

     total cpu time spent up to now is        4.7 secs

     total energy              =    -503.79038598 Ry
     estimated scf accuracy    <       0.35403436 Ry

     iteration #  3     ecut=    30.00 Ry     beta= 0.50
     Davidson diagonalization with overlap
     ethr =  1.38E-04,  avg # of iterations =  4.0

     total cpu time spent up to now is        4.8 secs

     total energy              =    -503.81057175 Ry
     estimated scf accuracy    <       0.03181583 Ry

     iteration #  4     ecut=    30.00 Ry     beta= 0.50
     Davidson diagonalization with overlap
     c_bands:  4 eigenvalues not converged
     ethr =  1.24E-05,  avg # of iterations = 20.0

     total cpu time spent up to now is        5.0 secs

     total energy              =    -503.81754062 Ry
     estimated scf accuracy    <       0.01088094 Ry

     iteration #  5     ecut=    30.00 Ry     beta= 0.50
     Davidson diagonalization with overlap
     c_bands:  2 eigenvalues not converged
     ethr =  4.25E-06,  avg # of iterations = 20.0

     total cpu time spent up to now is        5.2 secs

     total energy              =    -503.81929767 Ry
     estimated scf accuracy    <       0.00205022 Ry

     iteration #  6     ecut=    30.00 Ry     beta= 0.50
     Davidson diagonalization with overlap
     ethr =  8.01E-07,  avg # of iterations =  8.0

     total cpu time spent up to now is        5.3 secs

     total energy              =    -503.81955728 Ry
     estimated scf accuracy    <       0.00037018 Ry

     iteration #  7     ecut=    30.00 Ry     beta= 0.50
     Davidson diagonalization with overlap
     ethr =  1.45E-07,  avg # of iterations =  5.0

     total cpu time spent up to now is        5.4 secs

     total energy              =    -503.81961570 Ry
     estimated scf accuracy    <       0.00002527 Ry

     iteration #  8     ecut=    30.00 Ry     beta= 0.50
     Davidson diagonalization with overlap
     ethr =  9.87E-09,  avg # of iterations =  5.0

     total cpu time spent up to now is        5.5 secs

     total energy              =    -503.81962255 Ry
     estimated scf accuracy    <       0.00002479 Ry

     iteration #  9     ecut=    30.00 Ry     beta= 0.50
     Davidson diagonalization with overlap
     ethr =  9.68E-09,  avg # of iterations =  3.0

     total cpu time spent up to now is        5.6 secs

     total energy              =    -503.81962487 Ry
     estimated scf accuracy    <       0.00000242 Ry

     iteration # 10     ecut=    30.00 Ry     beta= 0.50
     Davidson diagonalization with overlap
     ethr =  9.45E-10,  avg # of iterations =  5.0

     total cpu time spent up to now is        5.7 secs

     End of self-consistent calculation

          k = 0.0000 0.0000 0.0000 ( 11957 PWs)   bands (ev):

    -5.7506  -4.7660  -4.6992  -4.6785  -4.6662  -4.5842  -4.5402  -3.8638
    -3.8510  -3.7842  -3.7536  -3.7158  -3.6976  -3.6831  -3.6212  -3.6041
    -3.5871  -3.5542  -3.4822  -3.4283  -3.3718  -3.3168  -3.1427  -1.7487
    -1.6466  -1.6336  -1.6006  -1.5862  -1.5526  -1.5029  -1.4763  -1.4526
    -1.4269  -1.3968  -1.3712  -1.3633  -1.3317  -1.2929  -1.2690  -1.2551
    -1.1473  -0.8091  -0.7140  -0.6837  -0.6131   0.6523   0.6708   0.6971
     0.7230   0.7478   0.7817   0.7957   0.8147   0.8376   0.8517   0.8789
     0.9261   2.2603   2.2746   2.2893   2.3088   2.3163   2.3277   2.3355
     2.3575   2.3743   2.3955   2.4095   2.4286   2.4564   2.4694   2.4902
     2.4947   2.5121   2.5414   2.5503   2.5837   2.5941   2.6137   2.6331
     2.6447   2.7107   2.7537   2.8082   2.8359   2.8987   2.9024   3.3298
     3.3654   3.4232   3.4286   3.4659   3.4767   4.2316   4.2693   4.3026
     4.3226   4.3425   4.3755   4.3836   4.4058   4.4331   4.4648   4.4859
     4.6037   4.7110   4.8068   4.8648   4.8687   4.8981   4.9084   4.9250
     4.9653   4.9816   4.9960   5.0001   5.0288   5.0587   5.0744   5.0899
     5.1147   5.1292   5.1460   5.2012   5.6006   6.2026   6.2700   6.4484
     6.7802   6.8536   6.9264   6.9530   7.0103   7.0559   7.2532   7.3326
     7.3937   7.4086   7.4289   7.5245   7.7416   7.7552   7.7653   7.8139
     8.4909   8.5666   8.5882   8.6027   8.6452   8.6551   8.6696   8.7049
     8.7101   8.7373

     the Fermi energy is     6.5631 ev

!    total energy              =    -503.81962547 Ry
     estimated scf accuracy    <       0.00000031 Ry
     smearing contrib. (-TS)   =      -0.05662494 Ry
     internal energy E=F+TS    =    -503.76300053 Ry

     The total energy is F=E-TS. E is the sum of the following terms:
     one-electron contribution =     150.91920141 Ry
     hartree contribution      =      36.55938160 Ry
     xc contribution           =    -154.42224033 Ry
     ewald contribution        =    -536.81934321 Ry

     convergence has been achieved in  10 iterations

     Forces acting on atoms (cartesian axes, Ry/au):

     atom    1 type  1   force =     0.04317993   -0.04730487    0.02969985
     atom    2 type  1   force =     0.03974232   -0.00230807    0.00221920
     atom    3 type  1   force =    -0.01614101   -0.04308570   -0.02838408
     atom    4 type  1   force =    -0.00868839   -0.01679615    0.02945044
     atom    5 type  1   force =     0.01736055   -0.01326818   -0.00896654
     atom    6 type  1   force =     0.00579964   -0.01710604    0.00933833
     atom    7 type  1   force =    -0.01437857   -0.03777755   -0.00446217
     atom    8 type  1   force =    -0.03097468    0.02233812   -0.03529681
     atom    9 type  1   force =     0.03707684   -0.05940581    0.02770172
     atom   10 type  1   force =    -0.05093215   -0.02962533   -0.02743727
     atom   11 type  1   force =    -0.00073019    0.00649735    0.01341946
     atom   12 type  1   force =     0.00506220   -0.02069420   -0.01832979
     atom   13 type  1   force =     0.02748570    0.01399123   -0.02870909
     atom   14 type  1   force =    -0.01973787   -0.00212976    0.00919246
     atom   15 type  1   force =     0.01477769    0.01547569    0.00370644
     atom   16 type  1   force =    -0.00682397   -0.01564714    0.00756162
     atom   17 type  1   force =    -0.00037450    0.04243716    0.01721856
     atom   18 type  1   force =     0.01313110    0.01417111    0.01559412
     atom   19 type  1   force =     0.01281661    0.01500665    0.01006325
     atom   20 type  1   force =    -0.00481467   -0.00973768    0.03416433
     atom   21 type  1   force =    -0.03109582    0.05813336   -0.01704635
     atom   22 type  1   force =     0.01512920   -0.01481420    0.01076284
     atom   23 type  1   force =     0.01777800    0.01641807    0.00280233
     atom   24 type  1   force =    -0.04611852    0.05275450   -0.02388398
     atom   25 type  1   force =     0.00145054   -0.01937535   -0.03216953
     atom   26 type  1   force =     0.00378481   -0.01179353    0.00442982
     atom   27 type  1   force =     0.00137305    0.00095403    0.00690134
     atom   28 type  1   force =     0.00535162    0.03052905   -0.00728170
     atom   29 type  1   force =     0.02175489   -0.03646626    0.01162966
     atom   30 type  1   force =     0.01510887   -0.01832799   -0.00106095
     atom   31 type  1   force =    -0.02080856   -0.03807081    0.01707984
     atom   32 type  1   force =    -0.00749885   -0.01849248    0.02617892
     atom   33 type  1   force =     0.00171876   -0.01209530    0.00033356
     atom   34 type  1   force =    -0.00408876    0.01908031   -0.00110047
     atom   35 type  1   force =     0.00558486   -0.01532254   -0.00857690
     atom   36 type  1   force =    -0.01159050    0.02821495    0.00045624
     atom   37 type  1   force =    -0.00101492    0.01202179    0.03831346
     atom   38 type  1   force =     0.00227672   -0.01728384    0.02296125
     atom   39 type  1   force =    -0.00061229    0.01139566   -0.02611448
     atom   40 type  1   force =    -0.00631501   -0.03172436    0.03882445
     atom   41 type  1   force =    -0.01930355   -0.04057100    0.00354909
     atom   42 type  1   force =    -0.01018167    0.01279569   -0.03421833
     atom   43 type  1   force =     0.02534805    0.02919137    0.02153187
     atom   44 type  1   force =     0.01405258    0.00792725   -0.02093514
     atom   45 type  1   force =     0.00671158    0.03503773    0.01509166
     atom   46 type  1   force =    -0.01041026    0.03091957    0.01055605
     atom   47 type  1   force =     0.01113615    0.04524618   -0.01626403
     atom   48 type  1   force =    -0.03796793    0.04330308    0.01188306
     atom   49 type  1   force =     0.04726649   -0.01257103    0.02378203
     atom   50 type  1   force =     0.00840620   -0.03864421   -0.01302753
     atom   51 type  1   force =     0.00671158   -0.03038684    0.02126845
     atom   52 type  1   force =     0.00340932    0.01897308   -0.03299708
     atom   53 type  1   force =    -0.01857380   -0.03821206   -0.02201608
     atom   54 type  1   force =    -0.02204751   -0.00580223   -0.01724143
     atom   55 type  1   force =     0.00443692   -0.00925085   -0.03391702
     atom   56 type  1   force =     0.00605146    0.01351013   -0.00185994
     atom   57 type  1   force =     0.02013970   -0.00034334    0.00863335
     atom   58 type  1   force =    -0.00021321    0.00378166   -0.03289102
     atom   59 type  1   force =    -0.04456017    0.01620878   -0.01120619
     atom   60 type  1   force =     0.01150016    0.01830827   -0.01119973
     atom   61 type  1   force =    -0.01291080   -0.01907651    0.01303683
     atom   62 type  1   force =    -0.00609180    0.06500118    0.00171387
     atom   63 type  1   force =     0.01107147    0.00481748    0.02241192
     atom   64 type  1   force =    -0.01898562    0.03907072   -0.02686803

     Total force =     0.318499     Total SCF correction =     0.000939


     Computing stress (Cartesian axis) and pressure

          total   stress  (Ry/bohr**3)                   (kbar)     P=       34.77
   0.00027058  -0.00000705   0.00005888           39.80       -1.04        8.66
  -0.00000705   0.00019936  -0.00003078           -1.04       29.33       -4.53
   0.00005888  -0.00003078   0.00023924            8.66       -4.53       35.19

 
     init_run     :      0.98s CPU      4.38s WALL (       1 calls)
     electrons    :      1.23s CPU      1.30s WALL (       1 calls)
     forces       :      0.03s CPU      0.04s WALL (       1 calls)
     stress       :      0.15s CPU      0.15s WALL (       1 calls)

     Called by init_run:
     wfcinit      :      0.42s CPU      3.68s WALL (       1 calls)
                                        3.68s GPU  (       1 calls)
     potinit      :      0.15s CPU      0.22s WALL (       1 calls)
     hinit0       :      0.39s CPU      0.41s WALL (       1 calls)

     Called by electrons:
     c_bands      :      0.89s CPU      0.93s WALL (      11 calls)
     sum_band     :      0.18s CPU      0.20s WALL (      11 calls)
     v_of_rho     :      0.09s CPU      0.16s WALL (      11 calls)
     mix_rho      :      0.06s CPU      0.07s WALL (      11 calls)

     Called by c_bands:
     init_us_2    :      0.03s CPU      0.03s WALL (      23 calls)
     init_us_2:gp :      0.03s CPU      0.03s WALL (      23 calls)
     regterg      :      0.81s CPU      0.84s WALL (      11 calls)

     Called by *egterg:
     rdiaghg      :      0.39s CPU      1.01s WALL (      88 calls)
                                        0.99s GPU  (      88 calls)
     h_psi        :      0.71s CPU      3.37s WALL (      90 calls)
                                        3.37s GPU  (      90 calls)
     g_psi        :      0.00s CPU      0.00s WALL (      78 calls)
                                        0.00s GPU  (      78 calls)

     Called by h_psi:
     h_psi:calbec :      0.39s CPU      2.99s WALL (      90 calls)
                                        2.99s GPU  (      90 calls)
     vloc_psi     :      0.28s CPU      0.33s WALL (      90 calls)
                                        0.32s GPU  (      90 calls)
     add_vuspsi   :      0.03s CPU      0.05s WALL (      90 calls)
                                        0.04s GPU  (      90 calls)

     General routines
     calbec       :      0.39s CPU      3.00s WALL (      95 calls)
     fft          :      0.41s CPU      0.51s WALL (      95 calls)
                                        0.10s GPU  (      61 calls)
     ffts         :      0.02s CPU      0.02s WALL (      11 calls)
     fftw         :      0.31s CPU      0.42s WALL (    1251 calls)
                                        0.37s GPU  (    1251 calls)
 
     Parallel routines
 
     PWSCF        :      2.43s CPU      5.94s WALL

 
   This run was terminated on:  11:10:45  10May2023            

=------------------------------------------------------------------------------=
   JOB DONE.
=------------------------------------------------------------------------------=
