An instance of this daemon is already running

     Program PWSCF v.7.1 starts on 10May2023 at 11:10: 6 

     This program is part of the open-source Quantum ESPRESSO suite
     for quantum simulation of materials; please cite
         "P. Giannozzi et al., J. Phys.:Condens. Matter 21 395502 (2009);
         "P. Giannozzi et al., J. Phys.:Condens. Matter 29 465901 (2017);
         "P. Giannozzi et al., J. Chem. Phys. 152 154105 (2020);
          URL http://www.quantum-espresso.org", 
     in publications or presentations arising from this work. More details at
     http://www.quantum-espresso.org/quote

     Parallel version (MPI & OpenMP), running on       4 processor cores
     Number of MPI processes:                 4
     Threads/MPI process:                     1

     MPI processes distributed on     1 nodes
     150753 MiB available memory on the printing compute node when the environment starts
 
     Reading input from pw-si-0.in
Warning: card &CELL ignored
Warning: card / ignored

     Current dimensions of program PWSCF are:
     Max number of different atomic species (ntypx) = 10
     Max number of k-points (npk) =  40000
     Max angular momentum in pseudopotentials (lmaxx) =  4

     IMPORTANT: XC functional enforced from input :
     Exchange-correlation= PBE
                           (   1   4   3   4   0   0   0)
     Any further DFT definition will be discarded
     Please, verify this is what you really want


     gamma-point specific algorithms are used
 
     K-points division:     npool     =       2
     R & G space division:  proc/nbgrp/npool/nimage =       2
     Subspace diagonalization in iterative solution of the eigenvalue problem:
     a serial algorithm will be used

     Message from routine divide_et_impera:
     suboptimal parallelization: some nodes have no k-points
 
     Parallelization info
     --------------------
     sticks:   dense  smooth     PW     G-vecs:    dense   smooth      PW
     Min        2070    2070    548                98141    98141   13329
     Max        2071    2071    549                98142    98142   13332
     Sum        4141    4141   1097               196283   196283   26661
 
     Using Slab Decomposition
 


     bravais-lattice index     =            0
     lattice parameter (alat)  =      20.6840  a.u.
     unit-cell volume          =    8838.7723 (a.u.)^3
     number of atoms/cell      =           64
     number of atomic types    =            1
     number of electrons       =       256.00
     number of Kohn-Sham states=          154
     kinetic-energy cutoff     =      30.0000  Ry
     charge density cutoff     =     120.0000  Ry
     scf convergence threshold =      1.0E-06
     mixing beta               =       0.5000
     number of iterations used =            8  plain     mixing
     Exchange-correlation= PBE
                           (   1   4   3   4   0   0   0)

     GPU acceleration is ACTIVE.
     GPU-aware MPI enabled

     Message from routine print_cuda_info:
     High GPU oversubscription detected. Are you sure this is what you want?

     celldm(1)=  20.683965  celldm(2)=   0.000000  celldm(3)=   0.000000
     celldm(4)=   0.000000  celldm(5)=   0.000000  celldm(6)=   0.000000

     crystal axes: (cart. coord. in units of alat)
               a(1) = (   1.000000   0.000000   0.000000 )  
               a(2) = (   0.000000   1.011855   0.000000 )  
               a(3) = (   0.000000   0.000000   0.987125 )  

     reciprocal axes: (cart. coord. in units 2 pi/alat)
               b(1) = (  1.000000  0.000000  0.000000 )  
               b(2) = (  0.000000  0.988284  0.000000 )  
               b(3) = (  0.000000  0.000000  1.013043 )  


     PseudoPot. # 1 for Si read from file:
     /home/ppiaggi/pseudos/Si_ONCV_PBE_sr.upf
     MD5 check sum: 8553c464762ac42b85b1eed164b4d029
     Pseudo is Norm-conserving, Zval =  4.0
     Generated using ONCVPSP code by D. R. Hamann
     Using radial grid of 1510 points,  4 beta functions with: 
                l(1) =   0
                l(2) =   0
                l(3) =   1
                l(4) =   1

     atomic species   valence    mass     pseudopotential
        Si             4.00    28.08500     Si( 1.00)

     No symmetry found



   Cartesian axes

     site n.     atom                  positions (alat units)
         1           Si  tau(   1) = (   0.0039933   0.0008263   0.0017296  )
         2           Si  tau(   2) = (  -0.0041661   0.2510672   0.2447741  )
         3           Si  tau(   3) = (   0.2524389  -0.0023181   0.2469688  )
         4           Si  tau(   4) = (   0.2457667   0.2552424   0.0000670  )
         5           Si  tau(   5) = (   0.1250417   0.1269590   0.1220474  )
         6           Si  tau(   6) = (   0.5041931   0.0001604  -0.0029310  )
         7           Si  tau(   7) = (   0.4977389   0.2544533   0.2443026  )
         8           Si  tau(   8) = (   0.6284751   0.1241179   0.1198525  )
         9           Si  tau(   9) = (   0.7479295   0.0039575   0.2428807  )
        10           Si  tau(  10) = (   0.7454801   0.2492352   0.0025014  )
        11           Si  tau(  11) = (   0.0028023   0.5091515  -0.0027008  )
        12           Si  tau(  12) = (   0.2462499   0.5093761   0.2507812  )
        13           Si  tau(  13) = (   0.1283267   0.6351746   0.1196615  )
        14           Si  tau(  14) = (   0.3780542   0.3793070   0.1192310  )
        15           Si  tau(  15) = (   0.5014552   0.5058447  -0.0030441  )
        16           Si  tau(  16) = (   0.6209175   0.6321070   0.1275710  )
        17           Si  tau(  17) = (   0.8773146   0.3765526   0.1216434  )
        18           Si  tau(  18) = (   0.7509159   0.5102630   0.2479555  )
        19           Si  tau(  19) = (   0.0027947   0.7606943   0.2467215  )
        20           Si  tau(  20) = (   0.2458285   0.7603936  -0.0018695  )
        21           Si  tau(  21) = (   0.3720027   0.8845693   0.1203195  )
        22           Si  tau(  22) = (   0.4965157   0.7565667   0.2429196  )
        23           Si  tau(  23) = (   0.7488154   0.7547471  -0.0016686  )
        24           Si  tau(  24) = (   0.8775336   0.8877185   0.1253389  )
        25           Si  tau(  25) = (   0.0041049  -0.0013984   0.4915530  )
        26           Si  tau(  26) = (   0.2520465   0.2522973   0.4943670  )
        27           Si  tau(  27) = (   0.1252018   0.1266447   0.6164633  )
        28           Si  tau(  28) = (   0.3712020   0.1246502   0.3661425  )
        29           Si  tau(  29) = (   0.4991717   0.0002505   0.4945326  )
        30           Si  tau(  30) = (   0.6242184   0.1230653   0.6142048  )
        31           Si  tau(  31) = (   0.8778986   0.1291268   0.3719233  )
        32           Si  tau(  32) = (   0.7491309   0.2568020   0.4914780  )
        33           Si  tau(  33) = (   0.1291543   0.3753069   0.3669296  )
        34           Si  tau(  34) = (   0.0029371   0.5028683   0.4958676  )
        35           Si  tau(  35) = (   0.1237732   0.6327952   0.6137762  )
        36           Si  tau(  36) = (   0.6247274   0.3770362   0.3715569  )
        37           Si  tau(  37) = (   0.3760971   0.6283702   0.3707013  )
        38           Si  tau(  38) = (   0.3770373   0.3836735   0.6131016  )
        39           Si  tau(  39) = (   0.5001085   0.5073023   0.4949905  )
        40           Si  tau(  40) = (   0.6258024   0.6353568   0.6130326  )
        41           Si  tau(  41) = (   0.8760778   0.6289299   0.3671197  )
        42           Si  tau(  42) = (   0.8789982   0.3829580   0.6200601  )
        43           Si  tau(  43) = (   0.1266657   0.8808982   0.3667824  )
        44           Si  tau(  44) = (   0.2510656   0.7603239   0.4964956  )
        45           Si  tau(  45) = (   0.6253072   0.8844600   0.3722580  )
        46           Si  tau(  46) = (   0.3708961   0.8863213   0.6166534  )
        47           Si  tau(  47) = (   0.7487264   0.7615986   0.4916265  )
        48           Si  tau(  48) = (   0.8752377   0.8846828   0.6134541  )
        49           Si  tau(  49) = (  -0.0034440   0.2485818   0.7416622  )
        50           Si  tau(  50) = (   0.2474345   0.0012363   0.7393101  )
        51           Si  tau(  51) = (   0.3712746   0.1236557   0.8654682  )
        52           Si  tau(  52) = (   0.5016543   0.2520825   0.7411281  )
        53           Si  tau(  53) = (   0.7491607  -0.0041285   0.7429327  )
        54           Si  tau(  54) = (   0.8785175   0.1232989   0.8593177  )
        55           Si  tau(  55) = (   0.1263045   0.3840159   0.8612771  )
        56           Si  tau(  56) = (   0.2461786   0.5026722   0.7364940  )
        57           Si  tau(  57) = (   0.6240929   0.3755343   0.8642929  )
        58           Si  tau(  58) = (   0.3742800   0.6337809   0.8660657  )
        59           Si  tau(  59) = (   0.7542021   0.5030562   0.7368437  )
        60           Si  tau(  60) = (   0.8738621   0.6287641   0.8612209  )
        61           Si  tau(  61) = (  -0.0010105   0.7611253   0.7441782  )
        62           Si  tau(  62) = (   0.1238741   0.8870154   0.8597090  )
        63           Si  tau(  63) = (   0.4970050   0.7608185   0.7433812  )
        64           Si  tau(  64) = (   0.6215424   0.8859914   0.8663044  )

     number of k points=     1  Fermi-Dirac smearing, width (Ry)=  0.0100
                       cart. coord. in units 2pi/alat
        k(    1) = (   0.0000000   0.0000000   0.0000000), wk =   2.0000000

     Dense  grid:    98142 G-vectors     FFT dimensions: (  75,  75,  72)

     Estimated max dynamical RAM per process >     157.27 MB

     Estimated total dynamical RAM >     605.10 MB

     Initial potential from superposition of free atoms

     starting charge     255.9608, renormalised to     256.0000
     Starting wfcs are  256 randomized atomic wfcs

     total cpu time spent up to now is        4.0 secs

     Self-consistent Calculation

     iteration #  1     ecut=    30.00 Ry     beta= 0.50
     Davidson diagonalization with overlap
     ethr =  1.00E-02,  avg # of iterations =  3.0

     Threshold (ethr) on eigenvalues was too large:
     Diagonalizing with lowered threshold

     Davidson diagonalization with overlap
     ethr =  6.62E-04,  avg # of iterations =  3.0

     total cpu time spent up to now is        4.2 secs

     total energy              =    -503.90410878 Ry
     estimated scf accuracy    <       1.87349994 Ry

     iteration #  2     ecut=    30.00 Ry     beta= 0.50
     Davidson diagonalization with overlap
     ethr =  7.32E-04,  avg # of iterations =  1.0

     total cpu time spent up to now is        4.3 secs

     total energy              =    -503.88735527 Ry
     estimated scf accuracy    <       0.34747388 Ry

     iteration #  3     ecut=    30.00 Ry     beta= 0.50
     Davidson diagonalization with overlap
     ethr =  1.36E-04,  avg # of iterations = 15.0

     total cpu time spent up to now is        4.5 secs

     total energy              =    -503.91065461 Ry
     estimated scf accuracy    <       0.00701702 Ry

     iteration #  4     ecut=    30.00 Ry     beta= 0.50
     Davidson diagonalization with overlap
     ethr =  2.74E-06,  avg # of iterations = 20.0

     total cpu time spent up to now is        4.7 secs

     total energy              =    -503.91281368 Ry
     estimated scf accuracy    <       0.00395827 Ry

     iteration #  5     ecut=    30.00 Ry     beta= 0.50
     Davidson diagonalization with overlap
     ethr =  1.55E-06,  avg # of iterations =  6.0

     total cpu time spent up to now is        4.9 secs

     total energy              =    -503.91361870 Ry
     estimated scf accuracy    <       0.00164233 Ry

     iteration #  6     ecut=    30.00 Ry     beta= 0.50
     Davidson diagonalization with overlap
     ethr =  6.42E-07,  avg # of iterations =  3.0

     total cpu time spent up to now is        5.0 secs

     total energy              =    -503.91379574 Ry
     estimated scf accuracy    <       0.00016553 Ry

     iteration #  7     ecut=    30.00 Ry     beta= 0.50
     Davidson diagonalization with overlap
     ethr =  6.47E-08,  avg # of iterations =  4.0

     total cpu time spent up to now is        5.1 secs

     total energy              =    -503.91382770 Ry
     estimated scf accuracy    <       0.00000618 Ry

     iteration #  8     ecut=    30.00 Ry     beta= 0.50
     Davidson diagonalization with overlap
     ethr =  2.41E-09,  avg # of iterations =  4.0

     total cpu time spent up to now is        5.2 secs

     total energy              =    -503.91383007 Ry
     estimated scf accuracy    <       0.00000444 Ry

     iteration #  9     ecut=    30.00 Ry     beta= 0.50
     Davidson diagonalization with overlap
     ethr =  1.73E-09,  avg # of iterations =  3.0

     total cpu time spent up to now is        5.3 secs

     End of self-consistent calculation

          k = 0.0000 0.0000 0.0000 ( 12266 PWs)   bands (ev):

    -5.7950  -4.7868  -4.7751  -4.7529  -4.7174  -4.7015  -4.6815  -3.8971
    -3.8614  -3.8363  -3.8309  -3.8271  -3.8120  -3.7824  -3.7586  -3.7547
    -3.7319  -3.7272  -3.7003  -3.5399  -3.5229  -3.4753  -3.4657  -1.8303
    -1.8054  -1.7833  -1.7490  -1.7289  -1.6915  -1.6560  -1.6251  -1.6064
    -1.6015  -1.5725  -1.5634  -1.5468  -1.5288  -1.5166  -1.5051  -1.4626
    -1.4211  -0.8724  -0.8517  -0.8256  -0.7645   0.4380   0.4681   0.5181
     0.5305   0.5432   0.5683   0.6100   0.6285   0.6520   0.6868   0.6877
     0.7097   2.1945   2.2014   2.2199   2.2242   2.2276   2.2326   2.2382
     2.2459   2.2551   2.2586   2.2750   2.2818   2.2913   2.2945   2.3101
     2.3350   2.3539   2.3585   2.3708   2.3891   2.4087   2.4237   2.4494
     2.4607   2.4712   2.4784   2.5174   2.5511   2.6016   2.6063   3.1352
     3.1656   3.2304   3.2631   3.3248   3.3469   4.0603   4.0755   4.0916
     4.1091   4.1509   4.1562   4.2070   4.2150   4.2441   4.2587   4.2852
     4.3093   4.5773   4.5970   4.6393   4.6485   4.6611   4.6926   4.7056
     4.7349   4.7575   4.7685   4.7997   4.8156   4.8411   4.8565   4.8787
     4.8987   4.9341   4.9782   4.9976   5.0400   5.9444   6.0551   6.1617
     6.6265   6.6735   6.7338   6.7721   6.8347   6.8617   7.0584   7.0612
     7.1426   7.1780   7.2446   7.2697   7.4339   7.4509   7.4587   7.4601
     8.2639   8.2843   8.3233   8.3271   8.3955   8.4124   8.4315   8.4480
     8.4984   8.5406

     the Fermi energy is     6.3461 ev

!    total energy              =    -503.91383018 Ry
     estimated scf accuracy    <       0.00000086 Ry
     smearing contrib. (-TS)   =      -0.04859045 Ry
     internal energy E=F+TS    =    -503.86523973 Ry

     The total energy is F=E-TS. E is the sum of the following terms:
     one-electron contribution =     146.51167945 Ry
     hartree contribution      =      36.59259746 Ry
     xc contribution           =    -153.63338981 Ry
     ewald contribution        =    -533.33612683 Ry

     convergence has been achieved in   9 iterations

     Forces acting on atoms (cartesian axes, Ry/au):

     atom    1 type  1   force =    -0.01351321   -0.00575352   -0.01512264
     atom    2 type  1   force =     0.02990306    0.00469941    0.00580415
     atom    3 type  1   force =    -0.02354054    0.00164166   -0.01674470
     atom    4 type  1   force =     0.01735892   -0.00080886   -0.00510817
     atom    5 type  1   force =     0.00529662   -0.00096752    0.01804070
     atom    6 type  1   force =    -0.03518017    0.00362881    0.02122570
     atom    7 type  1   force =     0.01415967   -0.01852110    0.00150369
     atom    8 type  1   force =    -0.04043514    0.01128149    0.01931316
     atom    9 type  1   force =     0.02065948   -0.02037446    0.03667876
     atom   10 type  1   force =     0.04348753    0.01426566   -0.03033143
     atom   11 type  1   force =    -0.00919190   -0.01274914    0.01105747
     atom   12 type  1   force =     0.02349997   -0.01763350   -0.03372416
     atom   13 type  1   force =    -0.02067616   -0.00748295    0.02128203
     atom   14 type  1   force =    -0.02705299    0.01646301    0.01382775
     atom   15 type  1   force =    -0.00001352    0.00352650    0.00904216
     atom   16 type  1   force =     0.02023964   -0.00652956   -0.02885122
     atom   17 type  1   force =    -0.01935263    0.02556179   -0.00643601
     atom   18 type  1   force =    -0.01057112   -0.03988034   -0.01343834
     atom   19 type  1   force =    -0.01557009   -0.02200139   -0.01202859
     atom   20 type  1   force =     0.01729933    0.00785749   -0.01222541
     atom   21 type  1   force =     0.01945865    0.00587385   -0.00489939
     atom   22 type  1   force =    -0.00279565    0.01838184    0.02817106
     atom   23 type  1   force =     0.00190968    0.01437016    0.01929493
     atom   24 type  1   force =    -0.01397875   -0.01138647   -0.01613001
     atom   25 type  1   force =    -0.00732177    0.00038773   -0.00205065
     atom   26 type  1   force =     0.00121697    0.00054658   -0.00745247
     atom   27 type  1   force =    -0.00400178    0.00487898   -0.00158172
     atom   28 type  1   force =     0.02622266    0.00936990    0.01923509
     atom   29 type  1   force =    -0.01265398   -0.00661843   -0.01600564
     atom   30 type  1   force =     0.01605080    0.01739519    0.01724729
     atom   31 type  1   force =    -0.02139672   -0.01608325   -0.00467178
     atom   32 type  1   force =     0.01761512   -0.01685480    0.02722468
     atom   33 type  1   force =    -0.02732161    0.00145496    0.01249464
     atom   34 type  1   force =     0.00024009    0.00433111   -0.03031711
     atom   35 type  1   force =    -0.00084368    0.00940664    0.02303954
     atom   36 type  1   force =    -0.00722630    0.02421133   -0.01855000
     atom   37 type  1   force =    -0.00773162    0.02603042    0.00530387
     atom   38 type  1   force =    -0.00350842   -0.02786174    0.02416761
     atom   39 type  1   force =     0.01696403   -0.00209599   -0.01543782
     atom   40 type  1   force =    -0.00187133   -0.00430786    0.02837775
     atom   41 type  1   force =     0.01368599    0.02283594    0.02670977
     atom   42 type  1   force =    -0.00773061   -0.03544814   -0.02163783
     atom   43 type  1   force =     0.01098963    0.01828976    0.01923742
     atom   44 type  1   force =    -0.00220080   -0.01838190   -0.02362849
     atom   45 type  1   force =    -0.01655130    0.01218039   -0.03262350
     atom   46 type  1   force =     0.02041439    0.00650643    0.01149093
     atom   47 type  1   force =     0.02156020   -0.02094076   -0.00639801
     atom   48 type  1   force =     0.00328025    0.00467823    0.01556910
     atom   49 type  1   force =     0.02897057    0.03117279   -0.01110557
     atom   50 type  1   force =     0.00600521   -0.00174338   -0.00064257
     atom   51 type  1   force =     0.01198708    0.01830710   -0.00563187
     atom   52 type  1   force =    -0.02270551   -0.00787378   -0.01285487
     atom   53 type  1   force =     0.00107877    0.00719408   -0.02212618
     atom   54 type  1   force =    -0.03076226   -0.00657008    0.03885096
     atom   55 type  1   force =    -0.02135185   -0.03347080    0.00310311
     atom   56 type  1   force =     0.02691421    0.03218941    0.00011447
     atom   57 type  1   force =     0.01650047    0.01523131   -0.00935322
     atom   58 type  1   force =    -0.01334865   -0.01559468   -0.01716658
     atom   59 type  1   force =    -0.03845437    0.01365747    0.01374052
     atom   60 type  1   force =     0.00263420    0.01393144    0.00706962
     atom   61 type  1   force =    -0.00791148   -0.01749686   -0.03065075
     atom   62 type  1   force =     0.00208432    0.00154279    0.01892583
     atom   63 type  1   force =     0.00480169   -0.00521717   -0.01824899
     atom   64 type  1   force =     0.02427671   -0.02263323   -0.01396806

     Total force =     0.248400     Total SCF correction =     0.001773


     Computing stress (Cartesian axis) and pressure

          total   stress  (Ry/bohr**3)                   (kbar)     P=       10.26
   0.00007299   0.00003118   0.00001565           10.74        4.59        2.30
   0.00003118   0.00000810  -0.00001814            4.59        1.19       -2.67
   0.00001565  -0.00001814   0.00012808            2.30       -2.67       18.84

 
     init_run     :      0.88s CPU      3.96s WALL (       1 calls)
     electrons    :      1.20s CPU      1.26s WALL (       1 calls)
     forces       :      0.03s CPU      0.04s WALL (       1 calls)
     stress       :      0.15s CPU      0.15s WALL (       1 calls)

     Called by init_run:
     wfcinit      :      0.44s CPU      3.39s WALL (       1 calls)
                                        3.39s GPU  (       1 calls)
     potinit      :      0.15s CPU      0.23s WALL (       1 calls)
     hinit0       :      0.27s CPU      0.29s WALL (       1 calls)

     Called by electrons:
     c_bands      :      0.86s CPU      0.90s WALL (      10 calls)
     sum_band     :      0.19s CPU      0.20s WALL (      10 calls)
     v_of_rho     :      0.09s CPU      0.16s WALL (      10 calls)
     mix_rho      :      0.06s CPU      0.06s WALL (      10 calls)

     Called by c_bands:
     init_us_2    :      0.03s CPU      0.03s WALL (      21 calls)
     init_us_2:gp :      0.03s CPU      0.03s WALL (      21 calls)
     regterg      :      0.78s CPU      0.81s WALL (      10 calls)

     Called by *egterg:
     rdiaghg      :      0.34s CPU      0.93s WALL (      71 calls)
                                        0.92s GPU  (      71 calls)
     h_psi        :      0.74s CPU      3.12s WALL (      73 calls)
                                        3.12s GPU  (      73 calls)
     g_psi        :      0.00s CPU      0.00s WALL (      62 calls)
                                        0.00s GPU  (      62 calls)

     Called by h_psi:
     h_psi:calbec :      0.38s CPU      2.71s WALL (      73 calls)
                                        2.71s GPU  (      73 calls)
     vloc_psi     :      0.32s CPU      0.37s WALL (      73 calls)
                                        0.37s GPU  (      73 calls)
     add_vuspsi   :      0.03s CPU      0.04s WALL (      73 calls)
                                        0.04s GPU  (      73 calls)

     General routines
     calbec       :      0.39s CPU      2.71s WALL (      78 calls)
     fft          :      0.29s CPU      0.38s WALL (      87 calls)
                                        0.10s GPU  (      56 calls)
     ffts         :      0.02s CPU      0.02s WALL (      10 calls)
     fftw         :      0.35s CPU      0.46s WALL (    1130 calls)
                                        0.42s GPU  (    1130 calls)
 
     Parallel routines
 
     PWSCF        :      2.30s CPU      5.49s WALL

 
   This run was terminated on:  11:10:11  10May2023            

=------------------------------------------------------------------------------=
   JOB DONE.
=------------------------------------------------------------------------------=
