An instance of this daemon is already running
An instance of this daemon is already running

     Program PWSCF v.7.1 starts on 10May2023 at 11:14: 8 

     This program is part of the open-source Quantum ESPRESSO suite
     for quantum simulation of materials; please cite
         "P. Giannozzi et al., J. Phys.:Condens. Matter 21 395502 (2009);
         "P. Giannozzi et al., J. Phys.:Condens. Matter 29 465901 (2017);
         "P. Giannozzi et al., J. Chem. Phys. 152 154105 (2020);
          URL http://www.quantum-espresso.org", 
     in publications or presentations arising from this work. More details at
     http://www.quantum-espresso.org/quote

     Parallel version (MPI & OpenMP), running on       4 processor cores
     Number of MPI processes:                 4
     Threads/MPI process:                     1

     MPI processes distributed on     1 nodes
     150159 MiB available memory on the printing compute node when the environment starts
 
     Reading input from pw-si-29.in
Warning: card &CELL ignored
Warning: card / ignored

     Current dimensions of program PWSCF are:
     Max number of different atomic species (ntypx) = 10
     Max number of k-points (npk) =  40000
     Max angular momentum in pseudopotentials (lmaxx) =  4

     IMPORTANT: XC functional enforced from input :
     Exchange-correlation= PBE
                           (   1   4   3   4   0   0   0)
     Any further DFT definition will be discarded
     Please, verify this is what you really want


     gamma-point specific algorithms are used
 
     K-points division:     npool     =       2
     R & G space division:  proc/nbgrp/npool/nimage =       2
     Subspace diagonalization in iterative solution of the eigenvalue problem:
     a serial algorithm will be used

     Message from routine divide_et_impera:
     suboptimal parallelization: some nodes have no k-points
 
     Parallelization info
     --------------------
     sticks:   dense  smooth     PW     G-vecs:    dense   smooth      PW
     Min        2053    2053    544                98745    98745   13416
     Max        2054    2054    545                98746    98746   13417
     Sum        4107    4107   1089               197491   197491   26833
 
     Using Slab Decomposition
 


     bravais-lattice index     =            0
     lattice parameter (alat)  =      21.1152  a.u.
     unit-cell volume          =    8894.0866 (a.u.)^3
     number of atoms/cell      =           64
     number of atomic types    =            1
     number of electrons       =       256.00
     number of Kohn-Sham states=          154
     kinetic-energy cutoff     =      30.0000  Ry
     charge density cutoff     =     120.0000  Ry
     scf convergence threshold =      1.0E-06
     mixing beta               =       0.5000
     number of iterations used =            8  plain     mixing
     Exchange-correlation= PBE
                           (   1   4   3   4   0   0   0)

     GPU acceleration is ACTIVE.
     GPU-aware MPI enabled

     Message from routine print_cuda_info:
     High GPU oversubscription detected. Are you sure this is what you want?

     celldm(1)=  21.115222  celldm(2)=   0.000000  celldm(3)=   0.000000
     celldm(4)=   0.000000  celldm(5)=   0.000000  celldm(6)=   0.000000

     crystal axes: (cart. coord. in units of alat)
               a(1) = (   1.000000   0.000000   0.000000 )  
               a(2) = (   0.000000   0.964202   0.000000 )  
               a(3) = (   0.000000   0.000000   0.979820 )  

     reciprocal axes: (cart. coord. in units 2 pi/alat)
               b(1) = (  1.000000  0.000000  0.000000 )  
               b(2) = (  0.000000  1.037127  0.000000 )  
               b(3) = (  0.000000  0.000000  1.020595 )  


     PseudoPot. # 1 for Si read from file:
     /home/ppiaggi/pseudos/Si_ONCV_PBE_sr.upf
     MD5 check sum: 8553c464762ac42b85b1eed164b4d029
     Pseudo is Norm-conserving, Zval =  4.0
     Generated using ONCVPSP code by D. R. Hamann
     Using radial grid of 1510 points,  4 beta functions with: 
                l(1) =   0
                l(2) =   0
                l(3) =   1
                l(4) =   1

     atomic species   valence    mass     pseudopotential
        Si             4.00    28.08500     Si( 1.00)

     No symmetry found



   Cartesian axes

     site n.     atom                  positions (alat units)
         1           Si  tau(   1) = (   0.0008431   0.0005766   0.0010269  )
         2           Si  tau(   2) = (  -0.0029645   0.2378910   0.2460924  )
         3           Si  tau(   3) = (   0.2430021   0.0019345   0.2420923  )
         4           Si  tau(   4) = (   0.2464898   0.2427940  -0.0017282  )
         5           Si  tau(   5) = (   0.1191679   0.1239813   0.1232321  )
         6           Si  tau(   6) = (   0.4891149   0.0018270  -0.0008621  )
         7           Si  tau(   7) = (   0.4891606   0.2392505   0.2465316  )
         8           Si  tau(   8) = (   0.6104044   0.1205894   0.1256862  )
         9           Si  tau(   9) = (   0.7334565   0.0001099   0.2433117  )
        10           Si  tau(  10) = (   0.7411521   0.2407745   0.0036669  )
        11           Si  tau(  11) = (  -0.0018269   0.4810408   0.0034133  )
        12           Si  tau(  12) = (   0.2442778   0.4857317   0.2395576  )
        13           Si  tau(  13) = (   0.1213169   0.6053686   0.1238534  )
        14           Si  tau(  14) = (   0.3647715   0.3647361   0.1201709  )
        15           Si  tau(  15) = (   0.4937935   0.4843218   0.0012449  )
        16           Si  tau(  16) = (   0.6182832   0.6063344   0.1252257  )
        17           Si  tau(  17) = (   0.8603389   0.3590522   0.1192020  )
        18           Si  tau(  18) = (   0.7394802   0.4787455   0.2440402  )
        19           Si  tau(  19) = (  -0.0019380   0.7261907   0.2477375  )
        20           Si  tau(  20) = (   0.2439306   0.7198364  -0.0028475  )
        21           Si  tau(  21) = (   0.3715631   0.8407649   0.1226214  )
        22           Si  tau(  22) = (   0.4948036   0.7223241   0.2463856  )
        23           Si  tau(  23) = (   0.7392545   0.7217361  -0.0034207  )
        24           Si  tau(  24) = (   0.8604234   0.8453901   0.1202112  )
        25           Si  tau(  25) = (   0.0006062  -0.0008806   0.4901749  )
        26           Si  tau(  26) = (   0.2428765   0.2396959   0.4902994  )
        27           Si  tau(  27) = (   0.1221309   0.1188496   0.6099376  )
        28           Si  tau(  28) = (   0.3688161   0.1193464   0.3617628  )
        29           Si  tau(  29) = (   0.4949504   0.0040360   0.4899476  )
        30           Si  tau(  30) = (   0.6106452   0.1216487   0.6108770  )
        31           Si  tau(  31) = (   0.8645131   0.1175081   0.3698938  )
        32           Si  tau(  32) = (   0.7382097   0.2389242   0.4888762  )
        33           Si  tau(  33) = (   0.1272082   0.3643712   0.3654711  )
        34           Si  tau(  34) = (   0.0000569   0.4784812   0.4868888  )
        35           Si  tau(  35) = (   0.1194788   0.5990817   0.6139096  )
        36           Si  tau(  36) = (   0.6178242   0.3615301   0.3674330  )
        37           Si  tau(  37) = (   0.3685160   0.6068345   0.3683248  )
        38           Si  tau(  38) = (   0.3646907   0.3630480   0.6095487  )
        39           Si  tau(  39) = (   0.4923033   0.4838001   0.4886224  )
        40           Si  tau(  40) = (   0.6169621   0.6006023   0.6104822  )
        41           Si  tau(  41) = (   0.8638261   0.6003208   0.3634021  )
        42           Si  tau(  42) = (   0.8577609   0.3603718   0.6088265  )
        43           Si  tau(  43) = (   0.1234692   0.8481586   0.3645949  )
        44           Si  tau(  44) = (   0.2479184   0.7246005   0.4890766  )
        45           Si  tau(  45) = (   0.6179418   0.8406184   0.3632634  )
        46           Si  tau(  46) = (   0.3721950   0.8436591   0.6095214  )
        47           Si  tau(  47) = (   0.7409881   0.7278067   0.4898183  )
        48           Si  tau(  48) = (   0.8593749   0.8424937   0.6109081  )
        49           Si  tau(  49) = (   0.0034272   0.2418107   0.7294308  )
        50           Si  tau(  50) = (   0.2465092  -0.0002553   0.7361014  )
        51           Si  tau(  51) = (   0.3702771   0.1190101   0.8513437  )
        52           Si  tau(  52) = (   0.4936324   0.2455202   0.7334134  )
        53           Si  tau(  53) = (   0.7371497   0.0020354   0.7296608  )
        54           Si  tau(  54) = (   0.8595619   0.1243628   0.8506142  )
        55           Si  tau(  55) = (   0.1183986   0.3649656   0.8495567  )
        56           Si  tau(  56) = (   0.2420993   0.4810405   0.7325014  )
        57           Si  tau(  57) = (   0.6180120   0.3585762   0.8557169  )
        58           Si  tau(  58) = (   0.3719805   0.6016591   0.8520997  )
        59           Si  tau(  59) = (   0.7346773   0.4828200   0.7330767  )
        60           Si  tau(  60) = (   0.8636323   0.6070637   0.8524072  )
        61           Si  tau(  61) = (   0.0037709   0.7262401   0.7307292  )
        62           Si  tau(  62) = (   0.1256841   0.8426008   0.8579336  )
        63           Si  tau(  63) = (   0.4886475   0.7234928   0.7279167  )
        64           Si  tau(  64) = (   0.6161788   0.8418240   0.8579383  )

     number of k points=     1  Fermi-Dirac smearing, width (Ry)=  0.0100
                       cart. coord. in units 2pi/alat
        k(    1) = (   0.0000000   0.0000000   0.0000000), wk =   2.0000000

     Dense  grid:    98746 G-vectors     FFT dimensions: (  75,  72,  75)

     Estimated max dynamical RAM per process >     158.34 MB

     Estimated total dynamical RAM >     609.25 MB

     Initial potential from superposition of free atoms

     starting charge     255.9608, renormalised to     256.0000
     Starting wfcs are  256 randomized atomic wfcs

     total cpu time spent up to now is        4.3 secs

     Self-consistent Calculation

     iteration #  1     ecut=    30.00 Ry     beta= 0.50
     Davidson diagonalization with overlap
     ethr =  1.00E-02,  avg # of iterations =  3.0

     Threshold (ethr) on eigenvalues was too large:
     Diagonalizing with lowered threshold

     Davidson diagonalization with overlap
     ethr =  6.50E-04,  avg # of iterations =  3.0

     total cpu time spent up to now is        4.5 secs

     total energy              =    -503.85237626 Ry
     estimated scf accuracy    <       1.84332509 Ry

     iteration #  2     ecut=    30.00 Ry     beta= 0.50
     Davidson diagonalization with overlap
     ethr =  7.20E-04,  avg # of iterations =  1.0

     total cpu time spent up to now is        4.5 secs

     total energy              =    -503.83710793 Ry
     estimated scf accuracy    <       0.34172838 Ry

     iteration #  3     ecut=    30.00 Ry     beta= 0.50
     Davidson diagonalization with overlap
     ethr =  1.33E-04,  avg # of iterations = 10.0

     total cpu time spent up to now is        4.7 secs

     total energy              =    -503.85646304 Ry
     estimated scf accuracy    <       0.02434654 Ry

     iteration #  4     ecut=    30.00 Ry     beta= 0.50
     Davidson diagonalization with overlap
     ethr =  9.51E-06,  avg # of iterations = 20.0

     total cpu time spent up to now is        4.9 secs

     total energy              =    -503.86196272 Ry
     estimated scf accuracy    <       0.00948718 Ry

     iteration #  5     ecut=    30.00 Ry     beta= 0.50
     Davidson diagonalization with overlap
     ethr =  3.71E-06,  avg # of iterations =  5.0

     total cpu time spent up to now is        5.0 secs

     total energy              =    -503.86358023 Ry
     estimated scf accuracy    <       0.00142394 Ry

     iteration #  6     ecut=    30.00 Ry     beta= 0.50
     Davidson diagonalization with overlap
     ethr =  5.56E-07,  avg # of iterations =  4.0

     total cpu time spent up to now is        5.1 secs

     total energy              =    -503.86371751 Ry
     estimated scf accuracy    <       0.00027614 Ry

     iteration #  7     ecut=    30.00 Ry     beta= 0.50
     Davidson diagonalization with overlap
     ethr =  1.08E-07,  avg # of iterations =  5.0

     total cpu time spent up to now is        5.2 secs

     total energy              =    -503.86376827 Ry
     estimated scf accuracy    <       0.00002257 Ry

     iteration #  8     ecut=    30.00 Ry     beta= 0.50
     Davidson diagonalization with overlap
     ethr =  8.82E-09,  avg # of iterations =  5.0

     total cpu time spent up to now is        5.3 secs

     total energy              =    -503.86377253 Ry
     estimated scf accuracy    <       0.00001444 Ry

     iteration #  9     ecut=    30.00 Ry     beta= 0.50
     Davidson diagonalization with overlap
     ethr =  5.64E-09,  avg # of iterations =  3.0

     total cpu time spent up to now is        5.4 secs

     End of self-consistent calculation

          k = 0.0000 0.0000 0.0000 ( 12334 PWs)   bands (ev):

    -5.8407  -4.9131  -4.8302  -4.7691  -4.7548  -4.7214  -4.6819  -4.0360
    -3.9742  -3.9417  -3.9250  -3.8813  -3.8433  -3.8280  -3.7794  -3.7613
    -3.7333  -3.7113  -3.6641  -3.6498  -3.5726  -3.5497  -3.2948  -1.9732
    -1.8588  -1.8502  -1.7991  -1.7827  -1.7522  -1.7259  -1.6964  -1.6774
    -1.6608  -1.6423  -1.6077  -1.5887  -1.5770  -1.5442  -1.4967  -1.4579
    -1.3688  -0.9992  -0.8659  -0.8339  -0.8198   0.3824   0.4044   0.4284
     0.4821   0.5021   0.5086   0.5475   0.5836   0.5962   0.6018   0.6083
     0.6728   2.0989   2.1137   2.1282   2.1347   2.1468   2.1589   2.1604
     2.1842   2.1908   2.2025   2.2248   2.2279   2.2338   2.2500   2.2571
     2.2690   2.2936   2.3079   2.3169   2.3338   2.3537   2.3621   2.3712
     2.3785   2.4084   2.4220   2.5855   2.6354   2.6693   2.6979   3.0527
     3.0619   3.1896   3.2231   3.2957   3.3104   3.9780   3.9965   4.0310
     4.0513   4.0664   4.0987   4.1021   4.1243   4.1522   4.2234   4.2788
     4.4275   4.4670   4.5244   4.5401   4.5586   4.6005   4.6262   4.6409
     4.6475   4.6732   4.6964   4.7197   4.7318   4.7667   4.7874   4.8018
     4.8110   4.8468   4.9002   4.9621   5.4419   5.8425   5.9653   6.1914
     6.4783   6.5001   6.7179   6.7555   6.8217   6.8317   6.9384   6.9553
     7.0691   7.1127   7.1912   7.2990   7.3142   7.3200   7.3355   7.3957
     8.1371   8.1655   8.1858   8.2108   8.2899   8.2998   8.3295   8.3843
     8.4282   8.4486

     the Fermi energy is     6.2787 ev

!    total energy              =    -503.86377438 Ry
     estimated scf accuracy    <       0.00000064 Ry
     smearing contrib. (-TS)   =      -0.05364073 Ry
     internal energy E=F+TS    =    -503.81013365 Ry

     The total energy is F=E-TS. E is the sum of the following terms:
     one-electron contribution =     144.35454025 Ry
     hartree contribution      =      37.04254364 Ry
     xc contribution           =    -153.38350997 Ry
     ewald contribution        =    -531.82370757 Ry

     convergence has been achieved in   9 iterations

     Forces acting on atoms (cartesian axes, Ry/au):

     atom    1 type  1   force =    -0.04701893    0.00131505   -0.01782726
     atom    2 type  1   force =    -0.03195824    0.02581490    0.00883917
     atom    3 type  1   force =     0.01669342   -0.00792898   -0.01293099
     atom    4 type  1   force =    -0.01637406   -0.00454508   -0.02035764
     atom    5 type  1   force =     0.01094095   -0.00417993   -0.01623336
     atom    6 type  1   force =     0.01737991   -0.01432454   -0.00218623
     atom    7 type  1   force =     0.00793503    0.03719392   -0.01305437
     atom    8 type  1   force =     0.00868527    0.00653263   -0.02189692
     atom    9 type  1   force =     0.03586640    0.00276757    0.00335193
     atom   10 type  1   force =    -0.02187675   -0.02187584   -0.02519888
     atom   11 type  1   force =    -0.03673318    0.00946760   -0.02276732
     atom   12 type  1   force =     0.01401561    0.00408327    0.02682089
     atom   13 type  1   force =    -0.02024196    0.00247784   -0.00951060
     atom   14 type  1   force =     0.02180132   -0.00956885    0.00413964
     atom   15 type  1   force =     0.01000501   -0.00603560   -0.00918332
     atom   16 type  1   force =    -0.00160163   -0.02140448   -0.01334479
     atom   17 type  1   force =     0.05463425    0.01076672    0.02558869
     atom   18 type  1   force =     0.00604810    0.01086443   -0.00727277
     atom   19 type  1   force =    -0.03598349   -0.00142804   -0.01641322
     atom   20 type  1   force =     0.02700512   -0.00056199    0.00837714
     atom   21 type  1   force =    -0.02493379    0.00673202   -0.00707217
     atom   22 type  1   force =    -0.00938856    0.00264069   -0.00435301
     atom   23 type  1   force =     0.01265989    0.00737315    0.01115686
     atom   24 type  1   force =     0.03473516   -0.00106298    0.00289884
     atom   25 type  1   force =    -0.04593613   -0.00749252   -0.00021023
     atom   26 type  1   force =     0.01995324   -0.00279003   -0.02069074
     atom   27 type  1   force =     0.00279744   -0.00476912    0.01192198
     atom   28 type  1   force =    -0.01755277   -0.00196575    0.03480034
     atom   29 type  1   force =    -0.01153151   -0.02893598   -0.03110240
     atom   30 type  1   force =     0.02192599    0.01470348    0.00643375
     atom   31 type  1   force =     0.01671015   -0.00178053   -0.01322750
     atom   32 type  1   force =     0.00297461   -0.00568757   -0.00108933
     atom   33 type  1   force =    -0.02322974   -0.01870520   -0.00831813
     atom   34 type  1   force =    -0.04443781    0.00965795    0.00574287
     atom   35 type  1   force =     0.00714714    0.01676237   -0.03159057
     atom   36 type  1   force =    -0.02001577   -0.00773717   -0.00261013
     atom   37 type  1   force =    -0.00005536   -0.02242949   -0.01716768
     atom   38 type  1   force =     0.01236410   -0.00409108    0.00272355
     atom   39 type  1   force =    -0.00085775   -0.00863242   -0.00376233
     atom   40 type  1   force =    -0.01061421    0.02490707   -0.00858956
     atom   41 type  1   force =     0.02986517    0.01110742    0.01979673
     atom   42 type  1   force =     0.05050294    0.00659951    0.00870982
     atom   43 type  1   force =    -0.00427976   -0.01777215    0.01635261
     atom   44 type  1   force =    -0.02689211    0.00041615    0.00819005
     atom   45 type  1   force =    -0.01159541    0.02272278    0.02889777
     atom   46 type  1   force =    -0.02314733    0.02296248   -0.00366070
     atom   47 type  1   force =    -0.00236803   -0.04521114   -0.01847323
     atom   48 type  1   force =     0.06246499    0.01903214    0.00957734
     atom   49 type  1   force =    -0.06836998    0.00040812   -0.00009896
     atom   50 type  1   force =    -0.00074095   -0.00953502   -0.02373442
     atom   51 type  1   force =    -0.00435727    0.02484771    0.02167167
     atom   52 type  1   force =    -0.01622287   -0.00923432   -0.00653075
     atom   53 type  1   force =    -0.00252537   -0.00931981    0.01716984
     atom   54 type  1   force =     0.05262744   -0.00917219    0.01545519
     atom   55 type  1   force =     0.00576139   -0.01382054    0.04390246
     atom   56 type  1   force =     0.02280125    0.01160322    0.00436448
     atom   57 type  1   force =    -0.00449384    0.01773892    0.02551707
     atom   58 type  1   force =    -0.02091545   -0.00443848    0.00973077
     atom   59 type  1   force =     0.03429455   -0.00479160    0.00750223
     atom   60 type  1   force =     0.03722388   -0.02071434    0.00456927
     atom   61 type  1   force =    -0.05474347    0.00045008    0.01189074
     atom   62 type  1   force =    -0.01850501    0.01198438   -0.00091198
     atom   63 type  1   force =     0.03806526   -0.00585116    0.02431194
     atom   64 type  1   force =    -0.01638651    0.01386034   -0.01903416

     Total force =     0.280624     Total SCF correction =     0.001327


     Computing stress (Cartesian axis) and pressure

          total   stress  (Ry/bohr**3)                   (kbar)     P=        4.71
  -0.00007293   0.00002033   0.00001212          -10.73        2.99        1.78
   0.00002033   0.00011606   0.00004053            2.99       17.07        5.96
   0.00001212   0.00004053   0.00005284            1.78        5.96        7.77

 
     init_run     :      1.03s CPU      4.21s WALL (       1 calls)
     electrons    :      1.08s CPU      1.18s WALL (       1 calls)
     forces       :      0.04s CPU      0.04s WALL (       1 calls)
     stress       :      0.15s CPU      0.15s WALL (       1 calls)

     Called by init_run:
     wfcinit      :      0.47s CPU      3.48s WALL (       1 calls)
                                        3.48s GPU  (       1 calls)
     potinit      :      0.15s CPU      0.24s WALL (       1 calls)
     hinit0       :      0.39s CPU      0.42s WALL (       1 calls)

     Called by electrons:
     c_bands      :      0.75s CPU      0.81s WALL (      10 calls)
     sum_band     :      0.18s CPU      0.20s WALL (      10 calls)
     v_of_rho     :      0.08s CPU      0.17s WALL (      10 calls)
     mix_rho      :      0.05s CPU      0.06s WALL (      10 calls)

     Called by c_bands:
     init_us_2    :      0.03s CPU      0.03s WALL (      21 calls)
     init_us_2:gp :      0.02s CPU      0.03s WALL (      21 calls)
     regterg      :      0.68s CPU      0.73s WALL (      10 calls)

     Called by *egterg:
     rdiaghg      :      0.29s CPU      0.91s WALL (      68 calls)
                                        0.89s GPU  (      68 calls)
     h_psi        :      0.73s CPU      3.15s WALL (      70 calls)
                                        3.15s GPU  (      70 calls)
     g_psi        :      0.00s CPU      0.00s WALL (      59 calls)
                                        0.00s GPU  (      59 calls)

     Called by h_psi:
     h_psi:calbec :      0.42s CPU      2.78s WALL (      70 calls)
                                        2.78s GPU  (      70 calls)
     vloc_psi     :      0.28s CPU      0.33s WALL (      70 calls)
                                        0.33s GPU  (      70 calls)
     add_vuspsi   :      0.02s CPU      0.04s WALL (      70 calls)
                                        0.03s GPU  (      70 calls)

     General routines
     calbec       :      0.42s CPU      2.78s WALL (      75 calls)
     fft          :      0.41s CPU      0.53s WALL (      87 calls)
                                        0.11s GPU  (      56 calls)
     ffts         :      0.02s CPU      0.02s WALL (      10 calls)
     fftw         :      0.32s CPU      0.42s WALL (    1110 calls)
                                        0.38s GPU  (    1110 calls)
 
     Parallel routines
 
     PWSCF        :      2.33s CPU      5.65s WALL

 
   This run was terminated on:  11:14:13  10May2023            

=------------------------------------------------------------------------------=
   JOB DONE.
=------------------------------------------------------------------------------=
