An instance of this daemon is already running
An instance of this daemon is already running

     Program PWSCF v.7.1 starts on 10May2023 at 11:13: 2 

     This program is part of the open-source Quantum ESPRESSO suite
     for quantum simulation of materials; please cite
         "P. Giannozzi et al., J. Phys.:Condens. Matter 21 395502 (2009);
         "P. Giannozzi et al., J. Phys.:Condens. Matter 29 465901 (2017);
         "P. Giannozzi et al., J. Chem. Phys. 152 154105 (2020);
          URL http://www.quantum-espresso.org", 
     in publications or presentations arising from this work. More details at
     http://www.quantum-espresso.org/quote

     Parallel version (MPI & OpenMP), running on       4 processor cores
     Number of MPI processes:                 4
     Threads/MPI process:                     1

     MPI processes distributed on     1 nodes
     150146 MiB available memory on the printing compute node when the environment starts
 
     Reading input from pw-si-21.in
Warning: card &CELL ignored
Warning: card / ignored

     Current dimensions of program PWSCF are:
     Max number of different atomic species (ntypx) = 10
     Max number of k-points (npk) =  40000
     Max angular momentum in pseudopotentials (lmaxx) =  4

     IMPORTANT: XC functional enforced from input :
     Exchange-correlation= PBE
                           (   1   4   3   4   0   0   0)
     Any further DFT definition will be discarded
     Please, verify this is what you really want


     gamma-point specific algorithms are used
 
     K-points division:     npool     =       2
     R & G space division:  proc/nbgrp/npool/nimage =       2
     Subspace diagonalization in iterative solution of the eigenvalue problem:
     a serial algorithm will be used

     Message from routine divide_et_impera:
     suboptimal parallelization: some nodes have no k-points
 
     Parallelization info
     --------------------
     sticks:   dense  smooth     PW     G-vecs:    dense   smooth      PW
     Min        2064    2064    545                98988    98988   13469
     Max        2067    2067    548                98989    98989   13476
     Sum        4131    4131   1093               197977   197977   26945
 
     Using Slab Decomposition
 


     bravais-lattice index     =            0
     lattice parameter (alat)  =      20.9803  a.u.
     unit-cell volume          =    8919.1603 (a.u.)^3
     number of atoms/cell      =           64
     number of atomic types    =            1
     number of electrons       =       256.00
     number of Kohn-Sham states=          154
     kinetic-energy cutoff     =      30.0000  Ry
     charge density cutoff     =     120.0000  Ry
     scf convergence threshold =      1.0E-06
     mixing beta               =       0.5000
     number of iterations used =            8  plain     mixing
     Exchange-correlation= PBE
                           (   1   4   3   4   0   0   0)

     GPU acceleration is ACTIVE.
     GPU-aware MPI enabled

     Message from routine print_cuda_info:
     High GPU oversubscription detected. Are you sure this is what you want?

     celldm(1)=  20.980268  celldm(2)=   0.000000  celldm(3)=   0.000000
     celldm(4)=   0.000000  celldm(5)=   0.000000  celldm(6)=   0.000000

     crystal axes: (cart. coord. in units of alat)
               a(1) = (   1.000000   0.000000   0.000000 )  
               a(2) = (   0.000000   0.981605   0.000000 )  
               a(3) = (   0.000000   0.000000   0.983907 )  

     reciprocal axes: (cart. coord. in units 2 pi/alat)
               b(1) = (  1.000000  0.000000  0.000000 )  
               b(2) = (  0.000000  1.018740  0.000000 )  
               b(3) = (  0.000000  0.000000  1.016356 )  


     PseudoPot. # 1 for Si read from file:
     /home/ppiaggi/pseudos/Si_ONCV_PBE_sr.upf
     MD5 check sum: 8553c464762ac42b85b1eed164b4d029
     Pseudo is Norm-conserving, Zval =  4.0
     Generated using ONCVPSP code by D. R. Hamann
     Using radial grid of 1510 points,  4 beta functions with: 
                l(1) =   0
                l(2) =   0
                l(3) =   1
                l(4) =   1

     atomic species   valence    mass     pseudopotential
        Si             4.00    28.08500     Si( 1.00)

     No symmetry found



   Cartesian axes

     site n.     atom                  positions (alat units)
         1           Si  tau(   1) = (   0.0006536  -0.0004238   0.0009231  )
         2           Si  tau(   2) = (  -0.0028204   0.2501707   0.2498017  )
         3           Si  tau(   3) = (   0.2550414  -0.0020402   0.2427625  )
         4           Si  tau(   4) = (   0.2564634   0.2484431   0.0036067  )
         5           Si  tau(   5) = (   0.1216605   0.1262682   0.1257196  )
         6           Si  tau(   6) = (   0.5009948   0.0039692   0.0035678  )
         7           Si  tau(   7) = (   0.5059851   0.2473723   0.2459238  )
         8           Si  tau(   8) = (   0.6277633   0.1231551   0.1224204  )
         9           Si  tau(   9) = (   0.7565370   0.0033470   0.2500570  )
        10           Si  tau(  10) = (   0.7568379   0.2509570  -0.0037156  )
        11           Si  tau(  11) = (   0.0021931   0.5018649  -0.0001278  )
        12           Si  tau(  12) = (   0.2503305   0.5011633   0.2488091  )
        13           Si  tau(  13) = (   0.1240541   0.6226588   0.1223694  )
        14           Si  tau(  14) = (   0.3786587   0.3721216   0.1201209  )
        15           Si  tau(  15) = (   0.5048239   0.4952984   0.0027479  )
        16           Si  tau(  16) = (   0.6293226   0.6261402   0.1250712  )
        17           Si  tau(  17) = (   0.8783552   0.3708980   0.1205248  )
        18           Si  tau(  18) = (   0.7585985   0.5027408   0.2479607  )
        19           Si  tau(  19) = (   0.0040614   0.7476452   0.2453136  )
        20           Si  tau(  20) = (   0.2521061   0.7490946  -0.0009876  )
        21           Si  tau(  21) = (   0.3783195   0.8720511   0.1204533  )
        22           Si  tau(  22) = (   0.5046057   0.7482602   0.2503153  )
        23           Si  tau(  23) = (   0.7568850   0.7485818  -0.0034327  )
        24           Si  tau(  24) = (   0.8802890   0.8719663   0.1266713  )
        25           Si  tau(  25) = (  -0.0039079   0.0016914   0.4880886  )
        26           Si  tau(  26) = (   0.2536536   0.2469739   0.4894541  )
        27           Si  tau(  27) = (   0.1275380   0.1233112   0.6146801  )
        28           Si  tau(  28) = (   0.3759930   0.1280453   0.3729169  )
        29           Si  tau(  29) = (   0.5057468   0.0002706   0.4944647  )
        30           Si  tau(  30) = (   0.6292460   0.1274190   0.6145137  )
        31           Si  tau(  31) = (   0.8846600   0.1226892   0.3696217  )
        32           Si  tau(  32) = (   0.7588927   0.2516453   0.4906208  )
        33           Si  tau(  33) = (   0.1289327   0.3758756   0.3653589  )
        34           Si  tau(  34) = (   0.0026477   0.5024417   0.4932096  )
        35           Si  tau(  35) = (   0.1218222   0.6233929   0.6138137  )
        36           Si  tau(  36) = (   0.6346272   0.3702935   0.3667805  )
        37           Si  tau(  37) = (   0.3744776   0.6285013   0.3650904  )
        38           Si  tau(  38) = (   0.3777393   0.3726772   0.6107426  )
        39           Si  tau(  39) = (   0.5000829   0.5022141   0.4935844  )
        40           Si  tau(  40) = (   0.6336970   0.6258986   0.6190051  )
        41           Si  tau(  41) = (   0.8859092   0.6230632   0.3647345  )
        42           Si  tau(  42) = (   0.8814680   0.3744495   0.6156195  )
        43           Si  tau(  43) = (   0.1217789   0.8750531   0.3733097  )
        44           Si  tau(  44) = (   0.2512181   0.7493579   0.4882814  )
        45           Si  tau(  45) = (   0.6304478   0.8781354   0.3719933  )
        46           Si  tau(  46) = (   0.3800200   0.8712888   0.6123337  )
        47           Si  tau(  47) = (   0.7592534   0.7511339   0.4929512  )
        48           Si  tau(  48) = (   0.8815818   0.8771568   0.6109213  )
        49           Si  tau(  49) = (   0.0028234   0.2499670   0.7408997  )
        50           Si  tau(  50) = (   0.2530299  -0.0018788   0.7399582  )
        51           Si  tau(  51) = (   0.3764294   0.1233955   0.8594881  )
        52           Si  tau(  52) = (   0.4999707   0.2521795   0.7399349  )
        53           Si  tau(  53) = (   0.7600395   0.0010819   0.7379344  )
        54           Si  tau(  54) = (   0.8818777   0.1211636   0.8598025  )
        55           Si  tau(  55) = (   0.1232304   0.3768812   0.8629660  )
        56           Si  tau(  56) = (   0.2510202   0.4987194   0.7356699  )
        57           Si  tau(  57) = (   0.6348925   0.3717218   0.8604231  )
        58           Si  tau(  58) = (   0.3807215   0.6280061   0.8573482  )
        59           Si  tau(  59) = (   0.7577466   0.4988384   0.7414283  )
        60           Si  tau(  60) = (   0.8850766   0.6216003   0.8617761  )
        61           Si  tau(  61) = (  -0.0022413   0.7514743   0.7333550  )
        62           Si  tau(  62) = (   0.1238717   0.8731993   0.8594627  )
        63           Si  tau(  63) = (   0.5025960   0.7479129   0.7392635  )
        64           Si  tau(  64) = (   0.6347992   0.8780446   0.8586937  )

     number of k points=     1  Fermi-Dirac smearing, width (Ry)=  0.0100
                       cart. coord. in units 2pi/alat
        k(    1) = (   0.0000000   0.0000000   0.0000000), wk =   2.0000000

     Dense  grid:    98989 G-vectors     FFT dimensions: (  75,  72,  72)

     Estimated max dynamical RAM per process >     157.98 MB

     Estimated total dynamical RAM >     607.76 MB

     Initial potential from superposition of free atoms

     starting charge     255.9608, renormalised to     256.0000
     Starting wfcs are  256 randomized atomic wfcs

     total cpu time spent up to now is        4.2 secs

     Self-consistent Calculation

     iteration #  1     ecut=    30.00 Ry     beta= 0.50
     Davidson diagonalization with overlap
     ethr =  1.00E-02,  avg # of iterations =  3.0

     Threshold (ethr) on eigenvalues was too large:
     Diagonalizing with lowered threshold

     Davidson diagonalization with overlap
     ethr =  6.50E-04,  avg # of iterations =  2.0

     total cpu time spent up to now is        4.3 secs

     total energy              =    -503.82230074 Ry
     estimated scf accuracy    <       1.84331207 Ry

     iteration #  2     ecut=    30.00 Ry     beta= 0.50
     Davidson diagonalization with overlap
     ethr =  7.20E-04,  avg # of iterations =  1.0

     total cpu time spent up to now is        4.4 secs

     total energy              =    -503.80704823 Ry
     estimated scf accuracy    <       0.34424982 Ry

     iteration #  3     ecut=    30.00 Ry     beta= 0.50
     Davidson diagonalization with overlap
     ethr =  1.34E-04,  avg # of iterations =  5.0

     total cpu time spent up to now is        4.5 secs

     total energy              =    -503.82439400 Ry
     estimated scf accuracy    <       0.03787782 Ry

     iteration #  4     ecut=    30.00 Ry     beta= 0.50
     Davidson diagonalization with overlap
     c_bands:  3 eigenvalues not converged
     ethr =  1.48E-05,  avg # of iterations = 20.0

     total cpu time spent up to now is        4.7 secs

     total energy              =    -503.83264546 Ry
     estimated scf accuracy    <       0.01013391 Ry

     iteration #  5     ecut=    30.00 Ry     beta= 0.50
     Davidson diagonalization with overlap
     ethr =  3.96E-06,  avg # of iterations = 16.0

     total cpu time spent up to now is        4.9 secs

     total energy              =    -503.83429839 Ry
     estimated scf accuracy    <       0.00166572 Ry

     iteration #  6     ecut=    30.00 Ry     beta= 0.50
     Davidson diagonalization with overlap
     ethr =  6.51E-07,  avg # of iterations =  4.0

     total cpu time spent up to now is        5.0 secs

     total energy              =    -503.83449430 Ry
     estimated scf accuracy    <       0.00057986 Ry

     iteration #  7     ecut=    30.00 Ry     beta= 0.50
     Davidson diagonalization with overlap
     ethr =  2.27E-07,  avg # of iterations =  4.0

     total cpu time spent up to now is        5.1 secs

     total energy              =    -503.83455237 Ry
     estimated scf accuracy    <       0.00007857 Ry

     iteration #  8     ecut=    30.00 Ry     beta= 0.50
     Davidson diagonalization with overlap
     ethr =  3.07E-08,  avg # of iterations =  5.0

     total cpu time spent up to now is        5.2 secs

     total energy              =    -503.83457255 Ry
     estimated scf accuracy    <       0.00000941 Ry

     iteration #  9     ecut=    30.00 Ry     beta= 0.50
     Davidson diagonalization with overlap
     ethr =  3.68E-09,  avg # of iterations =  3.0

     total cpu time spent up to now is        5.3 secs

     total energy              =    -503.83457360 Ry
     estimated scf accuracy    <       0.00000215 Ry

     iteration # 10     ecut=    30.00 Ry     beta= 0.50
     Davidson diagonalization with overlap
     ethr =  8.41E-10,  avg # of iterations =  5.0

     total cpu time spent up to now is        5.5 secs

     End of self-consistent calculation

          k = 0.0000 0.0000 0.0000 ( 12385 PWs)   bands (ev):

    -5.8894  -4.9498  -4.8797  -4.8423  -4.7806  -4.7621  -4.6736  -4.1343
    -3.9866  -3.9640  -3.9336  -3.8821  -3.8759  -3.8559  -3.8384  -3.7797
    -3.7394  -3.6790  -3.6583  -3.5524  -3.5448  -3.4789  -3.4240  -2.0595
    -2.0051  -1.8815  -1.8406  -1.7606  -1.7407  -1.7303  -1.6907  -1.6819
    -1.6537  -1.6316  -1.6061  -1.5901  -1.5696  -1.5647  -1.5293  -1.4932
    -1.4251  -0.9668  -0.9600  -0.8713  -0.7868   0.3629   0.3965   0.4371
     0.4448   0.4589   0.4844   0.4961   0.5049   0.5235   0.5894   0.6217
     0.6330   1.9291   1.9748   2.0000   2.0242   2.0531   2.1401   2.1459
     2.1732   2.1769   2.1841   2.2274   2.2414   2.2535   2.2774   2.2900
     2.3191   2.3383   2.3540   2.3647   2.3719   2.3848   2.4075   2.4161
     2.4263   2.4365   2.4577   2.5069   2.5234   2.5652   2.5819   2.9864
     3.1043   3.1331   3.1763   3.2329   3.2591   3.9259   3.9780   4.0182
     4.0437   4.0546   4.0841   4.1156   4.1313   4.1499   4.1610   4.1834
     4.2518   4.2708   4.4853   4.5482   4.5852   4.6169   4.6372   4.6533
     4.6738   4.6989   4.7194   4.7448   4.7498   4.7627   4.8055   4.8164
     4.8773   4.8799   4.9192   5.0030   5.0397   5.8518   6.0175   6.0409
     6.4053   6.5788   6.5882   6.7073   6.7574   6.8052   7.0001   7.0357
     7.0629   7.0717   7.1446   7.2065   7.2628   7.2923   7.3240   7.3338
     8.0579   8.1734   8.1960   8.2563   8.2776   8.2846   8.3095   8.3255
     8.3487   8.3755

     the Fermi energy is     6.2299 ev

!    total energy              =    -503.83457397 Ry
     estimated scf accuracy    <       0.00000030 Ry
     smearing contrib. (-TS)   =      -0.05245360 Ry
     internal energy E=F+TS    =    -503.78212037 Ry

     The total energy is F=E-TS. E is the sum of the following terms:
     one-electron contribution =     142.65153517 Ry
     hartree contribution      =      37.64140757 Ry
     xc contribution           =    -153.32035676 Ry
     ewald contribution        =    -530.75470635 Ry

     convergence has been achieved in  10 iterations

     Forces acting on atoms (cartesian axes, Ry/au):

     atom    1 type  1   force =     0.01183957    0.04567541    0.00613333
     atom    2 type  1   force =     0.02967235    0.00904580   -0.01773599
     atom    3 type  1   force =    -0.02877894    0.05944253    0.03233164
     atom    4 type  1   force =    -0.03742035   -0.00346303   -0.01911052
     atom    5 type  1   force =     0.02616300    0.00136851   -0.00491538
     atom    6 type  1   force =     0.02254583    0.02637129   -0.03530672
     atom    7 type  1   force =    -0.01097533    0.00745575    0.00369195
     atom    8 type  1   force =     0.01984992    0.02051933    0.00412419
     atom    9 type  1   force =    -0.00526219    0.03784916   -0.02083258
     atom   10 type  1   force =    -0.00675355   -0.03442758    0.01115338
     atom   11 type  1   force =     0.00512253   -0.02727937    0.01523453
     atom   12 type  1   force =     0.01523161   -0.00909015   -0.03514030
     atom   13 type  1   force =     0.02603333    0.00939204    0.00196090
     atom   14 type  1   force =     0.00298273    0.01362034    0.03380108
     atom   15 type  1   force =     0.00749278    0.01936244   -0.01928511
     atom   16 type  1   force =     0.00382554   -0.00770578   -0.00725488
     atom   17 type  1   force =    -0.00388413    0.02899403    0.01005802
     atom   18 type  1   force =    -0.01462967   -0.02333255   -0.01845263
     atom   19 type  1   force =     0.01040549    0.00601974    0.00330948
     atom   20 type  1   force =    -0.00488206   -0.01341999   -0.00616084
     atom   21 type  1   force =     0.00579185   -0.05998381    0.01212886
     atom   22 type  1   force =     0.00383891    0.01601638   -0.01852308
     atom   23 type  1   force =    -0.00529971   -0.00466416    0.01505919
     atom   24 type  1   force =    -0.01844376   -0.04527778   -0.00941274
     atom   25 type  1   force =     0.05212720    0.05610145    0.02504108
     atom   26 type  1   force =    -0.02294265    0.01917326    0.01293642
     atom   27 type  1   force =    -0.00212817    0.00875334    0.00032561
     atom   28 type  1   force =     0.02597957   -0.02802928   -0.03105956
     atom   29 type  1   force =    -0.01361678    0.06602901   -0.00120877
     atom   30 type  1   force =     0.00673721    0.00904004    0.01155680
     atom   31 type  1   force =    -0.04750524    0.03478229   -0.00496880
     atom   32 type  1   force =    -0.00542326   -0.01708740    0.00876138
     atom   33 type  1   force =    -0.01362786   -0.00616783    0.02791973
     atom   34 type  1   force =     0.00619602   -0.03027491   -0.01481177
     atom   35 type  1   force =     0.03246048    0.01731029    0.00594089
     atom   36 type  1   force =    -0.02165395    0.03471821    0.00743573
     atom   37 type  1   force =     0.01136508   -0.01805963    0.02010023
     atom   38 type  1   force =    -0.00847425    0.01100915    0.01430417
     atom   39 type  1   force =     0.02679958   -0.00569041   -0.01658497
     atom   40 type  1   force =    -0.01305901   -0.00598614   -0.01172467
     atom   41 type  1   force =    -0.02520661    0.01256428    0.02455742
     atom   42 type  1   force =    -0.00638107    0.00645784    0.00137758
     atom   43 type  1   force =     0.03920809   -0.05048211   -0.04077945
     atom   44 type  1   force =    -0.01062787   -0.00444502    0.02066315
     atom   45 type  1   force =     0.00361058   -0.06998826   -0.00586126
     atom   46 type  1   force =    -0.01481868   -0.04747804    0.01423323
     atom   47 type  1   force =    -0.01158860   -0.01948860   -0.01474354
     atom   48 type  1   force =    -0.02959814   -0.06174407    0.02054038
     atom   49 type  1   force =     0.01007772   -0.00572191   -0.01175997
     atom   50 type  1   force =     0.00296387    0.04231356   -0.02101718
     atom   51 type  1   force =     0.00403625    0.01446926    0.01125633
     atom   52 type  1   force =     0.01688150   -0.00837404   -0.00999517
     atom   53 type  1   force =    -0.01739412    0.05857789   -0.02059183
     atom   54 type  1   force =    -0.00761803    0.02571417    0.00837904
     atom   55 type  1   force =     0.03490060   -0.00857395    0.00087530
     atom   56 type  1   force =     0.00223240    0.00191261    0.00399089
     atom   57 type  1   force =    -0.03076687    0.01790160    0.00011121
     atom   58 type  1   force =    -0.01622243   -0.03585332    0.02362707
     atom   59 type  1   force =    -0.00055736   -0.00299535   -0.01143964
     atom   60 type  1   force =    -0.02974092    0.02316985   -0.01370016
     atom   61 type  1   force =     0.02275766   -0.01487942    0.01413475
     atom   62 type  1   force =     0.00604723   -0.05296106    0.00442053
     atom   63 type  1   force =     0.02908279    0.01871141   -0.01060989
     atom   64 type  1   force =    -0.03897769   -0.05691728    0.02151196

     Total force =     0.326064     Total SCF correction =     0.000957


     Computing stress (Cartesian axis) and pressure

          total   stress  (Ry/bohr**3)                   (kbar)     P=        3.62
  -0.00002863   0.00002905  -0.00006455           -4.21        4.27       -9.50
   0.00002905   0.00004047  -0.00001558            4.27        5.95       -2.29
  -0.00006455  -0.00001558   0.00006190           -9.50       -2.29        9.11

 
     init_run     :      1.49s CPU      4.10s WALL (       1 calls)
     electrons    :      1.19s CPU      1.30s WALL (       1 calls)
     forces       :      0.04s CPU      0.07s WALL (       1 calls)
     stress       :      0.15s CPU      0.16s WALL (       1 calls)

     Called by init_run:
     wfcinit      :      0.83s CPU      3.30s WALL (       1 calls)
                                        3.30s GPU  (       1 calls)
     potinit      :      0.15s CPU      0.22s WALL (       1 calls)
     hinit0       :      0.49s CPU      0.51s WALL (       1 calls)

     Called by electrons:
     c_bands      :      0.84s CPU      0.90s WALL (      11 calls)
     sum_band     :      0.19s CPU      0.22s WALL (      11 calls)
     v_of_rho     :      0.09s CPU      0.16s WALL (      11 calls)
     mix_rho      :      0.07s CPU      0.08s WALL (      11 calls)

     Called by c_bands:
     init_us_2    :      0.03s CPU      0.03s WALL (      23 calls)
     init_us_2:gp :      0.03s CPU      0.03s WALL (      23 calls)
     regterg      :      0.76s CPU      0.81s WALL (      11 calls)

     Called by *egterg:
     rdiaghg      :      0.36s CPU      0.88s WALL (      78 calls)
                                        0.87s GPU  (      78 calls)
     h_psi        :      1.10s CPU      3.08s WALL (      80 calls)
                                        3.07s GPU  (      80 calls)
     g_psi        :      0.00s CPU      0.00s WALL (      68 calls)
                                        0.00s GPU  (      68 calls)

     Called by h_psi:
     h_psi:calbec :      0.79s CPU      2.70s WALL (      80 calls)
                                        2.70s GPU  (      80 calls)
     vloc_psi     :      0.28s CPU      0.33s WALL (      80 calls)
                                        0.33s GPU  (      80 calls)
     add_vuspsi   :      0.03s CPU      0.04s WALL (      80 calls)
                                        0.04s GPU  (      80 calls)

     General routines
     calbec       :      0.79s CPU      2.71s WALL (      85 calls)
     fft          :      0.51s CPU      0.61s WALL (      95 calls)
                                        0.10s GPU  (      61 calls)
     ffts         :      0.02s CPU      0.02s WALL (      11 calls)
     fftw         :      0.31s CPU      0.43s WALL (    1229 calls)
                                        0.38s GPU  (    1229 calls)
 
     Parallel routines
 
     PWSCF        :      2.90s CPU      5.70s WALL

 
   This run was terminated on:  11:13: 7  10May2023            

=------------------------------------------------------------------------------=
   JOB DONE.
=------------------------------------------------------------------------------=
