An instance of this daemon is already running
An instance of this daemon is already running

     Program PWSCF v.7.1 starts on 10May2023 at 11:14:56 

     This program is part of the open-source Quantum ESPRESSO suite
     for quantum simulation of materials; please cite
         "P. Giannozzi et al., J. Phys.:Condens. Matter 21 395502 (2009);
         "P. Giannozzi et al., J. Phys.:Condens. Matter 29 465901 (2017);
         "P. Giannozzi et al., J. Chem. Phys. 152 154105 (2020);
          URL http://www.quantum-espresso.org", 
     in publications or presentations arising from this work. More details at
     http://www.quantum-espresso.org/quote

     Parallel version (MPI & OpenMP), running on       4 processor cores
     Number of MPI processes:                 4
     Threads/MPI process:                     1

     MPI processes distributed on     1 nodes
     150153 MiB available memory on the printing compute node when the environment starts
 
     Reading input from pw-si-35.in
Warning: card &CELL ignored
Warning: card / ignored

     Current dimensions of program PWSCF are:
     Max number of different atomic species (ntypx) = 10
     Max number of k-points (npk) =  40000
     Max angular momentum in pseudopotentials (lmaxx) =  4

     IMPORTANT: XC functional enforced from input :
     Exchange-correlation= PBE
                           (   1   4   3   4   0   0   0)
     Any further DFT definition will be discarded
     Please, verify this is what you really want


     gamma-point specific algorithms are used
 
     K-points division:     npool     =       2
     R & G space division:  proc/nbgrp/npool/nimage =       2
     Subspace diagonalization in iterative solution of the eigenvalue problem:
     a serial algorithm will be used

     Message from routine divide_et_impera:
     suboptimal parallelization: some nodes have no k-points
 
     Parallelization info
     --------------------
     sticks:   dense  smooth     PW     G-vecs:    dense   smooth      PW
     Min        2049    2049    543               100037   100037   13590
     Max        2050    2050    546               100038   100038   13591
     Sum        4099    4099   1089               200075   200075   27181
 
     Using Slab Decomposition
 


     bravais-lattice index     =            0
     lattice parameter (alat)  =      20.9328  a.u.
     unit-cell volume          =    9012.5877 (a.u.)^3
     number of atoms/cell      =           64
     number of atomic types    =            1
     number of electrons       =       256.00
     number of Kohn-Sham states=          154
     kinetic-energy cutoff     =      30.0000  Ry
     charge density cutoff     =     120.0000  Ry
     scf convergence threshold =      1.0E-06
     mixing beta               =       0.5000
     number of iterations used =            8  plain     mixing
     Exchange-correlation= PBE
                           (   1   4   3   4   0   0   0)

     GPU acceleration is ACTIVE.
     GPU-aware MPI enabled

     Message from routine print_cuda_info:
     High GPU oversubscription detected. Are you sure this is what you want?

     celldm(1)=  20.932795  celldm(2)=   0.000000  celldm(3)=   0.000000
     celldm(4)=   0.000000  celldm(5)=   0.000000  celldm(6)=   0.000000

     crystal axes: (cart. coord. in units of alat)
               a(1) = (   1.000000   0.000000   0.000000 )  
               a(2) = (   0.000000   0.978079   0.000000 )  
               a(3) = (   0.000000   0.000000   1.004602 )  

     reciprocal axes: (cart. coord. in units 2 pi/alat)
               b(1) = (  1.000000  0.000000  0.000000 )  
               b(2) = (  0.000000  1.022413  0.000000 )  
               b(3) = (  0.000000  0.000000  0.995419 )  


     PseudoPot. # 1 for Si read from file:
     /home/ppiaggi/pseudos/Si_ONCV_PBE_sr.upf
     MD5 check sum: 8553c464762ac42b85b1eed164b4d029
     Pseudo is Norm-conserving, Zval =  4.0
     Generated using ONCVPSP code by D. R. Hamann
     Using radial grid of 1510 points,  4 beta functions with: 
                l(1) =   0
                l(2) =   0
                l(3) =   1
                l(4) =   1

     atomic species   valence    mass     pseudopotential
        Si             4.00    28.08500     Si( 1.00)

     No symmetry found



   Cartesian axes

     site n.     atom                  positions (alat units)
         1           Si  tau(   1) = (  -0.0042839  -0.0017816   0.0038133  )
         2           Si  tau(   2) = (   0.0018159   0.2480672   0.2499269  )
         3           Si  tau(   3) = (   0.2505981  -0.0013753   0.2495576  )
         4           Si  tau(   4) = (   0.2450985   0.2409726  -0.0029752  )
         5           Si  tau(   5) = (   0.1210123   0.1260544   0.1198983  )
         6           Si  tau(   6) = (   0.4920382   0.0009491   0.0030108  )
         7           Si  tau(   7) = (   0.4945759   0.2425158   0.2426745  )
         8           Si  tau(   8) = (   0.6220716   0.1209598   0.1243041  )
         9           Si  tau(   9) = (   0.7383204   0.0010016   0.2499669  )
        10           Si  tau(  10) = (   0.7411032   0.2473236  -0.0004653  )
        11           Si  tau(  11) = (   0.0012602   0.4900305  -0.0022536  )
        12           Si  tau(  12) = (   0.2482808   0.4903610   0.2470190  )
        13           Si  tau(  13) = (   0.1254992   0.6134151   0.1222351  )
        14           Si  tau(  14) = (   0.3688989   0.3620053   0.1207470  )
        15           Si  tau(  15) = (   0.4970970   0.4884809  -0.0012019  )
        16           Si  tau(  16) = (   0.6207715   0.6064290   0.1225515  )
        17           Si  tau(  17) = (   0.8690176   0.3634144   0.1214241  )
        18           Si  tau(  18) = (   0.7441665   0.4914323   0.2433919  )
        19           Si  tau(  19) = (   0.0016377   0.7349882   0.2500982  )
        20           Si  tau(  20) = (   0.2455304   0.7305215  -0.0037637  )
        21           Si  tau(  21) = (   0.3727386   0.8565762   0.1209508  )
        22           Si  tau(  22) = (   0.4930762   0.7278704   0.2457056  )
        23           Si  tau(  23) = (   0.7467538   0.7345372   0.0022197  )
        24           Si  tau(  24) = (   0.8628203   0.8573775   0.1221937  )
        25           Si  tau(  25) = (   0.0029969   0.0024974   0.4921541  )
        26           Si  tau(  26) = (   0.2481600   0.2396522   0.4906419  )
        27           Si  tau(  27) = (   0.1216104   0.1250154   0.6181071  )
        28           Si  tau(  28) = (   0.3726711   0.1258760   0.3709006  )
        29           Si  tau(  29) = (   0.4911813   0.0029289   0.4955830  )
        30           Si  tau(  30) = (   0.6211204   0.1205886   0.6132674  )
        31           Si  tau(  31) = (   0.8650843   0.1230894   0.3708649  )
        32           Si  tau(  32) = (   0.7403412   0.2479947   0.4956010  )
        33           Si  tau(  33) = (   0.1261423   0.3659868   0.3727407  )
        34           Si  tau(  34) = (   0.0015211   0.4917791   0.4921712  )
        35           Si  tau(  35) = (   0.1205182   0.6099457   0.6197865  )
        36           Si  tau(  36) = (   0.6190410   0.3694820   0.3683352  )
        37           Si  tau(  37) = (   0.3673742   0.6124079   0.3696967  )
        38           Si  tau(  38) = (   0.3670911   0.3637899   0.6152131  )
        39           Si  tau(  39) = (   0.4929571   0.4859566   0.4912481  )
        40           Si  tau(  40) = (   0.6202449   0.6086819   0.6155959  )
        41           Si  tau(  41) = (   0.8693751   0.6077014   0.3699080  )
        42           Si  tau(  42) = (   0.8660854   0.3702927   0.6193628  )
        43           Si  tau(  43) = (   0.1270297   0.8544013   0.3731486  )
        44           Si  tau(  44) = (   0.2510828   0.7331017   0.4928097  )
        45           Si  tau(  45) = (   0.6205182   0.8525303   0.3728719  )
        46           Si  tau(  46) = (   0.3697249   0.8500775   0.6157012  )
        47           Si  tau(  47) = (   0.7447750   0.7281958   0.4893770  )
        48           Si  tau(  48) = (   0.8697211   0.8563824   0.6198382  )
        49           Si  tau(  49) = (  -0.0005166   0.2452206   0.7411208  )
        50           Si  tau(  50) = (   0.2464446  -0.0040891   0.7374889  )
        51           Si  tau(  51) = (   0.3703924   0.1263503   0.8649617  )
        52           Si  tau(  52) = (   0.4976564   0.2474453   0.7375351  )
        53           Si  tau(  53) = (   0.7454589   0.0017805   0.7390988  )
        54           Si  tau(  54) = (   0.8638344   0.1213718   0.8663907  )
        55           Si  tau(  55) = (   0.1281108   0.3670778   0.8675492  )
        56           Si  tau(  56) = (   0.2459670   0.4892622   0.7364197  )
        57           Si  tau(  57) = (   0.6205204   0.3681426   0.8600099  )
        58           Si  tau(  58) = (   0.3755505   0.6069313   0.8617332  )
        59           Si  tau(  59) = (   0.7439574   0.4898322   0.7361883  )
        60           Si  tau(  60) = (   0.8659145   0.6076346   0.8616686  )
        61           Si  tau(  61) = (  -0.0014105   0.7360518   0.7370063  )
        62           Si  tau(  62) = (   0.1253998   0.8556625   0.8648379  )
        63           Si  tau(  63) = (   0.4928332   0.7361548   0.7440239  )
        64           Si  tau(  64) = (   0.6181107   0.8561031   0.8613491  )

     number of k points=     1  Fermi-Dirac smearing, width (Ry)=  0.0100
                       cart. coord. in units 2pi/alat
        k(    1) = (   0.0000000   0.0000000   0.0000000), wk =   2.0000000

     Dense  grid:   100038 G-vectors     FFT dimensions: (  75,  72,  75)

     Estimated max dynamical RAM per process >     160.21 MB

     Estimated total dynamical RAM >     616.43 MB

     Initial potential from superposition of free atoms

     starting charge     255.9608, renormalised to     256.0000
     Starting wfcs are  256 randomized atomic wfcs

     total cpu time spent up to now is        4.3 secs

     Self-consistent Calculation

     iteration #  1     ecut=    30.00 Ry     beta= 0.50
     Davidson diagonalization with overlap
     ethr =  1.00E-02,  avg # of iterations =  3.0

     Threshold (ethr) on eigenvalues was too large:
     Diagonalizing with lowered threshold

     Davidson diagonalization with overlap
     ethr =  6.38E-04,  avg # of iterations =  3.0

     total cpu time spent up to now is        4.5 secs

     total energy              =    -503.82602605 Ry
     estimated scf accuracy    <       1.80803961 Ry

     iteration #  2     ecut=    30.00 Ry     beta= 0.50
     Davidson diagonalization with overlap
     ethr =  7.06E-04,  avg # of iterations =  1.0

     total cpu time spent up to now is        4.6 secs

     total energy              =    -503.81057047 Ry
     estimated scf accuracy    <       0.33954107 Ry

     iteration #  3     ecut=    30.00 Ry     beta= 0.50
     Davidson diagonalization with overlap
     ethr =  1.33E-04,  avg # of iterations =  4.0

     total cpu time spent up to now is        4.7 secs

     total energy              =    -503.82802931 Ry
     estimated scf accuracy    <       0.03215089 Ry

     iteration #  4     ecut=    30.00 Ry     beta= 0.50
     Davidson diagonalization with overlap
     c_bands:  1 eigenvalues not converged
     ethr =  1.26E-05,  avg # of iterations = 20.0

     total cpu time spent up to now is        4.9 secs

     total energy              =    -503.83517015 Ry
     estimated scf accuracy    <       0.00856856 Ry

     iteration #  5     ecut=    30.00 Ry     beta= 0.50
     Davidson diagonalization with overlap
     c_bands:  1 eigenvalues not converged
     ethr =  3.35E-06,  avg # of iterations = 20.0

     total cpu time spent up to now is        5.1 secs

     total energy              =    -503.83657714 Ry
     estimated scf accuracy    <       0.00131284 Ry

     iteration #  6     ecut=    30.00 Ry     beta= 0.50
     Davidson diagonalization with overlap
     ethr =  5.13E-07,  avg # of iterations = 16.0

     total cpu time spent up to now is        5.3 secs

     total energy              =    -503.83672682 Ry
     estimated scf accuracy    <       0.00026459 Ry

     iteration #  7     ecut=    30.00 Ry     beta= 0.50
     Davidson diagonalization with overlap
     ethr =  1.03E-07,  avg # of iterations =  5.0

     total cpu time spent up to now is        5.4 secs

     total energy              =    -503.83676785 Ry
     estimated scf accuracy    <       0.00003671 Ry

     iteration #  8     ecut=    30.00 Ry     beta= 0.50
     Davidson diagonalization with overlap
     ethr =  1.43E-08,  avg # of iterations =  5.0

     total cpu time spent up to now is        5.6 secs

     total energy              =    -503.83677652 Ry
     estimated scf accuracy    <       0.00001153 Ry

     iteration #  9     ecut=    30.00 Ry     beta= 0.50
     Davidson diagonalization with overlap
     ethr =  4.50E-09,  avg # of iterations =  3.0

     total cpu time spent up to now is        5.7 secs

     total energy              =    -503.83677789 Ry
     estimated scf accuracy    <       0.00000107 Ry

     iteration # 10     ecut=    30.00 Ry     beta= 0.50
     Davidson diagonalization with overlap
     ethr =  4.18E-10,  avg # of iterations =  5.0

     total cpu time spent up to now is        5.8 secs

     End of self-consistent calculation

          k = 0.0000 0.0000 0.0000 ( 12520 PWs)   bands (ev):

    -5.9094  -4.9650  -4.9353  -4.8667  -4.8241  -4.7775  -4.7407  -4.0982
    -4.0539  -4.0254  -4.0032  -3.9781  -3.9466  -3.9033  -3.8952  -3.8394
    -3.8082  -3.7626  -3.7403  -3.7229  -3.6374  -3.5756  -3.3248  -2.0184
    -1.9967  -1.9553  -1.9161  -1.9022  -1.8714  -1.8284  -1.8065  -1.7915
    -1.7766  -1.7361  -1.6966  -1.6610  -1.6510  -1.6187  -1.5889  -1.5190
    -1.4836  -1.0835  -0.9651  -0.9057  -0.8912   0.2541   0.3014   0.3518
     0.3697   0.3758   0.4051   0.4368   0.4449   0.4762   0.4938   0.5138
     0.5328   1.9714   1.9828   2.0135   2.0258   2.0381   2.0451   2.0591
     2.0719   2.0868   2.1084   2.1162   2.1203   2.1440   2.1492   2.1712
     2.1783   2.1892   2.1932   2.2101   2.2331   2.2604   2.2998   2.3214
     2.3379   2.3521   2.4024   2.4928   2.5177   2.5742   2.5959   2.9666
     2.9833   3.1181   3.1259   3.1492   3.1555   3.8839   3.8916   3.9076
     3.9224   3.9591   3.9647   3.9814   4.0152   4.1151   4.1299   4.1680
     4.2564   4.3549   4.4058   4.4244   4.4594   4.4663   4.4866   4.5267
     4.5370   4.5595   4.5802   4.5913   4.6103   4.6135   4.6366   4.6604
     4.7080   4.7259   4.7556   5.0168   5.3017   5.7357   5.8326   6.0465
     6.3711   6.4050   6.5974   6.6226   6.6549   6.6911   6.8349   6.8447
     6.9610   7.0304   7.0727   7.1258   7.1331   7.1513   7.1683   7.2194
     8.0065   8.0128   8.0442   8.0746   8.1403   8.1575   8.2293   8.2363
     8.2649   8.2839

     the Fermi energy is     6.1553 ev

!    total energy              =    -503.83677815 Ry
     estimated scf accuracy    <       0.00000030 Ry
     smearing contrib. (-TS)   =      -0.05238152 Ry
     internal energy E=F+TS    =    -503.78439663 Ry

     The total energy is F=E-TS. E is the sum of the following terms:
     one-electron contribution =     140.33655637 Ry
     hartree contribution      =      37.84767341 Ry
     xc contribution           =    -152.96945295 Ry
     ewald contribution        =    -528.99917346 Ry

     convergence has been achieved in  10 iterations

     Forces acting on atoms (cartesian axes, Ry/au):

     atom    1 type  1   force =    -0.00968630    0.00530777   -0.05747000
     atom    2 type  1   force =    -0.03552612   -0.01553017   -0.01104845
     atom    3 type  1   force =    -0.01308678    0.01479897   -0.01960969
     atom    4 type  1   force =     0.00935229    0.01489903   -0.03944499
     atom    5 type  1   force =     0.00124568   -0.02729914    0.02676564
     atom    6 type  1   force =     0.02376521    0.01089122   -0.06588505
     atom    7 type  1   force =     0.01350973    0.01391873    0.01335822
     atom    8 type  1   force =    -0.01803988    0.00637258   -0.01813098
     atom    9 type  1   force =     0.02388925   -0.01140660   -0.00223598
     atom   10 type  1   force =     0.00475641   -0.01296850   -0.04784177
     atom   11 type  1   force =    -0.02376016   -0.00907563   -0.03246073
     atom   12 type  1   force =    -0.00721961   -0.01569656   -0.01111889
     atom   13 type  1   force =    -0.01846943   -0.00799427    0.00387588
     atom   14 type  1   force =     0.00333949    0.01863629   -0.00540884
     atom   15 type  1   force =    -0.00715201   -0.01834613   -0.04575239
     atom   16 type  1   force =    -0.00607874    0.03072067   -0.01265640
     atom   17 type  1   force =     0.02424724    0.02226199    0.00132832
     atom   18 type  1   force =     0.01707268   -0.02794274    0.00981487
     atom   19 type  1   force =    -0.03211216   -0.00197031   -0.01597375
     atom   20 type  1   force =     0.02552698    0.01347567   -0.04034652
     atom   21 type  1   force =    -0.01880350   -0.02523952    0.00660166
     atom   22 type  1   force =     0.01651710    0.02168182   -0.00250413
     atom   23 type  1   force =    -0.02410957   -0.02157285   -0.06688054
     atom   24 type  1   force =     0.03926094    0.00242587    0.03001600
     atom   25 type  1   force =    -0.04039805   -0.00728740    0.01046969
     atom   26 type  1   force =    -0.01279655    0.01711931    0.02335127
     atom   27 type  1   force =     0.00840746   -0.01487116   -0.00477511
     atom   28 type  1   force =     0.00283531   -0.02274302   -0.02065081
     atom   29 type  1   force =     0.01667556   -0.02725928   -0.00476975
     atom   30 type  1   force =    -0.01063220    0.00951520    0.01833622
     atom   31 type  1   force =     0.03008232    0.00740451    0.00035088
     atom   32 type  1   force =     0.01800702   -0.00039951   -0.01037936
     atom   33 type  1   force =    -0.00213609    0.01354527   -0.00867958
     atom   34 type  1   force =    -0.03000775   -0.02216319    0.01333563
     atom   35 type  1   force =     0.01231983    0.02180481   -0.02263012
     atom   36 type  1   force =    -0.00205622   -0.01109962   -0.01473018
     atom   37 type  1   force =     0.02152902   -0.01667281   -0.00240951
     atom   38 type  1   force =     0.01154558    0.00487063   -0.00615584
     atom   39 type  1   force =    -0.00354901    0.01348242    0.01176357
     atom   40 type  1   force =    -0.02355431    0.01634667   -0.00309087
     atom   41 type  1   force =     0.02576104    0.01159343   -0.01682372
     atom   42 type  1   force =     0.04209035   -0.01721266   -0.02158502
     atom   43 type  1   force =    -0.00701646    0.01186407   -0.00900093
     atom   44 type  1   force =    -0.03352792   -0.01814396    0.01613920
     atom   45 type  1   force =    -0.02896927    0.00470440   -0.01006336
     atom   46 type  1   force =     0.01125411    0.02878721    0.00879085
     atom   47 type  1   force =     0.01102087    0.01765572    0.03290366
     atom   48 type  1   force =     0.01060273   -0.00101442   -0.03700127
     atom   49 type  1   force =    -0.02818470    0.00966604    0.02369534
     atom   50 type  1   force =     0.00682945    0.02409004    0.01743469
     atom   51 type  1   force =     0.00393769   -0.02297358    0.02119874
     atom   52 type  1   force =    -0.00795252   -0.01688955    0.00934798
     atom   53 type  1   force =    -0.01133251   -0.01006905    0.00917848
     atom   54 type  1   force =     0.03477302    0.01312786    0.03834813
     atom   55 type  1   force =    -0.02060874    0.00039926    0.02057327
     atom   56 type  1   force =     0.01053014   -0.00980726    0.02645951
     atom   57 type  1   force =    -0.00017054    0.00354495    0.05211869
     atom   58 type  1   force =    -0.02145138    0.00533371    0.04776670
     atom   59 type  1   force =    -0.00778964    0.00163179    0.02669834
     atom   60 type  1   force =     0.03367024    0.02700800    0.04541612
     atom   61 type  1   force =    -0.01797596   -0.01048773    0.03755673
     atom   62 type  1   force =    -0.02188605   -0.00501963    0.04018163
     atom   63 type  1   force =     0.02068595   -0.02352191   -0.01893442
     atom   64 type  1   force =     0.01099947    0.01379221    0.06327305

     Total force =     0.304179     Total SCF correction =     0.000948


     Computing stress (Cartesian axis) and pressure

          total   stress  (Ry/bohr**3)                   (kbar)     P=       -5.68
  -0.00006107   0.00003198   0.00001878           -8.98        4.70        2.76
   0.00003198   0.00004018   0.00001953            4.70        5.91        2.87
   0.00001878   0.00001953  -0.00009488            2.76        2.87      -13.96

 
     init_run     :      0.99s CPU      4.25s WALL (       1 calls)
     electrons    :      1.35s CPU      1.47s WALL (       1 calls)
     forces       :      0.04s CPU      0.04s WALL (       1 calls)
     stress       :      0.15s CPU      0.16s WALL (       1 calls)

     Called by init_run:
     wfcinit      :      0.43s CPU      3.54s WALL (       1 calls)
                                        3.54s GPU  (       1 calls)
     potinit      :      0.15s CPU      0.22s WALL (       1 calls)
     hinit0       :      0.39s CPU      0.42s WALL (       1 calls)

     Called by electrons:
     c_bands      :      1.00s CPU      1.07s WALL (      11 calls)
     sum_band     :      0.20s CPU      0.22s WALL (      11 calls)
     v_of_rho     :      0.09s CPU      0.17s WALL (      11 calls)
     mix_rho      :      0.06s CPU      0.08s WALL (      11 calls)

     Called by c_bands:
     init_us_2    :      0.03s CPU      0.03s WALL (      23 calls)
     init_us_2:gp :      0.03s CPU      0.03s WALL (      23 calls)
     regterg      :      0.92s CPU      0.97s WALL (      11 calls)

     Called by *egterg:
     rdiaghg      :      0.45s CPU      1.09s WALL (      95 calls)
                                        1.07s GPU  (      95 calls)
     h_psi        :      0.75s CPU      3.24s WALL (      97 calls)
                                        3.24s GPU  (      97 calls)
     g_psi        :      0.00s CPU      0.00s WALL (      85 calls)
                                        0.00s GPU  (      85 calls)

     Called by h_psi:
     h_psi:calbec :      0.39s CPU      2.82s WALL (      97 calls)
                                        2.82s GPU  (      97 calls)
     vloc_psi     :      0.31s CPU      0.37s WALL (      97 calls)
                                        0.37s GPU  (      97 calls)
     add_vuspsi   :      0.04s CPU      0.05s WALL (      97 calls)
                                        0.05s GPU  (      97 calls)

     General routines
     calbec       :      0.39s CPU      2.82s WALL (     102 calls)
     fft          :      0.42s CPU      0.52s WALL (      95 calls)
                                        0.10s GPU  (      61 calls)
     ffts         :      0.02s CPU      0.02s WALL (      11 calls)
     fftw         :      0.35s CPU      0.47s WALL (    1265 calls)
                                        0.42s GPU  (    1265 calls)
 
     Parallel routines
 
     PWSCF        :      2.57s CPU      5.98s WALL

 
   This run was terminated on:  11:15: 2  10May2023            

=------------------------------------------------------------------------------=
   JOB DONE.
=------------------------------------------------------------------------------=
