An instance of this daemon is already running

     Program PWSCF v.7.1 starts on 10May2023 at 11:16:29 

     This program is part of the open-source Quantum ESPRESSO suite
     for quantum simulation of materials; please cite
         "P. Giannozzi et al., J. Phys.:Condens. Matter 21 395502 (2009);
         "P. Giannozzi et al., J. Phys.:Condens. Matter 29 465901 (2017);
         "P. Giannozzi et al., J. Chem. Phys. 152 154105 (2020);
          URL http://www.quantum-espresso.org", 
     in publications or presentations arising from this work. More details at
     http://www.quantum-espresso.org/quote

     Parallel version (MPI & OpenMP), running on       4 processor cores
     Number of MPI processes:                 4
     Threads/MPI process:                     1

     MPI processes distributed on     1 nodes
     150160 MiB available memory on the printing compute node when the environment starts
 
     Reading input from pw-si-46.in
Warning: card &CELL ignored
Warning: card / ignored

     Current dimensions of program PWSCF are:
     Max number of different atomic species (ntypx) = 10
     Max number of k-points (npk) =  40000
     Max angular momentum in pseudopotentials (lmaxx) =  4

     IMPORTANT: XC functional enforced from input :
     Exchange-correlation= PBE
                           (   1   4   3   4   0   0   0)
     Any further DFT definition will be discarded
     Please, verify this is what you really want


     gamma-point specific algorithms are used
 
     K-points division:     npool     =       2
     R & G space division:  proc/nbgrp/npool/nimage =       2
     Subspace diagonalization in iterative solution of the eigenvalue problem:
     a serial algorithm will be used

     Message from routine divide_et_impera:
     suboptimal parallelization: some nodes have no k-points
 
     Parallelization info
     --------------------
     sticks:   dense  smooth     PW     G-vecs:    dense   smooth      PW
     Min        2057    2057    545               100757   100757   13697
     Max        2058    2058    548               100758   100758   13700
     Sum        4115    4115   1093               201515   201515   27397
 
     Using Slab Decomposition
 


     bravais-lattice index     =            0
     lattice parameter (alat)  =      20.5951  a.u.
     unit-cell volume          =    9077.1037 (a.u.)^3
     number of atoms/cell      =           64
     number of atomic types    =            1
     number of electrons       =       256.00
     number of Kohn-Sham states=          154
     kinetic-energy cutoff     =      30.0000  Ry
     charge density cutoff     =     120.0000  Ry
     scf convergence threshold =      1.0E-06
     mixing beta               =       0.5000
     number of iterations used =            8  plain     mixing
     Exchange-correlation= PBE
                           (   1   4   3   4   0   0   0)

     GPU acceleration is ACTIVE.
     GPU-aware MPI enabled

     Message from routine print_cuda_info:
     High GPU oversubscription detected. Are you sure this is what you want?

     celldm(1)=  20.595052  celldm(2)=   0.000000  celldm(3)=   0.000000
     celldm(4)=   0.000000  celldm(5)=   0.000000  celldm(6)=   0.000000

     crystal axes: (cart. coord. in units of alat)
               a(1) = (   1.000000   0.000000   0.000000 )  
               a(2) = (   0.000000   1.014983   0.000000 )  
               a(3) = (   0.000000   0.000000   1.023764 )  

     reciprocal axes: (cart. coord. in units 2 pi/alat)
               b(1) = (  1.000000  0.000000  0.000000 )  
               b(2) = (  0.000000  0.985238  0.000000 )  
               b(3) = (  0.000000  0.000000  0.976787 )  


     PseudoPot. # 1 for Si read from file:
     /home/ppiaggi/pseudos/Si_ONCV_PBE_sr.upf
     MD5 check sum: 8553c464762ac42b85b1eed164b4d029
     Pseudo is Norm-conserving, Zval =  4.0
     Generated using ONCVPSP code by D. R. Hamann
     Using radial grid of 1510 points,  4 beta functions with: 
                l(1) =   0
                l(2) =   0
                l(3) =   1
                l(4) =   1

     atomic species   valence    mass     pseudopotential
        Si             4.00    28.08500     Si( 1.00)

     No symmetry found



   Cartesian axes

     site n.     atom                  positions (alat units)
         1           Si  tau(   1) = (  -0.0029856  -0.0009102  -0.0029585  )
         2           Si  tau(   2) = (  -0.0012757   0.2519118   0.2639112  )
         3           Si  tau(   3) = (   0.2480620  -0.0027387   0.2634274  )
         4           Si  tau(   4) = (   0.2459093   0.2485816  -0.0046874  )
         5           Si  tau(   5) = (   0.1269509   0.1244045   0.1258483  )
         6           Si  tau(   6) = (   0.4945187  -0.0012469   0.0015199  )
         7           Si  tau(   7) = (   0.4945013   0.2531117   0.2635196  )
         8           Si  tau(   8) = (   0.6146685   0.1241073   0.1290967  )
         9           Si  tau(   9) = (   0.7373587  -0.0020328   0.2570447  )
        10           Si  tau(  10) = (   0.7413033   0.2498501  -0.0030396  )
        11           Si  tau(  11) = (   0.0023031   0.5010012  -0.0039939  )
        12           Si  tau(  12) = (   0.2430558   0.4992793   0.2637556  )
        13           Si  tau(  13) = (   0.1254682   0.6202099   0.1335841  )
        14           Si  tau(  14) = (   0.3732006   0.3769749   0.1279777  )
        15           Si  tau(  15) = (   0.4916520   0.4962795  -0.0015725  )
        16           Si  tau(  16) = (   0.6167621   0.6207423   0.1281341  )
        17           Si  tau(  17) = (   0.8632343   0.3734740   0.1276931  )
        18           Si  tau(  18) = (   0.7362291   0.5019266   0.2588231  )
        19           Si  tau(  19) = (   0.0010181   0.7471927   0.2613130  )
        20           Si  tau(  20) = (   0.2460942   0.7496493   0.0023376  )
        21           Si  tau(  21) = (   0.3718877   0.8788256   0.1266087  )
        22           Si  tau(  22) = (   0.4931549   0.7514501   0.2551069  )
        23           Si  tau(  23) = (   0.7354195   0.7477992   0.0008767  )
        24           Si  tau(  24) = (   0.8601052   0.8749143   0.1267472  )
        25           Si  tau(  25) = (   0.0012530  -0.0011713   0.5162868  )
        26           Si  tau(  26) = (   0.2447335   0.2458513   0.5201071  )
        27           Si  tau(  27) = (   0.1230475   0.1285438   0.6523818  )
        28           Si  tau(  28) = (   0.3712691   0.1255276   0.3879092  )
        29           Si  tau(  29) = (   0.4972962  -0.0037741   0.5146963  )
        30           Si  tau(  30) = (   0.6140176   0.1293797   0.6508236  )
        31           Si  tau(  31) = (   0.8619215   0.1242260   0.3889004  )
        32           Si  tau(  32) = (   0.7371385   0.2460180   0.5182173  )
        33           Si  tau(  33) = (   0.1264758   0.3784624   0.3862212  )
        34           Si  tau(  34) = (  -0.0001384   0.5006379   0.5160134  )
        35           Si  tau(  35) = (   0.1213251   0.6279964   0.6524139  )
        36           Si  tau(  36) = (   0.6142009   0.3789799   0.3929128  )
        37           Si  tau(  37) = (   0.3711098   0.6244555   0.3897481  )
        38           Si  tau(  38) = (   0.3698769   0.3743367   0.6485624  )
        39           Si  tau(  39) = (   0.4941327   0.4974767   0.5188496  )
        40           Si  tau(  40) = (   0.6170875   0.6202308   0.6444023  )
        41           Si  tau(  41) = (   0.8619126   0.6203526   0.3844485  )
        42           Si  tau(  42) = (   0.8604936   0.3719288   0.6470733  )
        43           Si  tau(  43) = (   0.1226370   0.8783878   0.3856137  )
        44           Si  tau(  44) = (   0.2446466   0.7502474   0.5187638  )
        45           Si  tau(  45) = (   0.6186987   0.8753933   0.3868707  )
        46           Si  tau(  46) = (   0.3675936   0.8727282   0.6504500  )
        47           Si  tau(  47) = (   0.7350380   0.7469235   0.5205555  )
        48           Si  tau(  48) = (   0.8607383   0.8762376   0.6491003  )
        49           Si  tau(  49) = (  -0.0016153   0.2486856   0.7820855  )
        50           Si  tau(  50) = (   0.2483495   0.0025831   0.7779990  )
        51           Si  tau(  51) = (   0.3699517   0.1253145   0.9108804  )
        52           Si  tau(  52) = (   0.4904751   0.2476164   0.7753513  )
        53           Si  tau(  53) = (   0.7428721   0.0028399   0.7751919  )
        54           Si  tau(  54) = (   0.8603470   0.1207373   0.9055913  )
        55           Si  tau(  55) = (   0.1252710   0.3712650   0.9076229  )
        56           Si  tau(  56) = (   0.2455445   0.5037999   0.7793605  )
        57           Si  tau(  57) = (   0.6137075   0.3709999   0.9105189  )
        58           Si  tau(  58) = (   0.3657188   0.6229347   0.9089979  )
        59           Si  tau(  59) = (   0.7363664   0.4985817   0.7816814  )
        60           Si  tau(  60) = (   0.8663965   0.6217611   0.9046730  )
        61           Si  tau(  61) = (  -0.0022596   0.7504871   0.7765136  )
        62           Si  tau(  62) = (   0.1252635   0.8732092   0.9031086  )
        63           Si  tau(  63) = (   0.4910650   0.7493165   0.7784400  )
        64           Si  tau(  64) = (   0.6198468   0.8706866   0.9077068  )

     number of k points=     1  Fermi-Dirac smearing, width (Ry)=  0.0100
                       cart. coord. in units 2pi/alat
        k(    1) = (   0.0000000   0.0000000   0.0000000), wk =   2.0000000

     Dense  grid:   100758 G-vectors     FFT dimensions: (  72,  75,  75)

     Estimated max dynamical RAM per process >     161.24 MB

     Estimated total dynamical RAM >     620.37 MB

     Initial potential from superposition of free atoms

     starting charge     255.9608, renormalised to     256.0000
     Starting wfcs are  256 randomized atomic wfcs

     total cpu time spent up to now is        4.2 secs

     Self-consistent Calculation

     iteration #  1     ecut=    30.00 Ry     beta= 0.50
     Davidson diagonalization with overlap
     ethr =  1.00E-02,  avg # of iterations =  3.0

     Threshold (ethr) on eigenvalues was too large:
     Diagonalizing with lowered threshold

     Davidson diagonalization with overlap
     ethr =  6.30E-04,  avg # of iterations =  3.0

     total cpu time spent up to now is        4.4 secs

     total energy              =    -503.77112687 Ry
     estimated scf accuracy    <       1.78606373 Ry

     iteration #  2     ecut=    30.00 Ry     beta= 0.50
     Davidson diagonalization with overlap
     ethr =  6.98E-04,  avg # of iterations =  1.0

     total cpu time spent up to now is        4.4 secs

     total energy              =    -503.75640063 Ry
     estimated scf accuracy    <       0.33701430 Ry

     iteration #  3     ecut=    30.00 Ry     beta= 0.50
     Davidson diagonalization with overlap
     ethr =  1.32E-04,  avg # of iterations =  4.0

     total cpu time spent up to now is        4.5 secs

     total energy              =    -503.77230048 Ry
     estimated scf accuracy    <       0.04224116 Ry

     iteration #  4     ecut=    30.00 Ry     beta= 0.50
     Davidson diagonalization with overlap
     c_bands:  3 eigenvalues not converged
     ethr =  1.65E-05,  avg # of iterations = 20.0

     total cpu time spent up to now is        4.7 secs

     total energy              =    -503.78134573 Ry
     estimated scf accuracy    <       0.00839208 Ry

     iteration #  5     ecut=    30.00 Ry     beta= 0.50
     Davidson diagonalization with overlap
     c_bands:  1 eigenvalues not converged
     ethr =  3.28E-06,  avg # of iterations = 20.0

     total cpu time spent up to now is        5.0 secs

     total energy              =    -503.78277521 Ry
     estimated scf accuracy    <       0.00125945 Ry

     iteration #  6     ecut=    30.00 Ry     beta= 0.50
     Davidson diagonalization with overlap
     ethr =  4.92E-07,  avg # of iterations =  4.0

     total cpu time spent up to now is        5.1 secs

     total energy              =    -503.78290209 Ry
     estimated scf accuracy    <       0.00037093 Ry

     iteration #  7     ecut=    30.00 Ry     beta= 0.50
     Davidson diagonalization with overlap
     ethr =  1.45E-07,  avg # of iterations =  4.0

     total cpu time spent up to now is        5.2 secs

     total energy              =    -503.78295742 Ry
     estimated scf accuracy    <       0.00005116 Ry

     iteration #  8     ecut=    30.00 Ry     beta= 0.50
     Davidson diagonalization with overlap
     ethr =  2.00E-08,  avg # of iterations =  5.0

     total cpu time spent up to now is        5.3 secs

     total energy              =    -503.78296989 Ry
     estimated scf accuracy    <       0.00001273 Ry

     iteration #  9     ecut=    30.00 Ry     beta= 0.50
     Davidson diagonalization with overlap
     ethr =  4.97E-09,  avg # of iterations =  3.0

     total cpu time spent up to now is        5.4 secs

     total energy              =    -503.78297103 Ry
     estimated scf accuracy    <       0.00000189 Ry

     iteration # 10     ecut=    30.00 Ry     beta= 0.50
     Davidson diagonalization with overlap
     ethr =  7.39E-10,  avg # of iterations =  5.0

     total cpu time spent up to now is        5.5 secs

     End of self-consistent calculation

          k = 0.0000 0.0000 0.0000 ( 12618 PWs)   bands (ev):

    -5.9742  -5.0474  -5.0097  -4.9842  -4.8284  -4.8148  -4.7669  -4.2723
    -4.1365  -4.1240  -4.0558  -4.0125  -3.9831  -3.9719  -3.9314  -3.9127
    -3.8257  -3.7455  -3.7149  -3.7056  -3.6123  -3.5909  -3.3417  -2.1852
    -2.1011  -2.0715  -2.0311  -1.9506  -1.9184  -1.8636  -1.8436  -1.8185
    -1.7931  -1.7716  -1.7419  -1.7026  -1.6646  -1.6421  -1.6204  -1.5702
    -1.5196  -1.1512  -1.0441  -0.9582  -0.8676   0.2174   0.2496   0.2664
     0.2895   0.2971   0.3146   0.3591   0.3704   0.4064   0.4306   0.4504
     0.4569   1.8304   1.8576   1.8734   1.9063   1.9221   1.9420   1.9782
     1.9983   2.0050   2.0400   2.0474   2.0858   2.0969   2.1119   2.1295
     2.1520   2.1865   2.1930   2.2294   2.2590   2.2762   2.2960   2.3262
     2.3471   2.3600   2.3848   2.4332   2.4598   2.4788   2.5093   2.9011
     2.9205   2.9995   3.0434   3.0660   3.1544   3.7326   3.7836   3.8568
     3.8695   3.8799   3.9546   3.9753   4.0096   4.0585   4.0957   4.1226
     4.1437   4.1540   4.2536   4.3010   4.3373   4.3824   4.3871   4.4057
     4.4748   4.4893   4.5177   4.5447   4.5878   4.6196   4.6510   4.6776
     4.7640   4.7754   4.8296   4.9718   5.1121   5.6683   5.7690   5.9541
     6.2459   6.3473   6.4192   6.5417   6.5941   6.6973   6.7578   6.8944
     6.9030   6.9665   7.0026   7.0237   7.0339   7.0578   7.0760   7.0949
     7.8603   7.9528   7.9618   7.9830   8.0280   8.0728   8.0873   8.1456
     8.1751   8.1795

     the Fermi energy is     6.0645 ev

!    total energy              =    -503.78297147 Ry
     estimated scf accuracy    <       0.00000035 Ry
     smearing contrib. (-TS)   =      -0.05349214 Ry
     internal energy E=F+TS    =    -503.72947933 Ry

     The total energy is F=E-TS. E is the sum of the following terms:
     one-electron contribution =     137.48301928 Ry
     hartree contribution      =      38.59702097 Ry
     xc contribution           =    -152.73567331 Ry
     ewald contribution        =    -527.07384627 Ry

     convergence has been achieved in  10 iterations

     Forces acting on atoms (cartesian axes, Ry/au):

     atom    1 type  1   force =    -0.00973597   -0.03896959    0.03196193
     atom    2 type  1   force =    -0.02198184   -0.01112825   -0.02818241
     atom    3 type  1   force =     0.00023715   -0.01698545   -0.03120621
     atom    4 type  1   force =     0.01742682    0.00988149    0.07779383
     atom    5 type  1   force =    -0.02761513   -0.00962582    0.03018476
     atom    6 type  1   force =     0.01217026   -0.04020688    0.01858542
     atom    7 type  1   force =    -0.00102861   -0.00414331   -0.02083472
     atom    8 type  1   force =     0.00822015    0.00974841    0.01318852
     atom    9 type  1   force =     0.01732490   -0.02652405    0.00209301
     atom   10 type  1   force =    -0.00022956   -0.01520757    0.05754110
     atom   11 type  1   force =    -0.03232639   -0.00594473    0.05406793
     atom   12 type  1   force =     0.04765628    0.00862639   -0.02695505
     atom   13 type  1   force =    -0.01932940    0.02018169   -0.01046956
     atom   14 type  1   force =    -0.03199259   -0.01945545    0.02395229
     atom   15 type  1   force =     0.00515431    0.02390980    0.04094206
     atom   16 type  1   force =    -0.02146925    0.01245965    0.00377801
     atom   17 type  1   force =     0.03340470    0.01041418    0.01374771
     atom   18 type  1   force =     0.01510926   -0.02580894   -0.00734628
     atom   19 type  1   force =    -0.04389638    0.01203142   -0.01659365
     atom   20 type  1   force =    -0.00346452    0.00723048    0.04060030
     atom   21 type  1   force =    -0.01255600    0.02254141    0.01816120
     atom   22 type  1   force =     0.00440442   -0.00353987    0.00875742
     atom   23 type  1   force =     0.04486853   -0.01877853    0.03386958
     atom   24 type  1   force =     0.04006689    0.02450163    0.01841260
     atom   25 type  1   force =    -0.03402002   -0.01936179    0.00787970
     atom   26 type  1   force =     0.00938270    0.02351426   -0.01282893
     atom   27 type  1   force =    -0.01556120   -0.02777492   -0.01069572
     atom   28 type  1   force =    -0.00116497   -0.01435038    0.01590869
     atom   29 type  1   force =    -0.01147327   -0.01957255    0.01700349
     atom   30 type  1   force =     0.00568772   -0.04156294   -0.02013645
     atom   31 type  1   force =     0.03305201   -0.01338334   -0.00173002
     atom   32 type  1   force =     0.00721489    0.01845404   -0.00393945
     atom   33 type  1   force =    -0.02696450   -0.03395028    0.03836755
     atom   34 type  1   force =    -0.03272203   -0.00107864    0.01065997
     atom   35 type  1   force =    -0.00634766   -0.01237861   -0.02744809
     atom   36 type  1   force =     0.02268765   -0.02376252   -0.01411737
     atom   37 type  1   force =    -0.00573633    0.00752847   -0.00045361
     atom   38 type  1   force =    -0.01596126    0.00272543   -0.00258163
     atom   39 type  1   force =    -0.01932595    0.01409804    0.00401603
     atom   40 type  1   force =    -0.01563513    0.01046256    0.03477053
     atom   41 type  1   force =     0.03483800    0.02467151    0.02823759
     atom   42 type  1   force =     0.03868345    0.00652338    0.00840933
     atom   43 type  1   force =    -0.00156426    0.01425522    0.01926087
     atom   44 type  1   force =     0.00020950    0.00631241   -0.00498296
     atom   45 type  1   force =    -0.00607754    0.02089072    0.00028543
     atom   46 type  1   force =     0.00660629    0.04941039   -0.01283375
     atom   47 type  1   force =     0.03182701    0.01273715   -0.02247900
     atom   48 type  1   force =     0.03486817    0.02447191   -0.01062995
     atom   49 type  1   force =    -0.04033180    0.00476157   -0.01734561
     atom   50 type  1   force =    -0.00104634   -0.04436862   -0.00316763
     atom   51 type  1   force =     0.01270744   -0.02220249   -0.06037109
     atom   52 type  1   force =    -0.00165824    0.01510906    0.02244639
     atom   53 type  1   force =    -0.02211948   -0.05287999   -0.00604260
     atom   54 type  1   force =     0.05222205    0.00626129   -0.02495373
     atom   55 type  1   force =    -0.01983189    0.02378970   -0.05485804
     atom   56 type  1   force =    -0.00380328   -0.02325129   -0.01468473
     atom   57 type  1   force =    -0.00016979   -0.00091088   -0.06595211
     atom   58 type  1   force =     0.01874152    0.01147156   -0.03718965
     atom   59 type  1   force =     0.01320843   -0.00869008   -0.02133540
     atom   60 type  1   force =     0.01273827    0.01771088   -0.02268645
     atom   61 type  1   force =    -0.03677153    0.01264586    0.00174938
     atom   62 type  1   force =    -0.01933115    0.04758305   -0.02108188
     atom   63 type  1   force =     0.01073474   -0.01020415   -0.00666037
     atom   64 type  1   force =    -0.02821028    0.06908691   -0.05385851

     Total force =     0.344340     Total SCF correction =     0.001016


     Computing stress (Cartesian axis) and pressure

          total   stress  (Ry/bohr**3)                   (kbar)     P=      -10.45
  -0.00000993  -0.00004408   0.00003602           -1.46       -6.48        5.30
  -0.00004408  -0.00007396   0.00001113           -6.48      -10.88        1.64
   0.00003602   0.00001113  -0.00012920            5.30        1.64      -19.01

 
     init_run     :      0.89s CPU      4.10s WALL (       1 calls)
     electrons    :      1.24s CPU      1.38s WALL (       1 calls)
     forces       :      0.03s CPU      0.04s WALL (       1 calls)
     stress       :      0.15s CPU      0.16s WALL (       1 calls)

     Called by init_run:
     wfcinit      :      0.42s CPU      3.46s WALL (       1 calls)
                                        3.46s GPU  (       1 calls)
     potinit      :      0.15s CPU      0.24s WALL (       1 calls)
     hinit0       :      0.30s CPU      0.33s WALL (       1 calls)

     Called by electrons:
     c_bands      :      0.90s CPU      0.97s WALL (      11 calls)
     sum_band     :      0.18s CPU      0.22s WALL (      11 calls)
     v_of_rho     :      0.09s CPU      0.18s WALL (      11 calls)
     mix_rho      :      0.07s CPU      0.08s WALL (      11 calls)

     Called by c_bands:
     init_us_2    :      0.03s CPU      0.03s WALL (      23 calls)
     init_us_2:gp :      0.03s CPU      0.03s WALL (      23 calls)
     regterg      :      0.82s CPU      0.89s WALL (      11 calls)

     Called by *egterg:
     rdiaghg      :      0.39s CPU      1.02s WALL (      82 calls)
                                        1.00s GPU  (      82 calls)
     h_psi        :      0.70s CPU      3.17s WALL (      84 calls)
                                        3.17s GPU  (      84 calls)
     g_psi        :      0.00s CPU      0.00s WALL (      72 calls)
                                        0.00s GPU  (      72 calls)

     Called by h_psi:
     h_psi:calbec :      0.37s CPU      2.77s WALL (      84 calls)
                                        2.77s GPU  (      84 calls)
     vloc_psi     :      0.30s CPU      0.35s WALL (      84 calls)
                                        0.35s GPU  (      84 calls)
     add_vuspsi   :      0.03s CPU      0.04s WALL (      84 calls)
                                        0.04s GPU  (      84 calls)

     General routines
     calbec       :      0.37s CPU      2.78s WALL (      89 calls)
     fft          :      0.33s CPU      0.44s WALL (      95 calls)
                                        0.12s GPU  (      61 calls)
     ffts         :      0.02s CPU      0.02s WALL (      11 calls)
     fftw         :      0.33s CPU      0.45s WALL (    1233 calls)
                                        0.40s GPU  (    1233 calls)
 
     Parallel routines
 
     PWSCF        :      2.35s CPU      5.75s WALL

 
   This run was terminated on:  11:16:35  10May2023            

=------------------------------------------------------------------------------=
   JOB DONE.
=------------------------------------------------------------------------------=
