An instance of this daemon is already running

     Program PWSCF v.7.1 starts on 10May2023 at 11:19:49 

     This program is part of the open-source Quantum ESPRESSO suite
     for quantum simulation of materials; please cite
         "P. Giannozzi et al., J. Phys.:Condens. Matter 21 395502 (2009);
         "P. Giannozzi et al., J. Phys.:Condens. Matter 29 465901 (2017);
         "P. Giannozzi et al., J. Chem. Phys. 152 154105 (2020);
          URL http://www.quantum-espresso.org", 
     in publications or presentations arising from this work. More details at
     http://www.quantum-espresso.org/quote

     Parallel version (MPI & OpenMP), running on       4 processor cores
     Number of MPI processes:                 4
     Threads/MPI process:                     1

     MPI processes distributed on     1 nodes
     150351 MiB available memory on the printing compute node when the environment starts
 
     Reading input from pw-si-70.in
Warning: card &CELL ignored
Warning: card / ignored

     Current dimensions of program PWSCF are:
     Max number of different atomic species (ntypx) = 10
     Max number of k-points (npk) =  40000
     Max angular momentum in pseudopotentials (lmaxx) =  4

     IMPORTANT: XC functional enforced from input :
     Exchange-correlation= PBE
                           (   1   4   3   4   0   0   0)
     Any further DFT definition will be discarded
     Please, verify this is what you really want


     gamma-point specific algorithms are used
 
     K-points division:     npool     =       2
     R & G space division:  proc/nbgrp/npool/nimage =       2
     Subspace diagonalization in iterative solution of the eigenvalue problem:
     a serial algorithm will be used

     Message from routine divide_et_impera:
     suboptimal parallelization: some nodes have no k-points
 
     Parallelization info
     --------------------
     sticks:   dense  smooth     PW     G-vecs:    dense   smooth      PW
     Min        2107    2107    554               102819   102819   13930
     Max        2110    2110    555               102822   102822   13935
     Sum        4217    4217   1109               205641   205641   27865
 
     Using Slab Decomposition
 


     bravais-lattice index     =            0
     lattice parameter (alat)  =      21.0688  a.u.
     unit-cell volume          =    9263.8803 (a.u.)^3
     number of atoms/cell      =           64
     number of atomic types    =            1
     number of electrons       =       256.00
     number of Kohn-Sham states=          154
     kinetic-energy cutoff     =      30.0000  Ry
     charge density cutoff     =     120.0000  Ry
     scf convergence threshold =      1.0E-06
     mixing beta               =       0.5000
     number of iterations used =            8  plain     mixing
     Exchange-correlation= PBE
                           (   1   4   3   4   0   0   0)

     GPU acceleration is ACTIVE.
     GPU-aware MPI enabled

     Message from routine print_cuda_info:
     High GPU oversubscription detected. Are you sure this is what you want?

     celldm(1)=  21.068823  celldm(2)=   0.000000  celldm(3)=   0.000000
     celldm(4)=   0.000000  celldm(5)=   0.000000  celldm(6)=   0.000000

     crystal axes: (cart. coord. in units of alat)
               a(1) = (   1.000000   0.000000   0.000000 )  
               a(2) = (   0.000000   0.997168   0.000000 )  
               a(3) = (   0.000000   0.000000   0.993353 )  

     reciprocal axes: (cart. coord. in units 2 pi/alat)
               b(1) = (  1.000000  0.000000  0.000000 )  
               b(2) = (  0.000000  1.002840  0.000000 )  
               b(3) = (  0.000000  0.000000  1.006692 )  


     PseudoPot. # 1 for Si read from file:
     /home/ppiaggi/pseudos/Si_ONCV_PBE_sr.upf
     MD5 check sum: 8553c464762ac42b85b1eed164b4d029
     Pseudo is Norm-conserving, Zval =  4.0
     Generated using ONCVPSP code by D. R. Hamann
     Using radial grid of 1510 points,  4 beta functions with: 
                l(1) =   0
                l(2) =   0
                l(3) =   1
                l(4) =   1

     atomic species   valence    mass     pseudopotential
        Si             4.00    28.08500     Si( 1.00)

     No symmetry found



   Cartesian axes

     site n.     atom                  positions (alat units)
         1           Si  tau(   1) = (  -0.0001054  -0.0008581   0.0000437  )
         2           Si  tau(   2) = (   0.0024611   0.2452430   0.2429440  )
         3           Si  tau(   3) = (   0.2459890  -0.0025836   0.2433736  )
         4           Si  tau(   4) = (   0.2450431   0.2445082  -0.0014465  )
         5           Si  tau(   5) = (   0.1229642   0.1246468   0.1242550  )
         6           Si  tau(   6) = (   0.4935620  -0.0019499   0.0028929  )
         7           Si  tau(   7) = (   0.4913994   0.2491907   0.2424559  )
         8           Si  tau(   8) = (   0.6223681   0.1208132   0.1186193  )
         9           Si  tau(   9) = (   0.7408552   0.0000604   0.2438330  )
        10           Si  tau(  10) = (   0.7379915   0.2411387  -0.0020345  )
        11           Si  tau(  11) = (   0.0004445   0.4888361   0.0030675  )
        12           Si  tau(  12) = (   0.2477760   0.4885490   0.2468236  )
        13           Si  tau(  13) = (   0.1207986   0.6153643   0.1220095  )
        14           Si  tau(  14) = (   0.3705128   0.3688604   0.1235248  )
        15           Si  tau(  15) = (   0.4967923   0.4945229  -0.0004648  )
        16           Si  tau(  16) = (   0.6164404   0.6114536   0.1258759  )
        17           Si  tau(  17) = (   0.8657324   0.3701384   0.1203840  )
        18           Si  tau(  18) = (   0.7444089   0.4890848   0.2398018  )
        19           Si  tau(  19) = (  -0.0008749   0.7384264   0.2393454  )
        20           Si  tau(  20) = (   0.2462645   0.7371397  -0.0015662  )
        21           Si  tau(  21) = (   0.3731803   0.8581999   0.1247502  )
        22           Si  tau(  22) = (   0.4928063   0.7357470   0.2400342  )
        23           Si  tau(  23) = (   0.7438186   0.7330150  -0.0010209  )
        24           Si  tau(  24) = (   0.8669341   0.8622524   0.1198844  )
        25           Si  tau(  25) = (   0.0013551  -0.0041649   0.4891813  )
        26           Si  tau(  26) = (   0.2514316   0.2454880   0.4864215  )
        27           Si  tau(  27) = (   0.1262296   0.1226487   0.6101931  )
        28           Si  tau(  28) = (   0.3717194   0.1181240   0.3676587  )
        29           Si  tau(  29) = (   0.4922125  -0.0040098   0.4830099  )
        30           Si  tau(  30) = (   0.6168636   0.1232612   0.6090381  )
        31           Si  tau(  31) = (   0.8663903   0.1208124   0.3678348  )
        32           Si  tau(  32) = (   0.7386059   0.2488368   0.4860314  )
        33           Si  tau(  33) = (   0.1253940   0.3683750   0.3638262  )
        34           Si  tau(  34) = (   0.0009776   0.4894711   0.4831909  )
        35           Si  tau(  35) = (   0.1231631   0.6115288   0.6127547  )
        36           Si  tau(  36) = (   0.6144503   0.3647260   0.3623043  )
        37           Si  tau(  37) = (   0.3721549   0.6084584   0.3667503  )
        38           Si  tau(  38) = (   0.3756340   0.3680849   0.6134829  )
        39           Si  tau(  39) = (   0.4975932   0.4907611   0.4842670  )
        40           Si  tau(  40) = (   0.6193411   0.6155102   0.6123630  )
        41           Si  tau(  41) = (   0.8660746   0.6167161   0.3627036  )
        42           Si  tau(  42) = (   0.8689591   0.3694502   0.6072587  )
        43           Si  tau(  43) = (   0.1280313   0.8598120   0.3690939  )
        44           Si  tau(  44) = (   0.2482575   0.7325328   0.4891055  )
        45           Si  tau(  45) = (   0.6191791   0.8549102   0.3683891  )
        46           Si  tau(  46) = (   0.3727209   0.8567488   0.6093559  )
        47           Si  tau(  47) = (   0.7462746   0.7336851   0.4903706  )
        48           Si  tau(  48) = (   0.8657607   0.8535804   0.6106495  )
        49           Si  tau(  49) = (   0.0005532   0.2487593   0.7332442  )
        50           Si  tau(  50) = (   0.2458821   0.0000948   0.7332874  )
        51           Si  tau(  51) = (   0.3702645   0.1252547   0.8565992  )
        52           Si  tau(  52) = (   0.4937094   0.2465160   0.7310445  )
        53           Si  tau(  53) = (   0.7410739   0.0003006   0.7331105  )
        54           Si  tau(  54) = (   0.8683000   0.1246971   0.8501463  )
        55           Si  tau(  55) = (   0.1198532   0.3683573   0.8528913  )
        56           Si  tau(  56) = (   0.2491991   0.4878355   0.7301533  )
        57           Si  tau(  57) = (   0.6147874   0.3670646   0.8495327  )
        58           Si  tau(  58) = (   0.3731184   0.6089372   0.8537271  )
        59           Si  tau(  59) = (   0.7457423   0.4931354   0.7347311  )
        60           Si  tau(  60) = (   0.8703035   0.6091168   0.8526731  )
        61           Si  tau(  61) = (  -0.0004626   0.7387285   0.7332006  )
        62           Si  tau(  62) = (   0.1255228   0.8558251   0.8540424  )
        63           Si  tau(  63) = (   0.4966828   0.7357934   0.7266324  )
        64           Si  tau(  64) = (   0.6178059   0.8609873   0.8495300  )

     number of k points=     1  Fermi-Dirac smearing, width (Ry)=  0.0100
                       cart. coord. in units 2pi/alat
        k(    1) = (   0.0000000   0.0000000   0.0000000), wk =   2.0000000

     Dense  grid:   102821 G-vectors     FFT dimensions: (  75,  75,  75)

     Estimated max dynamical RAM per process >     164.78 MB

     Estimated total dynamical RAM >     634.02 MB

     Initial potential from superposition of free atoms

     starting charge     255.9608, renormalised to     256.0000
     Starting wfcs are  256 randomized atomic wfcs

     total cpu time spent up to now is        3.9 secs

     Self-consistent Calculation

     iteration #  1     ecut=    30.00 Ry     beta= 0.50
     Davidson diagonalization with overlap
     ethr =  1.00E-02,  avg # of iterations =  3.0

     Threshold (ethr) on eigenvalues was too large:
     Diagonalizing with lowered threshold

     Davidson diagonalization with overlap
     ethr =  6.11E-04,  avg # of iterations =  4.0

     total cpu time spent up to now is        4.1 secs

     total energy              =    -503.75372930 Ry
     estimated scf accuracy    <       1.73361206 Ry

     iteration #  2     ecut=    30.00 Ry     beta= 0.50
     Davidson diagonalization with overlap
     ethr =  6.77E-04,  avg # of iterations =  1.0

     total cpu time spent up to now is        4.2 secs

     total energy              =    -503.73880941 Ry
     estimated scf accuracy    <       0.33188284 Ry

     iteration #  3     ecut=    30.00 Ry     beta= 0.50
     Davidson diagonalization with overlap
     ethr =  1.30E-04,  avg # of iterations = 10.0

     total cpu time spent up to now is        4.4 secs

     total energy              =    -503.75496582 Ry
     estimated scf accuracy    <       0.03143222 Ry

     iteration #  4     ecut=    30.00 Ry     beta= 0.50
     Davidson diagonalization with overlap
     c_bands:  3 eigenvalues not converged
     ethr =  1.23E-05,  avg # of iterations = 20.0

     total cpu time spent up to now is        4.6 secs

     total energy              =    -503.76175405 Ry
     estimated scf accuracy    <       0.00878004 Ry

     iteration #  5     ecut=    30.00 Ry     beta= 0.50
     Davidson diagonalization with overlap
     c_bands:  1 eigenvalues not converged
     ethr =  3.43E-06,  avg # of iterations = 20.0

     total cpu time spent up to now is        4.8 secs

     total energy              =    -503.76327248 Ry
     estimated scf accuracy    <       0.00163883 Ry

     iteration #  6     ecut=    30.00 Ry     beta= 0.50
     Davidson diagonalization with overlap
     ethr =  6.40E-07,  avg # of iterations =  3.0

     total cpu time spent up to now is        4.9 secs

     total energy              =    -503.76341254 Ry
     estimated scf accuracy    <       0.00032779 Ry

     iteration #  7     ecut=    30.00 Ry     beta= 0.50
     Davidson diagonalization with overlap
     ethr =  1.28E-07,  avg # of iterations =  5.0

     total cpu time spent up to now is        5.1 secs

     total energy              =    -503.76348097 Ry
     estimated scf accuracy    <       0.00002172 Ry

     iteration #  8     ecut=    30.00 Ry     beta= 0.50
     Davidson diagonalization with overlap
     ethr =  8.48E-09,  avg # of iterations =  4.0

     total cpu time spent up to now is        5.2 secs

     total energy              =    -503.76348366 Ry
     estimated scf accuracy    <       0.00001732 Ry

     iteration #  9     ecut=    30.00 Ry     beta= 0.50
     Davidson diagonalization with overlap
     ethr =  6.77E-09,  avg # of iterations =  3.0

     total cpu time spent up to now is        5.3 secs

     total energy              =    -503.76348546 Ry
     estimated scf accuracy    <       0.00000161 Ry

     iteration # 10     ecut=    30.00 Ry     beta= 0.50
     Davidson diagonalization with overlap
     ethr =  6.28E-10,  avg # of iterations =  5.0

     total cpu time spent up to now is        5.4 secs

     End of self-consistent calculation

          k = 0.0000 0.0000 0.0000 ( 12831 PWs)   bands (ev):

    -6.0327  -5.1143  -5.0820  -5.0429  -4.9599  -4.8983  -4.8359  -4.3120
    -4.2442  -4.2239  -4.1602  -4.1340  -4.0956  -4.0812  -4.0440  -3.9986
    -3.9603  -3.9317  -3.8752  -3.8633  -3.7284  -3.6754  -3.4342  -2.2935
    -2.2262  -2.1623  -2.1428  -2.1242  -2.0922  -2.0286  -2.0123  -1.9817
    -1.9617  -1.9483  -1.9149  -1.8358  -1.8010  -1.7838  -1.7378  -1.7342
    -1.6501  -1.2920  -1.1377  -1.0594  -1.0210   0.0608   0.0723   0.0997
     0.1090   0.1183   0.1694   0.1951   0.2112   0.2502   0.2775   0.2959
     0.3072   1.7515   1.7775   1.7836   1.7994   1.8052   1.8256   1.8332
     1.8471   1.8598   1.8874   1.9010   1.9131   1.9324   1.9565   1.9662
     1.9967   2.0056   2.0251   2.0471   2.0874   2.0973   2.1171   2.1351
     2.1524   2.2338   2.2900   2.3060   2.3417   2.3877   2.3964   2.7873
     2.8030   2.8353   2.8724   2.9498   2.9585   3.5914   3.6299   3.6683
     3.7165   3.7571   3.7719   3.8182   3.8370   3.8638   3.8822   3.9588
     3.9945   4.1096   4.1434   4.1535   4.1686   4.2126   4.2169   4.2719
     4.2917   4.3092   4.3200   4.3305   4.3520   4.3749   4.3956   4.4104
     4.4340   4.4835   4.6923   4.8886   5.0212   5.4255   5.6540   5.7361
     6.1478   6.2204   6.2470   6.2970   6.4364   6.4943   6.6172   6.6867
     6.7218   6.7500   6.7661   6.7758   6.8015   6.8107   6.8351   6.8653
     7.6778   7.7676   7.7988   7.8101   7.8506   7.8573   7.8743   7.8848
     7.9060   7.9400

     the Fermi energy is     5.9004 ev

!    total energy              =    -503.76348579 Ry
     estimated scf accuracy    <       0.00000036 Ry
     smearing contrib. (-TS)   =      -0.05132614 Ry
     internal energy E=F+TS    =    -503.71215965 Ry

     The total energy is F=E-TS. E is the sum of the following terms:
     one-electron contribution =     132.64637105 Ry
     hartree contribution      =      39.21622684 Ry
     xc contribution           =    -152.10268136 Ry
     ewald contribution        =    -523.47207617 Ry

     convergence has been achieved in  10 iterations

     Forces acting on atoms (cartesian axes, Ry/au):

     atom    1 type  1   force =    -0.02135741   -0.02564289   -0.04361859
     atom    2 type  1   force =    -0.05099947    0.00750930    0.01229110
     atom    3 type  1   force =     0.00869070   -0.02914233    0.00817009
     atom    4 type  1   force =     0.00445919    0.01272793   -0.03531296
     atom    5 type  1   force =     0.00264856   -0.02538324   -0.02251384
     atom    6 type  1   force =     0.00039557   -0.02810971   -0.05278044
     atom    7 type  1   force =     0.01002850   -0.04613574   -0.00501525
     atom    8 type  1   force =    -0.03444780   -0.00144240    0.02046835
     atom    9 type  1   force =     0.01291105   -0.04680674    0.00854084
     atom   10 type  1   force =     0.03097339    0.02947148   -0.05805486
     atom   11 type  1   force =    -0.02326295    0.00366606   -0.05677916
     atom   12 type  1   force =    -0.00614159    0.02063439   -0.02193606
     atom   13 type  1   force =     0.02003420   -0.01221511   -0.00280747
     atom   14 type  1   force =    -0.00925363    0.00647741   -0.03327250
     atom   15 type  1   force =    -0.01099768   -0.02486134   -0.04153921
     atom   16 type  1   force =     0.02048404    0.01274215   -0.02890571
     atom   17 type  1   force =     0.02635851   -0.03401181   -0.01377124
     atom   18 type  1   force =    -0.01293203    0.00692573    0.02936100
     atom   19 type  1   force =    -0.02244174    0.02075749    0.02449320
     atom   20 type  1   force =     0.01296357   -0.00623639   -0.03608696
     atom   21 type  1   force =    -0.02558923    0.04505708   -0.02775395
     atom   22 type  1   force =     0.01049350   -0.00710810    0.03911516
     atom   23 type  1   force =    -0.00296332    0.01178233   -0.04285158
     atom   24 type  1   force =     0.01320021    0.02713682   -0.00447128
     atom   25 type  1   force =    -0.02636391   -0.02538377    0.00403916
     atom   26 type  1   force =    -0.00590138    0.00151997    0.01433379
     atom   27 type  1   force =    -0.01457377    0.00216714   -0.00260330
     atom   28 type  1   force =    -0.00890552    0.01401787   -0.03115748
     atom   29 type  1   force =     0.02482413   -0.03876223    0.03185142
     atom   30 type  1   force =    -0.00136610   -0.01487505   -0.00808067
     atom   31 type  1   force =     0.02613836    0.00193334   -0.00513890
     atom   32 type  1   force =     0.01923816   -0.01636564    0.00954231
     atom   33 type  1   force =    -0.00411465   -0.01837135    0.00872982
     atom   34 type  1   force =    -0.02860635    0.01730740    0.01289971
     atom   35 type  1   force =    -0.00660173    0.00276745   -0.01252885
     atom   36 type  1   force =     0.02496593    0.02171501   -0.00382132
     atom   37 type  1   force =    -0.00501088    0.02444604   -0.01113879
     atom   38 type  1   force =    -0.01454072    0.00332624   -0.03705788
     atom   39 type  1   force =     0.00585907   -0.00270337    0.03055532
     atom   40 type  1   force =     0.01520173   -0.02377948   -0.01979283
     atom   41 type  1   force =     0.03372453   -0.01730692   -0.00682800
     atom   42 type  1   force =     0.01095403    0.00073287    0.00288824
     atom   43 type  1   force =    -0.02144413    0.02143808   -0.01931705
     atom   44 type  1   force =     0.00274589    0.00514810    0.00476234
     atom   45 type  1   force =    -0.00075550    0.04188803   -0.01780982
     atom   46 type  1   force =    -0.01676133    0.04892690   -0.00592008
     atom   47 type  1   force =    -0.01535288    0.00327191   -0.00876609
     atom   48 type  1   force =     0.02928678    0.06500100    0.01146698
     atom   49 type  1   force =    -0.03160437   -0.01723742   -0.02063252
     atom   50 type  1   force =     0.01532321   -0.04408856    0.00769460
     atom   51 type  1   force =    -0.00125002   -0.01866006    0.03810719
     atom   52 type  1   force =     0.00316153   -0.02224018    0.01210971
     atom   53 type  1   force =     0.00903604   -0.03625439   -0.01093441
     atom   54 type  1   force =     0.01536466   -0.00968557    0.05462337
     atom   55 type  1   force =     0.01993635    0.00652281    0.05764810
     atom   56 type  1   force =    -0.00993178    0.00555966    0.02043950
     atom   57 type  1   force =     0.02236385    0.01060083    0.06444952
     atom   58 type  1   force =    -0.00290832    0.02371469    0.03621248
     atom   59 type  1   force =    -0.01144272   -0.01966985   -0.01608389
     atom   60 type  1   force =     0.02590547    0.02414728    0.06245310
     atom   61 type  1   force =    -0.02287843   -0.01885365    0.00174130
     atom   62 type  1   force =    -0.00071117    0.05292435    0.04161222
     atom   63 type  1   force =    -0.01315360    0.00732486    0.03639638
     atom   64 type  1   force =     0.00689541    0.02004330    0.05808668

     Total force =     0.341710     Total SCF correction =     0.001108


     Computing stress (Cartesian axis) and pressure

          total   stress  (Ry/bohr**3)                   (kbar)     P=      -25.89
  -0.00018666   0.00001300   0.00004432          -27.46        1.91        6.52
   0.00001300  -0.00017763   0.00002076            1.91      -26.13        3.05
   0.00004432   0.00002076  -0.00016376            6.52        3.05      -24.09

 
     init_run     :      0.84s CPU      3.87s WALL (       1 calls)
     electrons    :      1.37s CPU      1.47s WALL (       1 calls)
     forces       :      0.04s CPU      0.04s WALL (       1 calls)
     stress       :      0.16s CPU      0.16s WALL (       1 calls)

     Called by init_run:
     wfcinit      :      0.50s CPU      3.39s WALL (       1 calls)
                                        3.39s GPU  (       1 calls)
     potinit      :      0.15s CPU      0.21s WALL (       1 calls)
     hinit0       :      0.18s CPU      0.20s WALL (       1 calls)

     Called by electrons:
     c_bands      :      1.00s CPU      1.05s WALL (      11 calls)
     sum_band     :      0.20s CPU      0.24s WALL (      11 calls)
     v_of_rho     :      0.09s CPU      0.16s WALL (      11 calls)
     mix_rho      :      0.07s CPU      0.08s WALL (      11 calls)

     Called by c_bands:
     init_us_2    :      0.03s CPU      0.03s WALL (      23 calls)
     init_us_2:gp :      0.03s CPU      0.03s WALL (      23 calls)
     regterg      :      0.91s CPU      0.96s WALL (      11 calls)

     Called by *egterg:
     rdiaghg      :      0.40s CPU      1.02s WALL (      88 calls)
                                        1.00s GPU  (      88 calls)
     h_psi        :      0.87s CPU      3.18s WALL (      90 calls)
                                        3.17s GPU  (      90 calls)
     g_psi        :      0.00s CPU      0.00s WALL (      78 calls)
                                        0.00s GPU  (      78 calls)

     Called by h_psi:
     h_psi:calbec :      0.45s CPU      2.70s WALL (      90 calls)
                                        2.70s GPU  (      90 calls)
     vloc_psi     :      0.37s CPU      0.43s WALL (      90 calls)
                                        0.42s GPU  (      90 calls)
     add_vuspsi   :      0.03s CPU      0.04s WALL (      90 calls)
                                        0.04s GPU  (      90 calls)

     General routines
     calbec       :      0.46s CPU      2.70s WALL (      95 calls)
     fft          :      0.20s CPU      0.29s WALL (      95 calls)
                                        0.09s GPU  (      61 calls)
     ffts         :      0.02s CPU      0.02s WALL (      11 calls)
     fftw         :      0.40s CPU      0.52s WALL (    1255 calls)
                                        0.48s GPU  (    1255 calls)
 
     Parallel routines
 
     PWSCF        :      2.44s CPU      5.61s WALL

 
   This run was terminated on:  11:19:54  10May2023            

=------------------------------------------------------------------------------=
   JOB DONE.
=------------------------------------------------------------------------------=
