An instance of this daemon is already running

     Program PWSCF v.7.1 starts on 10May2023 at 11:10:13 

     This program is part of the open-source Quantum ESPRESSO suite
     for quantum simulation of materials; please cite
         "P. Giannozzi et al., J. Phys.:Condens. Matter 21 395502 (2009);
         "P. Giannozzi et al., J. Phys.:Condens. Matter 29 465901 (2017);
         "P. Giannozzi et al., J. Chem. Phys. 152 154105 (2020);
          URL http://www.quantum-espresso.org", 
     in publications or presentations arising from this work. More details at
     http://www.quantum-espresso.org/quote

     Parallel version (MPI & OpenMP), running on       4 processor cores
     Number of MPI processes:                 4
     Threads/MPI process:                     1

     MPI processes distributed on     1 nodes
     150778 MiB available memory on the printing compute node when the environment starts
 
     Reading input from pw-si-1.in
Warning: card &CELL ignored
Warning: card / ignored

     Current dimensions of program PWSCF are:
     Max number of different atomic species (ntypx) = 10
     Max number of k-points (npk) =  40000
     Max angular momentum in pseudopotentials (lmaxx) =  4

     IMPORTANT: XC functional enforced from input :
     Exchange-correlation= PBE
                           (   1   4   3   4   0   0   0)
     Any further DFT definition will be discarded
     Please, verify this is what you really want


     gamma-point specific algorithms are used
 
     K-points division:     npool     =       2
     R & G space division:  proc/nbgrp/npool/nimage =       2
     Subspace diagonalization in iterative solution of the eigenvalue problem:
     a serial algorithm will be used

     Message from routine divide_et_impera:
     suboptimal parallelization: some nodes have no k-points
 
     Parallelization info
     --------------------
     sticks:   dense  smooth     PW     G-vecs:    dense   smooth      PW
     Min        2064    2064    545                99532    99532   13545
     Max        2067    2067    548                99539    99539   13548
     Sum        4131    4131   1093               199071   199071   27093
 
     Using Slab Decomposition
 


     bravais-lattice index     =            0
     lattice parameter (alat)  =      20.9987  a.u.
     unit-cell volume          =    8969.1309 (a.u.)^3
     number of atoms/cell      =           64
     number of atomic types    =            1
     number of electrons       =       256.00
     number of Kohn-Sham states=          154
     kinetic-energy cutoff     =      30.0000  Ry
     charge density cutoff     =     120.0000  Ry
     scf convergence threshold =      1.0E-06
     mixing beta               =       0.5000
     number of iterations used =            8  plain     mixing
     Exchange-correlation= PBE
                           (   1   4   3   4   0   0   0)

     GPU acceleration is ACTIVE.
     GPU-aware MPI enabled

     Message from routine print_cuda_info:
     High GPU oversubscription detected. Are you sure this is what you want?

     celldm(1)=  20.998730  celldm(2)=   0.000000  celldm(3)=   0.000000
     celldm(4)=   0.000000  celldm(5)=   0.000000  celldm(6)=   0.000000

     crystal axes: (cart. coord. in units of alat)
               a(1) = (   1.000000   0.000000   0.000000 )  
               a(2) = (   0.000000   0.982367   0.000000 )  
               a(3) = (   0.000000   0.000000   0.986046 )  

     reciprocal axes: (cart. coord. in units 2 pi/alat)
               b(1) = (  1.000000  0.000000  0.000000 )  
               b(2) = (  0.000000  1.017949  0.000000 )  
               b(3) = (  0.000000  0.000000  1.014151 )  


     PseudoPot. # 1 for Si read from file:
     /home/ppiaggi/pseudos/Si_ONCV_PBE_sr.upf
     MD5 check sum: 8553c464762ac42b85b1eed164b4d029
     Pseudo is Norm-conserving, Zval =  4.0
     Generated using ONCVPSP code by D. R. Hamann
     Using radial grid of 1510 points,  4 beta functions with: 
                l(1) =   0
                l(2) =   0
                l(3) =   1
                l(4) =   1

     atomic species   valence    mass     pseudopotential
        Si             4.00    28.08500     Si( 1.00)

     No symmetry found



   Cartesian axes

     site n.     atom                  positions (alat units)
         1           Si  tau(   1) = (   0.0031759   0.0003848  -0.0036178  )
         2           Si  tau(   2) = (   0.0023475   0.2445974   0.2532593  )
         3           Si  tau(   3) = (   0.2535853  -0.0017841   0.2470520  )
         4           Si  tau(   4) = (   0.2526040   0.2403864  -0.0024079  )
         5           Si  tau(   5) = (   0.1264996   0.1242380   0.1217712  )
         6           Si  tau(   6) = (   0.4988385   0.0032065  -0.0024604  )
         7           Si  tau(   7) = (   0.4983919   0.2391741   0.2501566  )
         8           Si  tau(   8) = (   0.6278264   0.1221564   0.1226359  )
         9           Si  tau(   9) = (   0.7521284   0.0000753   0.2505811  )
        10           Si  tau(  10) = (   0.7536130   0.2443000  -0.0003426  )
        11           Si  tau(  11) = (  -0.0030173   0.4884093  -0.0016890  )
        12           Si  tau(  12) = (   0.2500897   0.4907086   0.2524529  )
        13           Si  tau(  13) = (   0.1252939   0.6044470   0.1210737  )
        14           Si  tau(  14) = (   0.3770333   0.3617429   0.1216972  )
        15           Si  tau(  15) = (   0.5002659   0.4847613  -0.0024559  )
        16           Si  tau(  16) = (   0.6264221   0.6084363   0.1265884  )
        17           Si  tau(  17) = (   0.8742181   0.3625188   0.1246817  )
        18           Si  tau(  18) = (   0.7497126   0.4844657   0.2528740  )
        19           Si  tau(  19) = (  -0.0016494   0.7327248   0.2467024  )
        20           Si  tau(  20) = (   0.2527927   0.7303766  -0.0006629  )
        21           Si  tau(  21) = (   0.3741339   0.8494711   0.1233401  )
        22           Si  tau(  22) = (   0.5014655   0.7271855   0.2513970  )
        23           Si  tau(  23) = (   0.7550105   0.7316781   0.0002314  )
        24           Si  tau(  24) = (   0.8818330   0.8509387   0.1213109  )
        25           Si  tau(  25) = (  -0.0011909  -0.0009430   0.4971060  )
        26           Si  tau(  26) = (   0.2477154   0.2422334   0.4974008  )
        27           Si  tau(  27) = (   0.1228765   0.1181669   0.6241763  )
        28           Si  tau(  28) = (   0.3768677   0.1243622   0.3728792  )
        29           Si  tau(  29) = (   0.5014595   0.0040841   0.5016419  )
        30           Si  tau(  30) = (   0.6314167   0.1204017   0.6237232  )
        31           Si  tau(  31) = (   0.8765609   0.1219429   0.3725010  )
        32           Si  tau(  32) = (   0.7519727   0.2456792   0.5024137  )
        33           Si  tau(  33) = (   0.1283828   0.3623062   0.3745984  )
        34           Si  tau(  34) = (  -0.0004967   0.4852138   0.4981333  )
        35           Si  tau(  35) = (   0.1248139   0.6055872   0.6306703  )
        36           Si  tau(  36) = (   0.6287452   0.3666091   0.3780804  )
        37           Si  tau(  37) = (   0.3787822   0.6082402   0.3755567  )
        38           Si  tau(  38) = (   0.3789645   0.3655132   0.6220102  )
        39           Si  tau(  39) = (   0.5054928   0.4875543   0.4994407  )
        40           Si  tau(  40) = (   0.6265650   0.6113640   0.6258138  )
        41           Si  tau(  41) = (   0.8770991   0.6062737   0.3793575  )
        42           Si  tau(  42) = (   0.8766688   0.3695616   0.6286233  )
        43           Si  tau(  43) = (   0.1254035   0.8527918   0.3743715  )
        44           Si  tau(  44) = (   0.2552655   0.7315238   0.4997639  )
        45           Si  tau(  45) = (   0.6226779   0.8519283   0.3758563  )
        46           Si  tau(  46) = (   0.3782925   0.8566478   0.6290565  )
        47           Si  tau(  47) = (   0.7511689   0.7312297   0.5004130  )
        48           Si  tau(  48) = (   0.8783530   0.8550790   0.6261187  )
        49           Si  tau(  49) = (   0.0036167   0.2428879   0.7516321  )
        50           Si  tau(  50) = (   0.2520007   0.0000148   0.7473190  )
        51           Si  tau(  51) = (   0.3771140   0.1228777   0.8811775  )
        52           Si  tau(  52) = (   0.5000498   0.2462094   0.7487330  )
        53           Si  tau(  53) = (   0.7562515  -0.0011508   0.7485408  )
        54           Si  tau(  54) = (   0.8780246   0.1232401   0.8811373  )
        55           Si  tau(  55) = (   0.1294275   0.3615804   0.8794144  )
        56           Si  tau(  56) = (   0.2470886   0.4908723   0.7506120  )
        57           Si  tau(  57) = (   0.6273050   0.3689908   0.8736365  )
        58           Si  tau(  58) = (   0.3752409   0.6104648   0.8732131  )
        59           Si  tau(  59) = (   0.7493111   0.4854055   0.7505774  )
        60           Si  tau(  60) = (   0.8799033   0.6057676   0.8805798  )
        61           Si  tau(  61) = (   0.0004682   0.7274982   0.7543607  )
        62           Si  tau(  62) = (   0.1258315   0.8502052   0.8796998  )
        63           Si  tau(  63) = (   0.4985012   0.7279600   0.7522258  )
        64           Si  tau(  64) = (   0.6306380   0.8560374   0.8730613  )

     number of k points=     1  Fermi-Dirac smearing, width (Ry)=  0.0100
                       cart. coord. in units 2pi/alat
        k(    1) = (   0.0000000   0.0000000   0.0000000), wk =   2.0000000

     Dense  grid:    99536 G-vectors     FFT dimensions: (  75,  72,  75)

     Estimated max dynamical RAM per process >     159.52 MB

     Estimated total dynamical RAM >     613.79 MB

     Initial potential from superposition of free atoms

     starting charge     255.9608, renormalised to     256.0000
     Starting wfcs are  256 randomized atomic wfcs

     total cpu time spent up to now is        4.2 secs

     Self-consistent Calculation

     iteration #  1     ecut=    30.00 Ry     beta= 0.50
     Davidson diagonalization with overlap
     ethr =  1.00E-02,  avg # of iterations =  3.0

     Threshold (ethr) on eigenvalues was too large:
     Diagonalizing with lowered threshold

     Davidson diagonalization with overlap
     ethr =  6.43E-04,  avg # of iterations =  4.0

     total cpu time spent up to now is        4.4 secs

     total energy              =    -503.81312590 Ry
     estimated scf accuracy    <       1.82684737 Ry

     iteration #  2     ecut=    30.00 Ry     beta= 0.50
     Davidson diagonalization with overlap
     ethr =  7.14E-04,  avg # of iterations =  1.0

     total cpu time spent up to now is        4.5 secs

     total energy              =    -503.79833901 Ry
     estimated scf accuracy    <       0.34240307 Ry

     iteration #  3     ecut=    30.00 Ry     beta= 0.50
     Davidson diagonalization with overlap
     ethr =  1.34E-04,  avg # of iterations =  4.0

     total cpu time spent up to now is        4.6 secs

     total energy              =    -503.81481999 Ry
     estimated scf accuracy    <       0.03968211 Ry

     iteration #  4     ecut=    30.00 Ry     beta= 0.50
     Davidson diagonalization with overlap
     ethr =  1.55E-05,  avg # of iterations = 17.0

     total cpu time spent up to now is        4.8 secs

     total energy              =    -503.82355340 Ry
     estimated scf accuracy    <       0.01094537 Ry

     iteration #  5     ecut=    30.00 Ry     beta= 0.50
     Davidson diagonalization with overlap
     ethr =  4.28E-06,  avg # of iterations = 18.0

     total cpu time spent up to now is        5.0 secs

     total energy              =    -503.82517303 Ry
     estimated scf accuracy    <       0.00211394 Ry

     iteration #  6     ecut=    30.00 Ry     beta= 0.50
     Davidson diagonalization with overlap
     ethr =  8.26E-07,  avg # of iterations =  4.0

     total cpu time spent up to now is        5.1 secs

     total energy              =    -503.82547685 Ry
     estimated scf accuracy    <       0.00055893 Ry

     iteration #  7     ecut=    30.00 Ry     beta= 0.50
     Davidson diagonalization with overlap
     ethr =  2.18E-07,  avg # of iterations =  4.0

     total cpu time spent up to now is        5.2 secs

     total energy              =    -503.82552655 Ry
     estimated scf accuracy    <       0.00009671 Ry

     iteration #  8     ecut=    30.00 Ry     beta= 0.50
     Davidson diagonalization with overlap
     ethr =  3.78E-08,  avg # of iterations =  5.0

     total cpu time spent up to now is        5.3 secs

     total energy              =    -503.82554952 Ry
     estimated scf accuracy    <       0.00000940 Ry

     iteration #  9     ecut=    30.00 Ry     beta= 0.50
     Davidson diagonalization with overlap
     ethr =  3.67E-09,  avg # of iterations =  4.0

     total cpu time spent up to now is        5.4 secs

     total energy              =    -503.82555065 Ry
     estimated scf accuracy    <       0.00000202 Ry

     iteration # 10     ecut=    30.00 Ry     beta= 0.50
     Davidson diagonalization with overlap
     ethr =  7.90E-10,  avg # of iterations =  5.0

     total cpu time spent up to now is        5.5 secs

     End of self-consistent calculation

          k = 0.0000 0.0000 0.0000 ( 12452 PWs)   bands (ev):

    -5.9013  -4.9427  -4.9241  -4.8984  -4.8320  -4.7573  -4.6651  -4.1995
    -4.0744  -4.0391  -3.9676  -3.9119  -3.8893  -3.8614  -3.7945  -3.7891
    -3.7638  -3.7512  -3.6776  -3.6543  -3.5492  -3.5313  -3.4282  -2.1473
    -2.0553  -1.9032  -1.8680  -1.8171  -1.7889  -1.7445  -1.7374  -1.7321
    -1.7104  -1.6891  -1.6579  -1.6269  -1.6053  -1.5875  -1.5704  -1.5090
    -1.4861  -1.0475  -0.9616  -0.9285  -0.7649   0.3181   0.3297   0.3626
     0.3742   0.4054   0.4360   0.4463   0.4880   0.5055   0.5279   0.5716
     0.6047   1.9150   1.9382   1.9511   1.9588   2.0679   2.1119   2.1244
     2.1442   2.1516   2.1621   2.1807   2.1943   2.2264   2.2459   2.2563
     2.2728   2.2789   2.2937   2.3087   2.3156   2.3423   2.3605   2.3814
     2.4045   2.4057   2.4219   2.4397   2.4642   2.4737   2.5353   2.9460
     3.0514   3.0803   3.1152   3.2181   3.2433   3.8298   3.9282   3.9443
     3.9690   4.0041   4.0399   4.0859   4.0989   4.1416   4.1532   4.1696
     4.1954   4.2137   4.4473   4.4600   4.5373   4.5507   4.5796   4.6036
     4.6272   4.6498   4.6592   4.6849   4.7053   4.7099   4.7569   4.7908
     4.7976   4.8482   4.8789   4.9372   4.9727   5.7486   5.9455   6.0309
     6.3883   6.4709   6.5116   6.6486   6.7655   6.8000   6.9246   6.9831
     7.0026   7.0417   7.1116   7.1286   7.1849   7.2166   7.2375   7.2738
     7.9628   8.1023   8.1250   8.1782   8.2076   8.2500   8.2788   8.2928
     8.3068   8.3348

     the Fermi energy is     6.1818 ev

!    total energy              =    -503.82555111 Ry
     estimated scf accuracy    <       0.00000016 Ry
     smearing contrib. (-TS)   =      -0.05253926 Ry
     internal energy E=F+TS    =    -503.77301185 Ry

     The total energy is F=E-TS. E is the sum of the following terms:
     one-electron contribution =     141.47484385 Ry
     hartree contribution      =      37.71033536 Ry
     xc contribution           =    -153.13878479 Ry
     ewald contribution        =    -529.81940627 Ry

     convergence has been achieved in  10 iterations

     Forces acting on atoms (cartesian axes, Ry/au):

     atom    1 type  1   force =     0.00951238   -0.02553795    0.06323696
     atom    2 type  1   force =    -0.00214969   -0.00730726   -0.02760065
     atom    3 type  1   force =    -0.01303682   -0.01084387    0.00380137
     atom    4 type  1   force =    -0.00636927    0.01481941    0.07088284
     atom    5 type  1   force =    -0.00038207   -0.01700043    0.02322640
     atom    6 type  1   force =     0.03715086   -0.06018306    0.06069210
     atom    7 type  1   force =     0.03077596    0.02983758   -0.00980140
     atom    8 type  1   force =    -0.00651580   -0.00724527    0.01494407
     atom    9 type  1   force =    -0.00463611   -0.03253390   -0.01558874
     atom   10 type  1   force =    -0.02825157    0.00855147    0.04038933
     atom   11 type  1   force =     0.04419840   -0.05816403    0.06967682
     atom   12 type  1   force =     0.01011741   -0.02379961   -0.01932197
     atom   13 type  1   force =    -0.00175194    0.02432345    0.02147397
     atom   14 type  1   force =    -0.00856147    0.01293815    0.02584164
     atom   15 type  1   force =    -0.00251489    0.02081168    0.05250039
     atom   16 type  1   force =     0.00340980   -0.00490082   -0.00594880
     atom   17 type  1   force =     0.01226586    0.01581867    0.02074307
     atom   18 type  1   force =     0.01257635    0.01166963   -0.01158063
     atom   19 type  1   force =     0.02195934   -0.02644330    0.01725704
     atom   20 type  1   force =    -0.01022541   -0.00992696    0.04996253
     atom   21 type  1   force =     0.02301476    0.02849297    0.01332833
     atom   22 type  1   force =    -0.00415058    0.01882334   -0.01363555
     atom   23 type  1   force =    -0.01728996   -0.00092600    0.04276411
     atom   24 type  1   force =    -0.02271683    0.04498859    0.01180223
     atom   25 type  1   force =     0.00690432   -0.02062843    0.00152391
     atom   26 type  1   force =     0.01836266   -0.00511992    0.01767328
     atom   27 type  1   force =     0.00797248    0.00752045   -0.00434480
     atom   28 type  1   force =    -0.01593303   -0.02658815    0.01534539
     atom   29 type  1   force =    -0.00084554   -0.03007063   -0.00843189
     atom   30 type  1   force =    -0.01531811    0.00852960    0.01577385
     atom   31 type  1   force =    -0.00745389    0.00411385    0.01828593
     atom   32 type  1   force =     0.01563489   -0.00349586   -0.00768764
     atom   33 type  1   force =    -0.01072481    0.02402505    0.00308088
     atom   34 type  1   force =     0.02297516   -0.00126455    0.01714890
     atom   35 type  1   force =    -0.00623771    0.02473336   -0.04107757
     atom   36 type  1   force =    -0.01776804   -0.02375182   -0.01118454
     atom   37 type  1   force =    -0.00537007   -0.00130572    0.00905513
     atom   38 type  1   force =    -0.02636016    0.00791866    0.00456636
     atom   39 type  1   force =    -0.01004410    0.00483913    0.00341677
     atom   40 type  1   force =    -0.00092919   -0.00684023    0.00367757
     atom   41 type  1   force =    -0.01018143    0.01790903   -0.02638889
     atom   42 type  1   force =     0.00494881   -0.02421039   -0.00712547
     atom   43 type  1   force =     0.00835968    0.01476383   -0.00291203
     atom   44 type  1   force =    -0.01728122    0.00179742    0.01478934
     atom   45 type  1   force =     0.01203142    0.02741036    0.00265978
     atom   46 type  1   force =     0.00048799    0.00542699   -0.01787385
     atom   47 type  1   force =     0.00247224    0.01005292    0.00311581
     atom   48 type  1   force =     0.00176405   -0.00360346   -0.00437600
     atom   49 type  1   force =    -0.00782636    0.00356204   -0.00322998
     atom   50 type  1   force =    -0.00607460   -0.01697607    0.02443198
     atom   51 type  1   force =    -0.00526752   -0.00213787   -0.10559695
     atom   52 type  1   force =     0.01475578   -0.01799024    0.00321728
     atom   53 type  1   force =    -0.00351542   -0.00215707    0.00722667
     atom   54 type  1   force =    -0.00221452   -0.00885213   -0.08133053
     atom   55 type  1   force =    -0.02344345    0.02952592   -0.06161390
     atom   56 type  1   force =     0.02862004   -0.03695731    0.00277855
     atom   57 type  1   force =    -0.00106487   -0.03072154   -0.03778034
     atom   58 type  1   force =     0.00014471   -0.01860207   -0.03029939
     atom   59 type  1   force =     0.01408438    0.03099896   -0.00209166
     atom   60 type  1   force =    -0.05057367    0.02814820   -0.08577830
     atom   61 type  1   force =     0.00193382    0.01583508   -0.01183760
     atom   62 type  1   force =     0.00300267    0.03019544   -0.07103643
     atom   63 type  1   force =     0.02407433    0.02960870   -0.01192914
     atom   64 type  1   force =    -0.02053043    0.00809597   -0.03288595

     Total force =     0.349547     Total SCF correction =     0.000604


     Computing stress (Cartesian axis) and pressure

          total   stress  (Ry/bohr**3)                   (kbar)     P=       -0.89
  -0.00004617  -0.00009394   0.00002988           -6.79      -13.82        4.40
  -0.00009394   0.00003800  -0.00003150          -13.82        5.59       -4.63
   0.00002988  -0.00003150  -0.00000995            4.40       -4.63       -1.46

 
     init_run     :      1.09s CPU      4.14s WALL (       1 calls)
     electrons    :      1.27s CPU      1.34s WALL (       1 calls)
     forces       :      0.03s CPU      0.04s WALL (       1 calls)
     stress       :      0.15s CPU      0.15s WALL (       1 calls)

     Called by init_run:
     wfcinit      :      0.52s CPU      3.43s WALL (       1 calls)
                                        3.43s GPU  (       1 calls)
     potinit      :      0.15s CPU      0.23s WALL (       1 calls)
     hinit0       :      0.39s CPU      0.42s WALL (       1 calls)

     Called by electrons:
     c_bands      :      0.90s CPU      0.95s WALL (      11 calls)
     sum_band     :      0.20s CPU      0.21s WALL (      11 calls)
     v_of_rho     :      0.10s CPU      0.17s WALL (      11 calls)
     mix_rho      :      0.07s CPU      0.08s WALL (      11 calls)

     Called by c_bands:
     init_us_2    :      0.03s CPU      0.03s WALL (      23 calls)
     init_us_2:gp :      0.03s CPU      0.03s WALL (      23 calls)
     regterg      :      0.82s CPU      0.86s WALL (      11 calls)

     Called by *egterg:
     rdiaghg      :      0.40s CPU      0.98s WALL (      79 calls)
                                        0.96s GPU  (      79 calls)
     h_psi        :      0.80s CPU      3.15s WALL (      81 calls)
                                        3.15s GPU  (      81 calls)
     g_psi        :      0.00s CPU      0.00s WALL (      69 calls)
                                        0.00s GPU  (      69 calls)

     Called by h_psi:
     h_psi:calbec :      0.45s CPU      2.74s WALL (      81 calls)
                                        2.74s GPU  (      81 calls)
     vloc_psi     :      0.31s CPU      0.37s WALL (      81 calls)
                                        0.36s GPU  (      81 calls)
     add_vuspsi   :      0.03s CPU      0.04s WALL (      81 calls)
                                        0.04s GPU  (      81 calls)

     General routines
     calbec       :      0.46s CPU      2.75s WALL (      86 calls)
     fft          :      0.43s CPU      0.52s WALL (      95 calls)
                                        0.10s GPU  (      61 calls)
     ffts         :      0.02s CPU      0.02s WALL (      11 calls)
     fftw         :      0.35s CPU      0.46s WALL (    1233 calls)
                                        0.41s GPU  (    1233 calls)
 
     Parallel routines
 
     PWSCF        :      2.57s CPU      5.75s WALL

 
   This run was terminated on:  11:10:19  10May2023            

=------------------------------------------------------------------------------=
   JOB DONE.
=------------------------------------------------------------------------------=
