-0.030247401005126393 0.19470382946048617 0.06541383023020536 -0.09521491629638597 2.774363795691748 2.7712693454483905 2.4854046270536094 0.06856141320438974 2.7003371497945055 2.6183278424178322 3.0569002798275333 -0.07658445555924866 1.321245241544332 1.4313033175245156 1.290255044962246 5.125744297198402 0.11334699201836711 0.15793916769213465 5.433158588561948 3.0085282416827415 2.7260661433701134 6.573856685447308 1.5080078530554328 1.2273288891893552 7.8404496000631125 -0.08111667749878156 2.4651876229739815 7.7886802551092496 2.8514848918323485 0.1320454626509628 0.19249563316732105 5.715356085875059 0.15830153291637397 2.5846608188566877 5.810797347604768 2.5886117687209746 1.2618184074236998 7.000440253473233 1.142922232997773 4.161243899626525 4.2281188799544696 1.493873484000866 5.242484345407373 5.585364734597864 0.14518093636598417 6.451745980806356 7.384688724230915 1.5095763312694421 9.363810687018281 4.23278712168492 1.3973546904899885 7.958892020967777 5.684586921453212 2.8013201553494573 0.025776813033352688 8.714387383249804 2.8322890988392126 2.4692501515730045 8.80834092851636 -0.029088044818483864 4.064276665867469 10.037498646300776 1.3933261668386945 5.484158571573438 8.767669948377616 2.4633099122665594 7.937670808275521 8.77328820333525 0.057561875268609 9.35053388023926 9.89320183857575 1.3159797879193884 -0.1895924607549403 0.031011449674416932 5.313555748816024 2.738761678073889 2.8102613312930047 5.2622932901142505 1.2565975852926505 1.497296294520734 6.810066741575138 4.1472200466520786 1.2969550823195155 4.156604349570722 5.2921124413089125 -0.027797982114007212 5.357288236905013 6.614036719153213 1.266677926985126 6.632538598681748 9.345302431562045 1.530281093818061 3.9981944258834616 8.123863836912157 2.6791520673592113 5.20340309657497 1.4498445152738635 4.138243803106186 4.008454356206132 0.12277167581243914 5.551046303756782 5.308989521928763 1.3116515956662307 7.268298289390785 6.490674207373979 6.466104569985012 4.1324990922491835 3.98248095206872 3.952271806629789 6.987768097171021 4.091099131043495 4.055266417373846 4.5022890842942545 6.806618427344473 5.432333968579516 5.682198073875235 5.185222138740627 6.730366582680201 6.9988239558014795 6.741749738932551 9.13174710920418 7.202456209350115 3.9456078995294814 9.258986185024543 4.139465855915204 6.459970927538357 1.4269251805043803 9.953627568035929 3.97608483393178 2.797760262384057 8.503150773265226 5.156665421230413 6.538124923966232 10.132909091046605 4.0792707225068146 3.827012456360035 10.175222935222516 6.463418179114406 8.070177463030062 8.42685429710706 5.483121420667698 9.36420068126255 9.931290567996308 6.7827682071309034 0.09193131353128477 2.770606248967671 7.908090754369581 2.6863685548601186 0.09458157414492956 8.056653057725386 3.896756604152631 1.5136686141977285 9.099522107957679 5.415152968739335 2.7863686048947733 7.957493567492414 7.91500225999554 0.12811257791515715 7.762339172474515 9.48040727685402 1.5637844685682585 9.420337536690381 1.3567857251944324 4.14885228414308 9.141336504463817 2.5757387706962382 5.94119463294548 7.981078124051849 6.515759232251964 4.33622592205869 9.372568023713168 3.8853575080810323 7.153212794419762 9.170125943335053 7.877189820775283 5.864036343893302 7.940565479450969 9.334398532541751 7.069185505926283 9.387873438155157 -0.16585806989457286 8.564461694020979 7.8478988089250405 1.150596724638408 9.95333852598023 9.391798884308647 5.466884058127003 8.430969958436908 7.777478812796327 6.787608598909231 10.030816674071987 9.345896455492689
0.17241609509806533 0.02748915313562607 0.004761752688861012 0.12844692569758046 2.4224486213849623 3.003973388347031 3.005827942456193 0.10638778328300302 3.059671866910822 2.9870360847675843 2.6542778260587974 0.11963144246635805 1.4793101034283715 1.392785599802939 1.6944913989102528 5.833888202763165 0.05138296760220955 -0.12695687596961164 5.720156208478484 2.6233568089463004 2.891502800133024 6.9572697189848975 1.1565337419706254 1.3609577399723822 8.571672877994606 -0.08113757069488826 2.8906368260880075 8.643526632556377 2.515731919884702 -0.1860540817483476 0.19953963929376725 5.014799362196487 0.12466602116174856 3.029114249620788 4.876959269051429 2.8541455192956384 1.275386470531707 6.2902156558139275 1.6329166678981337 4.403881182846741 3.705138434245305 1.2965354565520322 5.593754925550509 4.848876967877316 0.16635206766548657 7.267686068244001 6.259487936479336 1.651731721320091 9.955005664178602 3.860261557852577 1.6621974152952612 8.71590836619151 5.1694033432002415 2.9928394363396733 -0.13139388839159138 7.671522681285472 2.9899620608457087 2.739829213442317 7.45949711009774 -0.20306759988022563 4.356000770980178 8.64765657765117 1.6503245134969389 5.567441022904549 7.35523891604789 2.8568086103958112 8.702035108531549 7.566123478066615 -0.031136406065020425 9.845813406277873 8.862074623050008 1.678724927585548 -0.09326893923623841 0.10290731872197285 5.794954716616802 2.698165258113197 2.567519155982417 5.840430504126219 1.4082891861496922 1.2312781267311301 7.61558782715327 4.442183965957766 1.2017632128830542 4.640744966215966 5.618299325109586 0.05478279937588485 6.084343581315976 7.160795710738443 1.429322193503274 7.375414785826302 10.108503981892737 1.4132608049974222 4.39680869329286 8.766195611532678 2.428777742912954 5.985256931244147 1.2784449936575377 3.8808350687741098 4.60470321482707 -0.1319472723157666 5.151658607188515 5.950118708897118 1.5259092271671022 6.120917730013161 7.542499175930368 7.041672365288294 3.6235811312326787 4.523672786329077 4.303900944761622 6.270017694860898 4.342799085028597 4.1115541919234015 3.8775213925814436 7.531018392481511 5.655521849781803 4.91559121066426 5.83797065183253 7.0209784574650955 6.342903107277317 7.236360782635998 9.931576868937722 6.1670551482023805 4.6765149961570645 10.155253325618867 3.924213299253569 7.254587106254392 1.2724638081297757 8.633554676333913 4.561884995624171 2.843095513751828 7.479262084028261 5.9515435896599636 7.044736411207778 8.742996564507823 4.286673142235952 4.332217412386684 8.599190749657238 7.590128852965019 8.387714144158755 7.6767947401080034 6.013142620964162 9.835280334220117 8.642230985165044 7.359247359682284 0.13053012346403647 2.667894826093193 9.101113282560352 2.9945868482519393 0.03606605168097651 8.996509361627735 4.281386724149919 1.3470933187822678 10.4396164480925 5.7740310605775775 2.6369947955965825 8.861325732230464 8.758050595451104 -0.17241278142187266 9.013652113131126 9.874788190906543 1.1781090876610736 10.339924499836142 1.5080396760187853 3.7695331036973827 10.353776770880218 2.745482345027005 4.969395371004578 8.999657354010766 6.938460188356595 3.7804063798442504 10.42869125768528 4.42303423124035 6.3175567980796155 10.425387522521191 8.712085488423904 4.963129209324246 8.874948255058513 9.834576730308541 6.085539818421529 10.243831203925023 0.0880510037915204 7.477044130096637 8.879736517156918 1.4647155689171396 8.894313378728453 10.58859932971476 5.517615483112892 7.377817201065985 9.131104261221441 7.258626477533252 8.862886473717209 10.287596029960293
0.10004268621026874 0.07950593857996698 0.18125362198188713 -0.19373962128339783 2.765159928871391 2.7620107651842942 2.7751132734041106 -0.17441782529429933 2.4066419266811954 2.9011374068858355 2.8057749944235106 -0.09612345094389656 1.3301146038329918 1.3155667999805172 1.1124169491638594 5.7715871225963715 -0.18096907940420753 0.02396142079737377 5.812859346006466 2.840667592580074 2.526832937320489 7.242258984979794 1.1724576913286748 1.1126890712321957 8.479345102969761 0.17748230369041978 2.5254745852532334 8.454871053877678 2.645901585570047 -0.17106541690886023 -0.1383893151014431 5.484614641634393 -0.17668287454360576 2.915093542838691 5.389373046853861 2.680063631949791 1.52698983915693 6.692628863800885 1.2790301780418045 4.288254244643422 3.986561201835378 1.22695775718923 5.861857126228003 5.311241268262132 0.010773098149368226 7.083984434419959 6.76923856542947 1.28719496922911 10.169852076766551 3.915588153174159 1.4355319831772082 8.534658147623686 5.468808978926622 2.738546164760647 -0.13606780899148593 7.932536695686174 2.5312986749979602 2.700957186939405 7.896221384641213 0.15858393415620156 4.445747432251852 9.114819009905286 1.363913068030145 5.831569149626111 7.92900249620944 2.7505737343536736 8.769750161059303 8.084280316605936 -0.08437364910527106 9.910140355538374 9.255674360679953 1.2669043735112453 -0.04174533190234699 -0.05953037214453324 5.338719951478046 3.0631685969533695 2.5853064370336414 5.0812269848734415 1.5358095299277839 1.2960078851766856 6.5722831613634085 4.4013937933874425 1.3028640063341077 3.8888930911840784 5.770899478033646 -0.17245877222971973 5.30600320073096 7.18342529049569 1.2185671385593215 6.38874755307402 10.235133144736967 1.3807518912878254 3.8030323683692675 8.700995867021657 2.664556061466254 5.146283354538466 1.3443575406379527 3.9718293486171823 3.833592467039496 0.04324595525844283 5.2861642598983005 5.248536891411816 1.623166359549838 6.784268510871902 6.601605725648174 6.987113494641046 3.882899630857399 3.983622057669902 4.249844384068319 6.503972618250477 3.745706072064538 4.245864175392444 3.8695069343738377 6.5284421507937065 5.538489165478939 5.337307400824565 5.016327565281026 7.264024233897856 6.591385904733182 6.592153718038031 10.026616504746853 6.779731637550011 3.8930686405978046 9.914328325461444 4.052322153121324 6.367006016037432 1.4896673377179597 9.260387379407073 3.998526668881689 2.813787352087059 8.09653935932763 5.097404133724296 7.188378815449184 9.411611597208848 3.9883644339645614 4.281033412166196 9.304108701432195 6.3860229449790165 8.71462568231995 7.8753921904727395 5.0831736174286775 10.026371481971628 9.160584070285962 6.477566615386928 0.2059726938491934 2.5525761366399995 7.931750816185917 2.8555089721079328 -0.1844874709599597 7.656829616698439 4.4414488068819065 1.4895736193292792 8.901756463495575 5.77859906468919 2.5473256485994833 7.58382976673986 8.78930004276543 -0.08790107375872734 7.832344963363789 9.974652481066727 1.2828297247635974 8.933529255532582 1.5233766000752849 3.973127856412148 9.002082563146312 2.9744782562827448 5.1566770625842615 7.653271705340232 7.339886446691425 3.9173405741287572 8.925996781184564 4.232286300405948 6.7443230236871 9.182268021324688 8.626744933031057 5.452774101364607 7.66987792633203 10.109380004186365 6.7558063491434535 8.997083872704298 0.18967585645375984 7.871035979104931 7.672963858335198 1.3186516028464719 9.459477981942944 9.206392037880736 5.6568667817541325 7.928944910211577 7.8498736894586205 7.009322494483822 9.472906810817323 8.990502131889638
-0.09658491723789266 -0.01980752426957069 0.20446884427121748 0.1683326203141989 2.9569838990201687 3.119305322903762 2.440274880514853 -0.18818263404431462 2.748357461034622 2.4692834974654465 3.053304319366169 -0.09623331695188268 1.4071542697280377 1.364481042266169 1.5832571501394055 5.083068339061908 -0.2009454057555224 -0.205516209473652 5.169090376408311 3.0047016876852437 2.8212651263838073 6.4570054107723704 1.293957035653559 1.5198363190934079 7.5902163192920415 -0.18539107648650735 2.92381875059176 7.653066729330223 2.991493838874827 -0.032447076545197955 -0.14778790390417226 5.539786488223722 0.020416185791877976 2.702459283517387 5.573475319253348 3.0394867467969315 1.323716653819285 7.301895586871757 1.595181817241363 3.8876156820263623 4.0745215077813 1.6497988320624342 5.2664815311600455 5.781485660060992 -0.03269776436241352 6.609384300888431 7.144638906685129 1.335237671046065 8.916164732026454 4.44062875785785 1.6478974287030448 7.779411264733841 5.905551698142885 2.9063184040297836 0.011616618513006115 8.572721360204612 2.7795277292904426 2.4973169812965312 8.44041555348653 0.0556261395090153 3.718619163891148 10.090115597553195 1.6647253795518966 5.194850674100238 8.423575918036027 2.7112599130327726 7.845349596317131 8.60258401531216 -0.09001817111066114 8.910105734952735 9.979316893526484 1.4916615578060108 0.17209612428197327 0.01854558729138385 5.838487395855153 2.396864460912529 2.9430441692518645 6.028531068271338 1.261453660573139 1.625969680352278 7.487068904872972 3.8541318626438663 1.4996166470565506 4.570732548283188 5.070212090537502 -0.19717446613215264 5.916212303793628 6.403326350792829 1.2420975868218591 7.258052837008387 8.881958591814692 1.5847049785074767 4.4407073633598575 7.873880206836593 2.8791814478161983 5.935882799552941 1.1918346794701378 4.106577681289483 4.505324272720197 -0.14695192376794916 5.765690203103385 5.90839530528986 1.1206446505634848 7.007786727688729 7.402341733836678 6.393375319133187 4.097329850201862 4.404453231149827 4.010172282022394 7.059311572018638 4.365855805190739 3.9044022056511833 4.238357680933323 7.093082195259813 5.184538482025964 5.511119911430516 6.025605668912815 6.630249812725571 7.231210120309077 7.139672950983932 9.005866356656055 7.216156104437979 4.236172660424796 9.209345196496573 4.084827326436492 7.296795789369843 1.2694055631141379 9.799221066060397 4.550203765420866 2.442297378836796 8.735844772655993 5.716375872958331 6.552169055555032 10.014021222663136 4.559927478466592 3.903207189573355 9.859984181349306 7.32210782325302 7.782337726328879 8.384357083716468 5.984036105188602 9.031435451775529 9.96936586186684 7.30790890777539 0.08829947243161543 2.867830388431599 8.533970972187563 2.5518915066570576 -0.1989080361223891 8.644388333305884 4.000218063653211 1.3566959108578092 10.028941396733515 5.13230300146844 2.877862150066276 8.566765400072715 7.562120163506653 -0.16032973042054602 8.753846494852402 9.064011058938876 1.322291132418 10.227696470797943 1.4787352016717046 4.368840689794026 10.35665092131554 2.4202750914363165 5.602494558569077 8.779061865212839 6.303082028765497 4.162137962134654 9.983506354336221 3.8205088902780853 7.296060721702414 10.172250911496244 7.802489415228863 5.702980008285002 8.56708300879029 9.171288448922919 7.190268338364418 10.36423741449585 0.1200539707699297 8.612986497490093 8.541676435857399 1.1176948197651475 10.146445999870744 10.169377561726888 5.18787178020572 8.492960144869517 8.754172601462084 6.405708947292891 10.043189175090772 10.265623625516934
0.15834975923640698 -0.02284661507822879 -0.1210598083375926 0.09287465190174024 2.7083436918789054 2.4119008241526956 2.773817734698845 -0.03698230614261235 2.437403403475644 2.8191490298480057 2.6254137365600005 0.13275456713217937 1.4203628394282575 1.4208663548942906 1.2387853688412331 5.546810470484 -0.09173136308457418 -0.052956414141116744 5.5751989492327745 2.7554048234599984 2.4348155681734744 6.834463452398626 1.4022692826076137 1.4517532497081387 8.23656347716459 0.046287229374314794 2.3915015284326278 8.204963357483425 2.5191634571091996 0.026013546392073286 -0.022942421403689628 5.218815386239352 -0.05629579684079076 2.7860468798865576 5.103218667482482 2.604823892703738 1.3280800577149199 6.554580175770958 1.1710471031962357 3.9546807281959078 3.8748027366002944 1.236116630419785 5.461178776787099 5.157396080015861 0.040115172985181885 7.0047357765812714 6.569603672117946 1.3816975355017163 9.62608413139755 3.817348747736155 1.1301739957251857 8.289849890871185 5.120598999435806 2.3976267461737577 -0.08042621668019483 7.790010194191608 2.697506931954557 2.775347442362037 7.864931805216713 0.11872106948162071 4.228185432577337 8.954870337792528 1.297259162814167 5.496572826956515 7.942974573422388 2.5783110889045417 8.315644147229426 7.80975055529545 0.06485555976335332 9.660498828017813 8.980269659186924 1.1051429964264499 0.17620380024339857 -0.15931846763828883 5.022232516055705 2.7389942644232836 2.5442008434962995 5.321373928615729 1.1796409305900732 1.3950337760058655 6.45783920637951 4.08678913488859 1.4357823352538162 3.91732797092818 5.633055324663849 0.04158207427946011 5.237381587598936 6.923414303015381 1.3808086657043852 6.439432682229028 9.676954096673075 1.1093914747032745 3.8230396434685288 8.38781824574326 2.651122831740054 5.24876125003423 1.414086460595845 3.7905080734009364 3.838795525947928 -0.09625022810214388 5.230433499973571 4.996896001030222 1.44152539220783 6.631823493416399 6.3439840337165725 6.786550709035659 4.059769622079178 3.773367257261264 4.175502598721148 6.3650795220683225 3.975901829285484 4.068816932746864 4.024291475246301 6.497501960605572 5.579701846529433 5.21490223010164 5.056972954182534 6.933294064199848 6.597024506979567 6.3585316919804376 9.435502995246662 6.372353351200256 3.989266811687272 9.442847082350598 3.9503023791223475 6.483450366204648 1.5099534633961456 9.226581334858384 3.8326713727215256 2.619705808591989 7.6011652815610145 5.046614161370762 7.00123458764304 9.027073178204 3.7408080098107606 4.07550421426403 8.969113544844372 6.554663207919691 8.28121880546189 7.84084928854004 5.023034095645394 9.6700017509888 8.904789177929963 6.566841256400492 -0.11203911053809065 2.6814082757329536 7.692454871033742 2.6409290387110205 -0.09247865242316874 7.618105968931946 4.092392740413322 1.1190498168244547 8.93200349693448 5.325389278167266 2.6339000479663763 7.769280898906063 8.148373754577888 -0.003905704534620325 7.772947087627031 9.583678122719126 1.4826678219048977 8.997580797682971 1.5546992754452682 3.7182594588561875 8.828674245895506 2.8128662639272295 5.233055399747015 7.568338840913949 6.995089144122091 3.813463268981354 9.11542470702926 4.0197321586690915 6.327383991058391 8.933254301739106 8.426196130693418 5.238536586078102 7.715387711804885 9.687126599407563 6.4538132116807 8.943414030296866 0.0774083174281783 7.696643736485835 7.894254927896095 1.2735364521153352 9.246543115025515 9.114232450534638 5.470603990182991 7.691883226625158 7.662007620802287 6.922852239239344 9.139384804512291 8.881483757004249
0.1009553253591468 -0.19082576065697407 0.07249922236719777 -0.0917812021042707 2.979679291028293 2.82478838130528 3.0233005095398298 0.05517575085009359 3.070751033522269 2.8206837300075334 2.8052610329079957 0.07073167980133033 1.622340942559218 1.4560897969480417 1.4508548954417195 5.862578964982758 -0.03789668995022224 0.03286385675230944 5.678180530904808 2.6969357656190573 3.053997128171176 7.345091968918915 1.3185945259951364 1.4850399680567061 8.71908429885031 0.20225261247098655 2.777573233594175 8.414039981997597 2.591024215376724 0.1311956248984256 -0.18911040056635522 5.735992051887672 -0.016697281814121005 2.854741122097976 5.483054712234264 2.9676373521656054 1.2980646079138203 6.850956126012172 1.5441027581801052 4.3322901292929314 4.350274208741374 1.6302493632229578 5.82787650867701 5.628833673566526 0.10242753732041579 7.31458631594167 6.84313874711376 1.3488148407566602 9.946328405728334 4.049484429019569 1.4323134627470042 8.500812776743432 5.469769276089056 2.9547860298038495 0.10853177665907111 8.280129758120815 3.036339466759395 2.7294043678779945 8.338132244757778 -0.10001715107010282 4.386549911162597 9.697802150631578 1.3727654866303367 5.632599693907872 8.276873349612215 2.7261657236162886 8.557919279177726 8.276039540273668 -0.14052740584447831 10.058228727704515 9.56303369157677 1.3831031680567134 0.16727036927667013 0.056942183150530214 5.753747416657365 2.6621866781652135 2.7360126677222425 5.991554059019541 1.3091395055862625 1.3929823098601608 7.066706235325653 4.447167072889146 1.3802786528007043 4.185669586764106 5.548272813906136 0.15223959587421185 5.622703898122962 7.217333725794313 1.3294573629702915 7.049379433012256 9.867550632349841 1.2420772530337965 4.545118019992491 8.398209817484949 2.972190550697404 6.004505305270071 1.4407614724101234 4.217841748153013 4.465892809645378 0.08910990347771472 5.6568412293244235 5.9526448069964095 1.6018410016445341 6.881627208538609 7.205952394862964 7.239744433515439 4.342461270904685 4.554125603432743 4.393723336111133 6.9681646270131115 4.398322055525595 4.306174465829153 4.031973322644657 7.1722502877103835 5.661029150529481 5.666828066874661 5.682617151566371 7.320123209645176 6.810373703984793 7.177414132229133 10.057925625241902 7.079920614483287 4.178278549791129 10.187867760468931 4.156631704686406 7.22848523178148 1.427358348129249 9.819423956720032 4.512724915782849 2.9181983427965656 8.17797534609638 5.867192117847821 7.298792790188238 9.593047496968161 4.43543822887795 4.192617627830185 9.900686504132702 7.241392067414778 8.518349419223256 8.490890334588183 5.878254802600524 9.989834156635064 9.84845961826687 7.065061932222606 -0.206933491527329 2.946527875529401 8.603746595100304 2.8242443512441775 0.022797080091053034 8.698747566953955 4.179369940709626 1.196174439061922 10.285034860178115 5.861547528397526 2.856020147874282 8.604869073450864 8.655647062929475 0.09775331985665826 8.522810465724296 10.027902937727065 1.3433700990839128 10.340917850107642 1.4882741712566885 4.230790773872682 10.105088590477758 2.8186308492259453 5.42088984049715 8.698998486941322 7.050959340720314 4.365367157007959 10.268123297135846 4.4380318089243485 6.9290599682741565 10.096109873938707 8.522064367354783 5.643865557234415 8.619046052737021 9.968701364424813 6.838413457440184 10.348335533450959 0.18551869189764844 8.224973992048474 8.687879178651647 1.4968332074628898 9.81916415460922 10.04245851752513 5.809990132586479 8.185807158445394 8.884106380629566 7.358119823484172 9.60853903052441 10.023898210318093
-0.14993155619515483 0.1263004650440499 -0.03090455275311476 -0.10796627098408178 3.1242079402619796 2.4595033456605293 2.434211560008573 -0.013441906379662001 2.6873480957658407 2.682198041254613 3.0706685017739823 0.16853725056474042 1.2826435249766444 1.3672343587976656 1.4533179161108642 5.319407319142024 0.07242719738158183 0.13710554351396367 5.036203972832135 3.1204238386703453 2.4596639217191356 6.502435584603561 1.5987860917296224 1.5004321994117262 8.02557873209372 0.13458175269810288 2.7621892161337103 7.667767734553803 3.0766985553432304 0.16626066236541856 0.0016131555361320242 5.742601295913603 0.045038415174798035 2.585784795118691 5.641878906731261 2.7487959051402053 1.3182988049373463 7.396080438341737 1.3639002927387052 3.8850732962756216 4.557861627722181 1.1654832182159045 5.106206683013047 5.895137987375359 0.13046910403918868 6.439328137149784 7.366243927662643 1.1667488110988686 9.128753157463127 4.467942204166877 1.3039124577919332 7.79554296392558 5.746019875687619 2.7209507488721187 -0.007750964092076399 8.7781680825605 2.5006055345565925 2.4641632206244313 8.54420559590657 0.08854396284276726 3.7550109144901396 10.262962075422545 1.2946867293721291 5.135505475180097 8.550203956832672 2.561778674357025 7.99225286140425 8.82201908003876 -0.033786470436525474 9.20137262354646 10.098486765287685 1.380572735876384 -0.0193800512837865 0.11821884104181676 5.2036573350012825 2.6571650788550167 2.987433056658172 5.429469530259496 1.2516629098799792 1.6623551953518938 6.656765023245945 3.8622429725746725 1.412221009321992 3.9781662098312798 5.0609126138502045 0.10348493124323566 5.372799915050111 6.395220429262039 1.6491002755667934 6.763538594426298 9.283303388186093 1.6338888632781456 3.8250273581497485 7.8910645903676615 2.925897564304437 5.1123613943120025 1.276063075838094 4.355568542942623 4.009411986708933 0.04888695847416212 6.00312855605252 5.449767611773078 1.4151198297484138 7.418698421333607 6.434902787745162 6.664788544069077 4.308124656153042 3.8948737179578066 3.9740007401004553 7.234963491958916 4.038027274205468 3.9358935059816904 4.187356670180848 6.508936802134246 5.050997042231256 5.694116834007395 5.11995917729554 6.520914508400563 7.110292028772571 6.73965079286571 9.22471319880206 7.420190088404347 3.793907295423241 8.993584034445384 4.278001855264196 6.483188642420988 1.3115134100397852 10.068133664525313 3.9802843348148715 2.5737658884162853 8.780735186655328 5.120053198803539 6.624881167819618 10.100649259971682 4.141847091044613 4.0526988551391945 10.245765647251519 6.763526973790477 7.718163262841716 8.740414749623532 5.315278824161537 9.24550568554872 10.16580510859413 6.695854729302235 -0.12489014242405233 3.031201653264253 7.964461582629512 2.6361528564492107 -0.15745644609945633 7.949216364854841 4.078945645771284 1.2724004627118533 9.327247350750916 5.046406891082275 2.9609950537457688 7.866472155707794 7.937008358714997 -0.15233597138849897 8.060281119917166 9.032670571237361 1.56590180520132 9.448152671510076 1.1514074589733223 4.498216073321386 9.359618216460252 2.752428938466177 6.035208905866352 8.061478045406647 6.5591696415206755 4.415363052766204 9.217679544866522 4.026447838821353 7.146649828989677 9.17070048350975 7.693451452559331 6.005875251791841 7.8383787404017315 9.161640613255743 7.229045419062117 9.346014677600545 -0.030880255060036152 8.96366406647267 8.118173014730546 1.4185183375151047 10.244369058110218 9.313412455596243 5.3427500072405 8.673579190914346 7.7514648358381075 6.434769678643948 10.426041852837542 9.318359677191335
-0.00854009759728781 -0.005492284988731934 -0.1497717116095779 0.19045995437760835 2.588049576549508 2.8613382552817637 2.7995708827299506 0.08760989010550992 2.7709450000342803 2.679048394272989 2.7404990965391876 -0.1338904190050977 1.2097404917300925 1.4384708834669753 1.5410453890343994 5.505674030632442 -0.13569710631880966 0.1978178162419383 5.268479097717296 2.899550914202961 2.7462780514706853 6.606172162816277 1.3614933370914222 1.29608036732172 7.910469290706816 -0.18377098904639935 2.9465747849308843 8.147750891279077 2.7467636125752932 0.0878243370006799 -0.03241037038970701 5.527220943539886 -0.16603856417584037 2.543199063992323 5.597063963936753 2.883339617827157 1.1628099554021398 6.610915550357628 1.3201995318473934 4.078123271961999 4.022840417960509 1.6220063142658305 5.453747881658457 5.401307282360826 -0.1302481551586354 6.6389469818153914 6.727653551120554 1.387784748664025 9.333821112502402 3.8985634421523576 1.3837991475605287 8.02451726072774 5.3533789568522385 2.9831974256811584 0.14274274239276255 7.967759945431479 2.932176842611647 2.7947252717981566 8.36061332389719 0.09376218263688937 4.198343534742867 9.484212831197498 1.3208884286090796 5.550991215189479 8.30759494021879 2.731897887132395 8.13816633730117 8.301495981630252 -0.012350141138934947 9.35679693062844 9.604048645140393 1.3827846915227555 -0.12149472178998676 -0.08486985879209438 5.681871599795533 2.8229433720558617 2.822130029427549 5.586023837768829 1.3389286347747789 1.5519577359642673 6.885293130422871 3.930018246066178 1.2157783385091274 4.2017969075417705 5.261734576195629 -0.11064793116486009 5.734187753226537 6.650540447640282 1.2289618225049406 7.166179673762237 9.28363387228977 1.4136505998177151 4.357215350349556 8.159537692646763 2.611952071932393 5.785023889743726 1.5086416853875477 4.153916360356977 4.327809458739846 0.14809613690534812 5.636368857562365 5.826359917692503 1.4005582279742539 6.884510899261214 7.166175229267 6.908544507253581 4.030466060662849 4.158048629803283 4.1908990052214214 6.860397290354587 4.208604763120561 3.99560566227392 4.205824731350015 7.267235273082525 5.513250783887179 5.310414021399216 5.540868877287933 6.875688576216397 6.720579025827562 7.287455504161818 9.474687166781475 6.937313724920636 4.277564440089137 9.476197184038138 3.9397272459107135 7.0700096858308745 1.1553465367759386 9.67540501616535 4.207370304568572 2.6928007736590973 8.19016582044656 5.818646496209239 6.740305917935582 9.511954259341069 4.267818773158898 3.8918578099640113 9.501303026506356 7.030699236586217 8.091811363106368 8.113080495061517 5.848519059818799 9.601268613369847 9.655441454685976 7.022181361465111 -0.024561391801723523 2.6913952020404963 8.557821133167895 2.67502612608379 0.134971542471421 8.602417198372779 4.097849052946211 1.356297722159739 9.719989970132142 5.595246165384949 2.626580016880128 8.480820253192348 8.076045627378042 -0.06257849293250707 8.569532378116556 9.283053865661381 1.2147194375189876 9.886444094612614 1.251332078154979 4.129879418993181 9.958406028113568 2.8045687176236016 5.425120887838978 8.554783320673621 6.650081553507094 4.112983670350928 10.094472027537023 3.952256277982925 6.933925908426473 10.048938173837199 8.101589252627072 5.594497267937568 8.681661437319041 9.449796882332237 6.882218650842894 9.836784638209338 0.08231316290719205 7.985981264778073 8.670877980751037 1.2872736000102312 9.680253960468571 10.015036675295583 5.4366776865781645 8.353067682109112 8.490680365874931 6.857701703993538 9.489724005290984 9.947653683012222