-6835.398722728599
-6828.7245542263445
-6834.351727726889
-6828.986849245303
-6829.5408059447445
-6829.3261251331605
-6834.310170637506
-6834.594109727249
-6836.337529485823
-6829.036245798321
-6839.088352771038
-6840.91449051063
-6830.729990223251
-6827.785501070039
-6839.691651464673
-6834.851417851943
-6825.224572155016
-6833.498671523355
-6830.993697785146
-6826.889798233313
-6821.892070028818
-6840.425578678668
-6835.5299698997715
-6830.827392555456
-6834.935093129443
-6834.431790557124
-6829.147635053947
-6840.4604093860735
-6834.915956451626
-6836.1738358687
-6829.81094872681
-6834.441157939963
-6838.166115161506
-6830.426220293289
-6839.248821839174
-6832.694095937658
-6837.332228969735
-6834.329872495767
-6832.762977474206
-6834.0965532468035
-6827.6458484384475
-6833.330172511898
-6836.398665846182
-6839.060724780886
-6834.879164755843
-6837.083779511058
-6815.413070279291
-6830.38793251562
-6836.066439747599
-6825.345434237593
-6828.227932048765
-6835.5768813731565
-6829.059744597029
-6830.085840847759
-6834.188375884747
-6830.334284455988
-6835.2243633374555
-6811.655435178977
-6840.807267862101
-6835.554720966365
-6828.252256168746
-6836.665742313457
-6832.637379658438
-6833.585496518538
-6833.2241663482855
-6829.938605355882
-6837.075859637785
-6835.4511113093295
-6837.320078270498
-6841.951189541026
-6833.913755333409
-6832.395849238336
-6825.961099416739
-6836.645208195021
-6827.700684683156
-6830.597849702345
-6829.327047190903
-6828.324174903903
-6838.279553706451
-6831.300043816818
-6839.511773332768
-6835.647728387961
-6830.5040841715945
-6839.795907256019
-6837.829466940932
-6827.742096599806
-6822.31089649261
