An instance of this daemon is already running
An instance of this daemon is already running

     Program PWSCF v.7.1 starts on  8May2023 at 15:43:29 

     This program is part of the open-source Quantum ESPRESSO suite
     for quantum simulation of materials; please cite
         "P. Giannozzi et al., J. Phys.:Condens. Matter 21 395502 (2009);
         "P. Giannozzi et al., J. Phys.:Condens. Matter 29 465901 (2017);
         "P. Giannozzi et al., J. Chem. Phys. 152 154105 (2020);
          URL http://www.quantum-espresso.org", 
     in publications or presentations arising from this work. More details at
     http://www.quantum-espresso.org/quote

     Parallel version (MPI & OpenMP), running on       4 processor cores
     Number of MPI processes:                 4
     Threads/MPI process:                     1

     MPI processes distributed on     1 nodes
     615239 MiB available memory on the printing compute node when the environment starts
 
     Reading input from pw-si-66.in
Warning: card &CELL ignored
Warning: card / ignored

     Current dimensions of program PWSCF are:
     Max number of different atomic species (ntypx) = 10
     Max number of k-points (npk) =  40000
     Max angular momentum in pseudopotentials (lmaxx) =  4

     IMPORTANT: XC functional enforced from input :
     Exchange-correlation= PBE
                           (   1   4   3   4   0   0   0)
     Any further DFT definition will be discarded
     Please, verify this is what you really want


     gamma-point specific algorithms are used
 
     K-points division:     npool     =       2
     R & G space division:  proc/nbgrp/npool/nimage =       2
     Subspace diagonalization in iterative solution of the eigenvalue problem:
     a serial algorithm will be used

     Message from routine divide_et_impera:
     suboptimal parallelization: some nodes have no k-points
 
     Parallelization info
     --------------------
     sticks:   dense  smooth     PW     G-vecs:    dense   smooth      PW
     Min        2178    2178    576                99914    99914   13616
     Max        2179    2179    577                99915    99915   13619
     Sum        4357    4357   1153               199829   199829   27235
 
     Using Slab Decomposition
 


     bravais-lattice index     =            0
     lattice parameter (alat)  =      21.4844  a.u.
     unit-cell volume          =    9002.4050 (a.u.)^3
     number of atoms/cell      =           64
     number of atomic types    =            1
     number of electrons       =       256.00
     number of Kohn-Sham states=          128
     kinetic-energy cutoff     =      30.0000  Ry
     charge density cutoff     =     120.0000  Ry
     scf convergence threshold =      1.0E-06
     mixing beta               =       0.5000
     number of iterations used =            8  plain     mixing
     Exchange-correlation= PBE
                           (   1   4   3   4   0   0   0)

     GPU acceleration is ACTIVE.
     GPU-aware MPI enabled

     Message from routine print_cuda_info:
     High GPU oversubscription detected. Are you sure this is what you want?

     celldm(1)=  21.484445  celldm(2)=   0.000000  celldm(3)=   0.000000
     celldm(4)=   0.000000  celldm(5)=   0.000000  celldm(6)=   0.000000

     crystal axes: (cart. coord. in units of alat)
               a(1) = (   1.000000   0.000000   0.000000 )  
               a(2) = (   0.000000   0.989027   0.000000 )  
               a(3) = (   0.000000   0.000000   0.917863 )  

     reciprocal axes: (cart. coord. in units 2 pi/alat)
               b(1) = (  1.000000  0.000000  0.000000 )  
               b(2) = (  0.000000  1.011094  0.000000 )  
               b(3) = (  0.000000  0.000000  1.089487 )  


     PseudoPot. # 1 for Si read from file:
     /home/ppiaggi/pseudos/Si_ONCV_PBE_sr.upf
     MD5 check sum: 8553c464762ac42b85b1eed164b4d029
     Pseudo is Norm-conserving, Zval =  4.0
     Generated using ONCVPSP code by D. R. Hamann
     Using radial grid of 1510 points,  4 beta functions with: 
                l(1) =   0
                l(2) =   0
                l(3) =   1
                l(4) =   1

     atomic species   valence    mass     pseudopotential
        Si             4.00    28.08500     Si( 1.00)

     No symmetry found



   Cartesian axes

     site n.     atom                  positions (alat units)
         1           Si  tau(   1) = (  -0.0152618   0.0114277   0.0066530  )
         2           Si  tau(   2) = (   0.0082219   0.2366398   0.2441468  )
         3           Si  tau(   3) = (   0.2556974   0.0127569   0.2387780  )
         4           Si  tau(   4) = (   0.2480709   0.2513622   0.0009210  )
         5           Si  tau(   5) = (   0.1278422   0.1178013   0.1113569  )
         6           Si  tau(   6) = (   0.5245647   0.0034040   0.0094399  )
         7           Si  tau(   7) = (   0.5374034   0.2624936   0.2404723  )
         8           Si  tau(   8) = (   0.6447980   0.1132337   0.1175883  )
         9           Si  tau(   9) = (   0.7705731  -0.0164824   0.2353068  )
        10           Si  tau(  10) = (   0.7956103   0.2617619  -0.0084843  )
        11           Si  tau(  11) = (  -0.0042561   0.4902046   0.0171397  )
        12           Si  tau(  12) = (   0.2603855   0.5041417   0.2444324  )
        13           Si  tau(  13) = (   0.1403991   0.6170648   0.1041400  )
        14           Si  tau(  14) = (   0.3991290   0.3608555   0.1047767  )
        15           Si  tau(  15) = (   0.5039826   0.5058385  -0.0053517  )
        16           Si  tau(  16) = (   0.6584458   0.6177299   0.1251703  )
        17           Si  tau(  17) = (   0.9038885   0.3876979   0.1318936  )
        18           Si  tau(  18) = (   0.7763961   0.5086575   0.2537600  )
        19           Si  tau(  19) = (   0.0115518   0.7318417   0.2478186  )
        20           Si  tau(  20) = (   0.2608408   0.7333063   0.0011721  )
        21           Si  tau(  21) = (   0.3783197   0.8514398   0.1123217  )
        22           Si  tau(  22) = (   0.5172692   0.7313101   0.2388219  )
        23           Si  tau(  23) = (   0.7953170   0.7438643   0.0016488  )
        24           Si  tau(  24) = (   0.9140202   0.8601811   0.1171296  )
        25           Si  tau(  25) = (  -0.0075797  -0.0148843   0.4900723  )
        26           Si  tau(  26) = (   0.2684070   0.2443927   0.4681518  )
        27           Si  tau(  27) = (   0.1239841   0.1376078   0.5948293  )
        28           Si  tau(  28) = (   0.3899671   0.1103933   0.3589053  )
        29           Si  tau(  29) = (   0.5148621   0.0095518   0.4791772  )
        30           Si  tau(  30) = (   0.6409698   0.1351303   0.5787423  )
        31           Si  tau(  31) = (   0.9202700   0.1110506   0.3602835  )
        32           Si  tau(  32) = (   0.7966369   0.2417875   0.4890311  )
        33           Si  tau(  33) = (   0.1345695   0.3718893   0.3489504  )
        34           Si  tau(  34) = (  -0.0161848   0.4971509   0.4806639  )
        35           Si  tau(  35) = (   0.1251056   0.6236757   0.6059697  )
        36           Si  tau(  36) = (   0.6640988   0.3839671   0.3571762  )
        37           Si  tau(  37) = (   0.3758559   0.6206642   0.3542389  )
        38           Si  tau(  38) = (   0.3892529   0.3574835   0.5897110  )
        39           Si  tau(  39) = (   0.5248338   0.5071833   0.4618955  )
        40           Si  tau(  40) = (   0.6441415   0.6221737   0.6087379  )
        41           Si  tau(  41) = (   0.9232905   0.6327849   0.3428157  )
        42           Si  tau(  42) = (   0.9315525   0.3568768   0.5959569  )
        43           Si  tau(  43) = (   0.1229233   0.8637906   0.3423277  )
        44           Si  tau(  44) = (   0.2664498   0.7238932   0.4883520  )
        45           Si  tau(  45) = (   0.6401841   0.8788527   0.3669097  )
        46           Si  tau(  46) = (   0.4088211   0.8715284   0.5983316  )
        47           Si  tau(  47) = (   0.7650689   0.7485484   0.4835553  )
        48           Si  tau(  48) = (   0.9032817   0.8694302   0.5897855  )
        49           Si  tau(  49) = (   0.0158723   0.2643653   0.7036775  )
        50           Si  tau(  50) = (   0.2756284   0.0158321   0.7210918  )
        51           Si  tau(  51) = (   0.3930334   0.1136201   0.8427879  )
        52           Si  tau(  52) = (   0.5399962   0.2610383   0.6990492  )
        53           Si  tau(  53) = (   0.7990528  -0.0008398   0.7073888  )
        54           Si  tau(  54) = (   0.8999195   0.1232576   0.8253239  )
        55           Si  tau(  55) = (   0.1290653   0.3585561   0.8478974  )
        56           Si  tau(  56) = (   0.2422065   0.5021763   0.7061230  )
        57           Si  tau(  57) = (   0.6421075   0.3632083   0.8233531  )
        58           Si  tau(  58) = (   0.3755133   0.6273696   0.8476950  )
        59           Si  tau(  59) = (   0.7841293   0.4837042   0.7078965  )
        60           Si  tau(  60) = (   0.9236624   0.6117626   0.8293362  )
        61           Si  tau(  61) = (   0.0182885   0.7280027   0.7073727  )
        62           Si  tau(  62) = (   0.1181578   0.8469294   0.8452826  )
        63           Si  tau(  63) = (   0.5171914   0.7375599   0.7099805  )
        64           Si  tau(  64) = (   0.6568357   0.8731192   0.8299554  )

     number of k points=     1
                       cart. coord. in units 2pi/alat
        k(    1) = (   0.0000000   0.0000000   0.0000000), wk =   2.0000000

     Dense  grid:    99915 G-vectors     FFT dimensions: (  75,  75,  72)

     Estimated max dynamical RAM per process >     146.70 MB

     Estimated total dynamical RAM >     562.42 MB

     Initial potential from superposition of free atoms

     starting charge     255.9608, renormalised to     256.0000
     Starting wfcs are  256 randomized atomic wfcs

     total cpu time spent up to now is        5.0 secs

     Self-consistent Calculation

     iteration #  1     ecut=    30.00 Ry     beta= 0.50
     Davidson diagonalization with overlap
     ethr =  1.00E-02,  avg # of iterations =  2.0

     Threshold (ethr) on eigenvalues was too large:
     Diagonalizing with lowered threshold

     Davidson diagonalization with overlap
     ethr =  6.74E-04,  avg # of iterations =  6.0

     total cpu time spent up to now is        5.3 secs

     total energy              =    -501.76050598 Ry
     estimated scf accuracy    <       2.01770909 Ry

     iteration #  2     ecut=    30.00 Ry     beta= 0.50
     Davidson diagonalization with overlap
     ethr =  7.88E-04,  avg # of iterations =  4.0

     total cpu time spent up to now is        5.4 secs

     total energy              =    -501.78186385 Ry
     estimated scf accuracy    <       0.50967324 Ry

     iteration #  3     ecut=    30.00 Ry     beta= 0.50
     Davidson diagonalization with overlap
     ethr =  1.99E-04,  avg # of iterations = 18.0

     total cpu time spent up to now is        5.6 secs

     total energy              =    -501.71672134 Ry
     estimated scf accuracy    <       1.16493535 Ry

     iteration #  4     ecut=    30.00 Ry     beta= 0.50
     Davidson diagonalization with overlap
     ethr =  1.99E-04,  avg # of iterations = 17.0

     total cpu time spent up to now is        5.8 secs

     total energy              =    -501.87935546 Ry
     estimated scf accuracy    <       0.40658149 Ry

     iteration #  5     ecut=    30.00 Ry     beta= 0.50
     Davidson diagonalization with overlap
     ethr =  1.59E-04,  avg # of iterations =  3.0

     total cpu time spent up to now is        5.9 secs

     total energy              =    -501.89395273 Ry
     estimated scf accuracy    <       0.11628685 Ry

     iteration #  6     ecut=    30.00 Ry     beta= 0.50
     Davidson diagonalization with overlap
     ethr =  4.54E-05,  avg # of iterations =  9.0

     total cpu time spent up to now is        6.0 secs

     total energy              =    -501.90954660 Ry
     estimated scf accuracy    <       0.00794696 Ry

     iteration #  7     ecut=    30.00 Ry     beta= 0.50
     Davidson diagonalization with overlap
     ethr =  3.10E-06,  avg # of iterations = 17.0

     total cpu time spent up to now is        6.2 secs

     total energy              =    -501.91688468 Ry
     estimated scf accuracy    <       0.14935927 Ry

     iteration #  8     ecut=    30.00 Ry     beta= 0.50
     Davidson diagonalization with overlap
     c_bands:  1 eigenvalues not converged
     ethr =  3.10E-06,  avg # of iterations = 20.0

     total cpu time spent up to now is        6.4 secs

     total energy              =    -501.91487849 Ry
     estimated scf accuracy    <       0.07367260 Ry

     iteration #  9     ecut=    30.00 Ry     beta= 0.50
     Davidson diagonalization with overlap
     ethr =  3.10E-06,  avg # of iterations =  3.0

     total cpu time spent up to now is        6.5 secs

     total energy              =    -501.91260703 Ry
     estimated scf accuracy    <       0.04716567 Ry

     iteration # 10     ecut=    30.00 Ry     beta= 0.50
     Davidson diagonalization with overlap
     c_bands:  1 eigenvalues not converged
     ethr =  3.10E-06,  avg # of iterations = 20.0

     total cpu time spent up to now is        6.7 secs

     total energy              =    -501.91539584 Ry
     estimated scf accuracy    <       0.01075796 Ry

     iteration # 11     ecut=    30.00 Ry     beta= 0.50
     Davidson diagonalization with overlap
     ethr =  3.10E-06,  avg # of iterations = 14.0

     total cpu time spent up to now is        6.9 secs

     total energy              =    -501.91534358 Ry
     estimated scf accuracy    <       0.01398329 Ry

     iteration # 12     ecut=    30.00 Ry     beta= 0.50
     Davidson diagonalization with overlap
     ethr =  3.10E-06,  avg # of iterations =  1.0

     total cpu time spent up to now is        7.0 secs

     total energy              =    -501.91409327 Ry
     estimated scf accuracy    <       0.01218594 Ry

     iteration # 13     ecut=    30.00 Ry     beta= 0.50
     Davidson diagonalization with overlap
     c_bands:  1 eigenvalues not converged
     ethr =  3.10E-06,  avg # of iterations = 20.0

     total cpu time spent up to now is        7.2 secs

     total energy              =    -501.91577982 Ry
     estimated scf accuracy    <       0.02969553 Ry

     iteration # 14     ecut=    30.00 Ry     beta= 0.50
     Davidson diagonalization with overlap
     ethr =  3.10E-06,  avg # of iterations = 11.0

     total cpu time spent up to now is        7.3 secs

     total energy              =    -501.91526711 Ry
     estimated scf accuracy    <       0.03053669 Ry

     iteration # 15     ecut=    30.00 Ry     beta= 0.50
     Davidson diagonalization with overlap
     ethr =  3.10E-06,  avg # of iterations =  1.0

     total cpu time spent up to now is        7.4 secs

     total energy              =    -501.91406770 Ry
     estimated scf accuracy    <       0.02783599 Ry

     iteration # 16     ecut=    30.00 Ry     beta= 0.50
     Davidson diagonalization with overlap
     ethr =  3.10E-06,  avg # of iterations =  3.0

     total cpu time spent up to now is        7.5 secs

     total energy              =    -501.91304186 Ry
     estimated scf accuracy    <       0.02076048 Ry

     iteration # 17     ecut=    30.00 Ry     beta= 0.50
     Davidson diagonalization with overlap
     c_bands:  1 eigenvalues not converged
     ethr =  3.10E-06,  avg # of iterations = 20.0

     total cpu time spent up to now is        7.7 secs

     total energy              =    -501.91608477 Ry
     estimated scf accuracy    <       0.02119277 Ry

     iteration # 18     ecut=    30.00 Ry     beta= 0.50
     Davidson diagonalization with overlap
     ethr =  3.10E-06,  avg # of iterations =  1.0

     total cpu time spent up to now is        7.8 secs

     total energy              =    -501.91569321 Ry
     estimated scf accuracy    <       0.02022088 Ry

     iteration # 19     ecut=    30.00 Ry     beta= 0.50
     Davidson diagonalization with overlap
     ethr =  3.10E-06,  avg # of iterations =  1.0

     total cpu time spent up to now is        7.8 secs

     total energy              =    -501.91588062 Ry
     estimated scf accuracy    <       0.01850961 Ry

     iteration # 20     ecut=    30.00 Ry     beta= 0.50
     Davidson diagonalization with overlap
     ethr =  3.10E-06,  avg # of iterations =  1.0

     total cpu time spent up to now is        7.9 secs

     total energy              =    -501.91621244 Ry
     estimated scf accuracy    <       0.01903389 Ry

     iteration # 21     ecut=    30.00 Ry     beta= 0.50
     Davidson diagonalization with overlap
     ethr =  3.10E-06,  avg # of iterations =  1.0

     total cpu time spent up to now is        8.0 secs

     total energy              =    -501.91496171 Ry
     estimated scf accuracy    <       0.02082989 Ry

     iteration # 22     ecut=    30.00 Ry     beta= 0.50
     Davidson diagonalization with overlap
     ethr =  3.10E-06,  avg # of iterations =  2.0

     total cpu time spent up to now is        8.1 secs

     total energy              =    -501.91472069 Ry
     estimated scf accuracy    <       0.01520479 Ry

     iteration # 23     ecut=    30.00 Ry     beta= 0.50
     Davidson diagonalization with overlap
     ethr =  3.10E-06,  avg # of iterations =  1.0

     total cpu time spent up to now is        8.2 secs

     total energy              =    -501.91441072 Ry
     estimated scf accuracy    <       0.01310753 Ry

     iteration # 24     ecut=    30.00 Ry     beta= 0.50
     Davidson diagonalization with overlap
     ethr =  3.10E-06,  avg # of iterations =  1.0

     total cpu time spent up to now is        8.3 secs

     total energy              =    -501.91435815 Ry
     estimated scf accuracy    <       0.01106960 Ry

     iteration # 25     ecut=    30.00 Ry     beta= 0.50
     Davidson diagonalization with overlap
     ethr =  3.10E-06,  avg # of iterations =  1.0

     total cpu time spent up to now is        8.4 secs

     total energy              =    -501.91102133 Ry
     estimated scf accuracy    <       0.01018348 Ry

     iteration # 26     ecut=    30.00 Ry     beta= 0.50
     Davidson diagonalization with overlap
     c_bands:  1 eigenvalues not converged
     ethr =  3.10E-06,  avg # of iterations = 20.0

     total cpu time spent up to now is        8.6 secs

     total energy              =    -501.91962186 Ry
     estimated scf accuracy    <       0.11457781 Ry

     iteration # 27     ecut=    30.00 Ry     beta= 0.50
     Davidson diagonalization with overlap
     ethr =  3.10E-06,  avg # of iterations =  6.0

     total cpu time spent up to now is        8.7 secs

     total energy              =    -501.91789667 Ry
     estimated scf accuracy    <       0.08642734 Ry

     iteration # 28     ecut=    30.00 Ry     beta= 0.50
     Davidson diagonalization with overlap
     ethr =  3.10E-06,  avg # of iterations =  2.0

     total cpu time spent up to now is        8.8 secs

     total energy              =    -501.91695429 Ry
     estimated scf accuracy    <       0.07335735 Ry

     iteration # 29     ecut=    30.00 Ry     beta= 0.50
     Davidson diagonalization with overlap
     ethr =  3.10E-06,  avg # of iterations =  2.0

     total cpu time spent up to now is        8.9 secs

     total energy              =    -501.91574680 Ry
     estimated scf accuracy    <       0.06504613 Ry

     iteration # 30     ecut=    30.00 Ry     beta= 0.50
     Davidson diagonalization with overlap
     c_bands:  1 eigenvalues not converged
     ethr =  3.10E-06,  avg # of iterations = 20.0

     total cpu time spent up to now is        9.1 secs

     total energy              =    -501.91497188 Ry
     estimated scf accuracy    <       0.03971544 Ry

     iteration # 31     ecut=    30.00 Ry     beta= 0.50
     Davidson diagonalization with overlap
     ethr =  3.10E-06,  avg # of iterations =  2.0

     total cpu time spent up to now is        9.2 secs

     total energy              =    -501.91473260 Ry
     estimated scf accuracy    <       0.03237130 Ry

     iteration # 32     ecut=    30.00 Ry     beta= 0.50
     Davidson diagonalization with overlap
     ethr =  3.10E-06,  avg # of iterations =  1.0

     total cpu time spent up to now is        9.3 secs

     total energy              =    -501.91472994 Ry
     estimated scf accuracy    <       0.02925431 Ry

     iteration # 33     ecut=    30.00 Ry     beta= 0.50
     Davidson diagonalization with overlap
     ethr =  3.10E-06,  avg # of iterations =  1.0

     total cpu time spent up to now is        9.4 secs

     total energy              =    -501.91469179 Ry
     estimated scf accuracy    <       0.02724724 Ry

     iteration # 34     ecut=    30.00 Ry     beta= 0.50
     Davidson diagonalization with overlap
     ethr =  3.10E-06,  avg # of iterations =  1.0

     total cpu time spent up to now is        9.5 secs

     total energy              =    -501.91045407 Ry
     estimated scf accuracy    <       0.02576532 Ry

     iteration # 35     ecut=    30.00 Ry     beta= 0.50
     Davidson diagonalization with overlap
     c_bands:  1 eigenvalues not converged
     ethr =  3.10E-06,  avg # of iterations = 20.0

     total cpu time spent up to now is        9.7 secs

     total energy              =    -501.91858100 Ry
     estimated scf accuracy    <       0.04699930 Ry

     iteration # 36     ecut=    30.00 Ry     beta= 0.50
     Davidson diagonalization with overlap
     ethr =  3.10E-06,  avg # of iterations =  2.0

     total cpu time spent up to now is        9.8 secs

     total energy              =    -501.91712104 Ry
     estimated scf accuracy    <       0.04050116 Ry

     iteration # 37     ecut=    30.00 Ry     beta= 0.50
     Davidson diagonalization with overlap
     ethr =  3.10E-06,  avg # of iterations =  2.0

     total cpu time spent up to now is        9.9 secs

     total energy              =    -501.91551689 Ry
     estimated scf accuracy    <       0.03459547 Ry

     iteration # 38     ecut=    30.00 Ry     beta= 0.50
     Davidson diagonalization with overlap
     c_bands:  1 eigenvalues not converged
     ethr =  3.10E-06,  avg # of iterations = 20.0

     total cpu time spent up to now is       10.1 secs

     total energy              =    -501.91469640 Ry
     estimated scf accuracy    <       0.02006350 Ry

     iteration # 39     ecut=    30.00 Ry     beta= 0.50
     Davidson diagonalization with overlap
     c_bands:  1 eigenvalues not converged
     ethr =  3.10E-06,  avg # of iterations = 20.0

     total cpu time spent up to now is       10.3 secs

     total energy              =    -501.91540358 Ry
     estimated scf accuracy    <       0.00282855 Ry

     iteration # 40     ecut=    30.00 Ry     beta= 0.50
     Davidson diagonalization with overlap
     ethr =  1.10E-06,  avg # of iterations = 16.0

     total cpu time spent up to now is       10.4 secs

     total energy              =    -501.91562247 Ry
     estimated scf accuracy    <       0.00305029 Ry

     iteration # 41     ecut=    30.00 Ry     beta= 0.50
     Davidson diagonalization with overlap
     ethr =  1.10E-06,  avg # of iterations =  3.0

     total cpu time spent up to now is       10.5 secs

     total energy              =    -501.91568042 Ry
     estimated scf accuracy    <       0.00342198 Ry

     iteration # 42     ecut=    30.00 Ry     beta= 0.50
     Davidson diagonalization with overlap
     ethr =  1.10E-06,  avg # of iterations =  2.0

     total cpu time spent up to now is       10.6 secs

     total energy              =    -501.91569744 Ry
     estimated scf accuracy    <       0.00366893 Ry

     iteration # 43     ecut=    30.00 Ry     beta= 0.50
     Davidson diagonalization with overlap
     c_bands:  1 eigenvalues not converged
     ethr =  1.10E-06,  avg # of iterations = 20.0

     total cpu time spent up to now is       10.8 secs

     total energy              =    -501.92026829 Ry
     estimated scf accuracy    <       0.02106909 Ry

     iteration # 44     ecut=    30.00 Ry     beta= 0.50
     Davidson diagonalization with overlap
     ethr =  1.10E-06,  avg # of iterations = 17.0

     total cpu time spent up to now is       11.0 secs

     total energy              =    -501.92191922 Ry
     estimated scf accuracy    <       0.05793826 Ry

     iteration # 45     ecut=    30.00 Ry     beta= 0.50
     Davidson diagonalization with overlap
     ethr =  1.10E-06,  avg # of iterations =  2.0

     total cpu time spent up to now is       11.1 secs

     total energy              =    -501.92018326 Ry
     estimated scf accuracy    <       0.06161690 Ry

     iteration # 46     ecut=    30.00 Ry     beta= 0.50
     Davidson diagonalization with overlap
     ethr =  1.10E-06,  avg # of iterations =  1.0

     total cpu time spent up to now is       11.2 secs

     total energy              =    -501.92540183 Ry
     estimated scf accuracy    <       0.05605769 Ry

     iteration # 47     ecut=    30.00 Ry     beta= 0.50
     Davidson diagonalization with overlap
     ethr =  1.10E-06,  avg # of iterations = 13.0

     total cpu time spent up to now is       11.4 secs

     total energy              =    -501.92615903 Ry
     estimated scf accuracy    <       0.08408621 Ry

     iteration # 48     ecut=    30.00 Ry     beta= 0.50
     Davidson diagonalization with overlap
     ethr =  1.10E-06,  avg # of iterations = 14.0

     total cpu time spent up to now is       11.6 secs

     total energy              =    -501.92062769 Ry
     estimated scf accuracy    <       0.09007171 Ry

     iteration # 49     ecut=    30.00 Ry     beta= 0.50
     Davidson diagonalization with overlap
     ethr =  1.10E-06,  avg # of iterations =  8.0

     total cpu time spent up to now is       11.7 secs

     total energy              =    -501.92366934 Ry
     estimated scf accuracy    <       0.06033043 Ry

     iteration # 50     ecut=    30.00 Ry     beta= 0.50
     Davidson diagonalization with overlap
     ethr =  1.10E-06,  avg # of iterations =  9.0

     total cpu time spent up to now is       11.8 secs

     total energy              =    -501.92697527 Ry
     estimated scf accuracy    <       0.07439090 Ry

     iteration # 51     ecut=    30.00 Ry     beta= 0.50
     Davidson diagonalization with overlap
     ethr =  1.10E-06,  avg # of iterations =  8.0

     total cpu time spent up to now is       12.0 secs

     total energy              =    -501.90241318 Ry
     estimated scf accuracy    <       0.09062398 Ry

     iteration # 52     ecut=    30.00 Ry     beta= 0.50
     Davidson diagonalization with overlap
     c_bands:  1 eigenvalues not converged
     ethr =  1.10E-06,  avg # of iterations = 20.0

     total cpu time spent up to now is       12.2 secs

     total energy              =    -501.91719605 Ry
     estimated scf accuracy    <       0.11383236 Ry

     iteration # 53     ecut=    30.00 Ry     beta= 0.50
     Davidson diagonalization with overlap
     ethr =  1.10E-06,  avg # of iterations = 19.0

     total cpu time spent up to now is       12.4 secs

     total energy              =    -501.91443278 Ry
     estimated scf accuracy    <       0.06283016 Ry

     iteration # 54     ecut=    30.00 Ry     beta= 0.50
     Davidson diagonalization with overlap
     c_bands:  1 eigenvalues not converged
     ethr =  1.10E-06,  avg # of iterations = 20.0

     total cpu time spent up to now is       12.6 secs

     total energy              =    -501.91509260 Ry
     estimated scf accuracy    <       0.00870921 Ry

     iteration # 55     ecut=    30.00 Ry     beta= 0.50
     Davidson diagonalization with overlap
     c_bands:  1 eigenvalues not converged
     ethr =  1.10E-06,  avg # of iterations = 20.0

     total cpu time spent up to now is       12.8 secs

     total energy              =    -501.91517640 Ry
     estimated scf accuracy    <       0.00205448 Ry

     iteration # 56     ecut=    30.00 Ry     beta= 0.50
     Davidson diagonalization with overlap
     c_bands:  1 eigenvalues not converged
     ethr =  8.03E-07,  avg # of iterations = 20.0

     total cpu time spent up to now is       13.0 secs

     total energy              =    -501.91557974 Ry
     estimated scf accuracy    <       0.00465885 Ry

     iteration # 57     ecut=    30.00 Ry     beta= 0.50
     Davidson diagonalization with overlap
     c_bands:  1 eigenvalues not converged
     ethr =  8.03E-07,  avg # of iterations = 20.0

     total cpu time spent up to now is       13.2 secs

     total energy              =    -501.91529433 Ry
     estimated scf accuracy    <       0.00846726 Ry

     iteration # 58     ecut=    30.00 Ry     beta= 0.50
     Davidson diagonalization with overlap
     ethr =  8.03E-07,  avg # of iterations =  2.0

     total cpu time spent up to now is       13.3 secs

     total energy              =    -501.91525955 Ry
     estimated scf accuracy    <       0.00715714 Ry

     iteration # 59     ecut=    30.00 Ry     beta= 0.50
     Davidson diagonalization with overlap
     c_bands:  1 eigenvalues not converged
     ethr =  8.03E-07,  avg # of iterations = 20.0

     total cpu time spent up to now is       13.5 secs

     total energy              =    -501.91515326 Ry
     estimated scf accuracy    <       0.00421224 Ry

     iteration # 60     ecut=    30.00 Ry     beta= 0.50
     Davidson diagonalization with overlap
     c_bands:  1 eigenvalues not converged
     ethr =  8.03E-07,  avg # of iterations = 20.0

     total cpu time spent up to now is       13.6 secs

     total energy              =    -501.91571511 Ry
     estimated scf accuracy    <       0.00389243 Ry

     iteration # 61     ecut=    30.00 Ry     beta= 0.50
     Davidson diagonalization with overlap
     c_bands:  1 eigenvalues not converged
     ethr =  8.03E-07,  avg # of iterations = 20.0

     total cpu time spent up to now is       13.8 secs

     total energy              =    -501.91445044 Ry
     estimated scf accuracy    <       0.01683391 Ry

     iteration # 62     ecut=    30.00 Ry     beta= 0.50
     Davidson diagonalization with overlap
     c_bands:  1 eigenvalues not converged
     ethr =  8.03E-07,  avg # of iterations = 20.0

     total cpu time spent up to now is       14.0 secs

     total energy              =    -501.91471062 Ry
     estimated scf accuracy    <       0.00330448 Ry

     iteration # 63     ecut=    30.00 Ry     beta= 0.50
     Davidson diagonalization with overlap
     c_bands:  1 eigenvalues not converged
     ethr =  8.03E-07,  avg # of iterations = 20.0

     total cpu time spent up to now is       14.2 secs

     total energy              =    -501.91515492 Ry
     estimated scf accuracy    <       0.00197201 Ry

     iteration # 64     ecut=    30.00 Ry     beta= 0.50
     Davidson diagonalization with overlap
     c_bands:  1 eigenvalues not converged
     ethr =  7.70E-07,  avg # of iterations = 20.0

     total cpu time spent up to now is       14.4 secs

     total energy              =    -501.91532877 Ry
     estimated scf accuracy    <       0.00368619 Ry

     iteration # 65     ecut=    30.00 Ry     beta= 0.50
     Davidson diagonalization with overlap
     c_bands:  1 eigenvalues not converged
     ethr =  7.70E-07,  avg # of iterations = 20.0

     total cpu time spent up to now is       14.5 secs

     total energy              =    -501.91537372 Ry
     estimated scf accuracy    <       0.00664162 Ry

     iteration # 66     ecut=    30.00 Ry     beta= 0.50
     Davidson diagonalization with overlap
     ethr =  7.70E-07,  avg # of iterations = 12.0

     total cpu time spent up to now is       14.7 secs

     total energy              =    -501.91503226 Ry
     estimated scf accuracy    <       0.00725944 Ry

     iteration # 67     ecut=    30.00 Ry     beta= 0.50
     Davidson diagonalization with overlap
     ethr =  7.70E-07,  avg # of iterations =  2.0

     total cpu time spent up to now is       14.8 secs

     total energy              =    -501.91488259 Ry
     estimated scf accuracy    <       0.00536416 Ry

     iteration # 68     ecut=    30.00 Ry     beta= 0.50
     Davidson diagonalization with overlap
     ethr =  7.70E-07,  avg # of iterations =  2.0

     total cpu time spent up to now is       14.9 secs

     total energy              =    -501.91487799 Ry
     estimated scf accuracy    <       0.00438594 Ry

     iteration # 69     ecut=    30.00 Ry     beta= 0.50
     Davidson diagonalization with overlap
     ethr =  7.70E-07,  avg # of iterations =  1.0

     total cpu time spent up to now is       15.0 secs

     total energy              =    -501.91399626 Ry
     estimated scf accuracy    <       0.00397583 Ry

     iteration # 70     ecut=    30.00 Ry     beta= 0.50
     Davidson diagonalization with overlap
     c_bands:  1 eigenvalues not converged
     ethr =  7.70E-07,  avg # of iterations = 20.0

     total cpu time spent up to now is       15.2 secs

     total energy              =    -501.91465398 Ry
     estimated scf accuracy    <       0.06280062 Ry

     iteration # 71     ecut=    30.00 Ry     beta= 0.50
     Davidson diagonalization with overlap
     ethr =  7.70E-07,  avg # of iterations = 11.0

     total cpu time spent up to now is       15.3 secs

     total energy              =    -501.91338244 Ry
     estimated scf accuracy    <       0.04005134 Ry

     iteration # 72     ecut=    30.00 Ry     beta= 0.50
     Davidson diagonalization with overlap
     c_bands:  1 eigenvalues not converged
     ethr =  7.70E-07,  avg # of iterations = 20.0

     total cpu time spent up to now is       15.5 secs

     total energy              =    -501.91390697 Ry
     estimated scf accuracy    <       0.01367656 Ry

     iteration # 73     ecut=    30.00 Ry     beta= 0.50
     Davidson diagonalization with overlap
     c_bands:  1 eigenvalues not converged
     ethr =  7.70E-07,  avg # of iterations = 20.0

     total cpu time spent up to now is       15.7 secs

     total energy              =    -501.91514608 Ry
     estimated scf accuracy    <       0.00847769 Ry

     iteration # 74     ecut=    30.00 Ry     beta= 0.50
     Davidson diagonalization with overlap
     ethr =  7.70E-07,  avg # of iterations = 12.0

     total cpu time spent up to now is       15.9 secs

     total energy              =    -501.91532006 Ry
     estimated scf accuracy    <       0.01097460 Ry

     iteration # 75     ecut=    30.00 Ry     beta= 0.50
     Davidson diagonalization with overlap
     ethr =  7.70E-07,  avg # of iterations =  1.0

     total cpu time spent up to now is       16.0 secs

     total energy              =    -501.91537836 Ry
     estimated scf accuracy    <       0.01160595 Ry

     iteration # 76     ecut=    30.00 Ry     beta= 0.50
     Davidson diagonalization with overlap
     ethr =  7.70E-07,  avg # of iterations =  1.0

     total cpu time spent up to now is       16.0 secs

     total energy              =    -501.91538713 Ry
     estimated scf accuracy    <       0.01214559 Ry

     iteration # 77     ecut=    30.00 Ry     beta= 0.50
     Davidson diagonalization with overlap
     ethr =  7.70E-07,  avg # of iterations =  1.0

     total cpu time spent up to now is       16.1 secs

     total energy              =    -501.91533589 Ry
     estimated scf accuracy    <       0.01247812 Ry

     iteration # 78     ecut=    30.00 Ry     beta= 0.50
     Davidson diagonalization with overlap
     ethr =  7.70E-07,  avg # of iterations =  1.0

     total cpu time spent up to now is       16.2 secs

     total energy              =    -501.91156749 Ry
     estimated scf accuracy    <       0.01257668 Ry

     iteration # 79     ecut=    30.00 Ry     beta= 0.50
     Davidson diagonalization with overlap
     c_bands:  1 eigenvalues not converged
     ethr =  7.70E-07,  avg # of iterations = 20.0

     total cpu time spent up to now is       16.4 secs

     total energy              =    -501.91951469 Ry
     estimated scf accuracy    <       0.06215686 Ry

     iteration # 80     ecut=    30.00 Ry     beta= 0.50
     Davidson diagonalization with overlap
     ethr =  7.70E-07,  avg # of iterations = 15.0

     total cpu time spent up to now is       16.6 secs

     total energy              =    -501.91772180 Ry
     estimated scf accuracy    <       0.05202811 Ry

     iteration # 81     ecut=    30.00 Ry     beta= 0.50
     Davidson diagonalization with overlap
     ethr =  7.70E-07,  avg # of iterations =  3.0

     total cpu time spent up to now is       16.7 secs

     total energy              =    -501.91625205 Ry
     estimated scf accuracy    <       0.04016561 Ry

     iteration # 82     ecut=    30.00 Ry     beta= 0.50
     Davidson diagonalization with overlap
     ethr =  7.70E-07,  avg # of iterations =  6.0

     total cpu time spent up to now is       16.8 secs

     total energy              =    -501.91502819 Ry
     estimated scf accuracy    <       0.02836469 Ry

     iteration # 83     ecut=    30.00 Ry     beta= 0.50
     Davidson diagonalization with overlap
     c_bands:  1 eigenvalues not converged
     ethr =  7.70E-07,  avg # of iterations = 20.0

     total cpu time spent up to now is       17.0 secs

     total energy              =    -501.91506712 Ry
     estimated scf accuracy    <       0.01062313 Ry

     iteration # 84     ecut=    30.00 Ry     beta= 0.50
     Davidson diagonalization with overlap
     ethr =  7.70E-07,  avg # of iterations = 13.0

     total cpu time spent up to now is       17.2 secs

     total energy              =    -501.91510616 Ry
     estimated scf accuracy    <       0.00774692 Ry

     iteration # 85     ecut=    30.00 Ry     beta= 0.50
     Davidson diagonalization with overlap
     ethr =  7.70E-07,  avg # of iterations =  1.0

     total cpu time spent up to now is       17.3 secs

     total energy              =    -501.91505978 Ry
     estimated scf accuracy    <       0.00719064 Ry

     iteration # 86     ecut=    30.00 Ry     beta= 0.50
     Davidson diagonalization with overlap
     ethr =  7.70E-07,  avg # of iterations =  1.0

     total cpu time spent up to now is       17.4 secs

     total energy              =    -501.91507672 Ry
     estimated scf accuracy    <       0.00666323 Ry

     iteration # 87     ecut=    30.00 Ry     beta= 0.50
     Davidson diagonalization with overlap
     ethr =  7.70E-07,  avg # of iterations =  1.0

     total cpu time spent up to now is       17.5 secs

     total energy              =    -501.91454243 Ry
     estimated scf accuracy    <       0.00651251 Ry

     iteration # 88     ecut=    30.00 Ry     beta= 0.50
     Davidson diagonalization with overlap
     c_bands:  1 eigenvalues not converged
     ethr =  7.70E-07,  avg # of iterations = 20.0

     total cpu time spent up to now is       17.7 secs

     total energy              =    -501.91633093 Ry
     estimated scf accuracy    <       0.04919009 Ry

     iteration # 89     ecut=    30.00 Ry     beta= 0.50
     Davidson diagonalization with overlap
     c_bands:  1 eigenvalues not converged
     ethr =  7.70E-07,  avg # of iterations = 20.0

     total cpu time spent up to now is       17.9 secs

     total energy              =    -501.91603197 Ry
     estimated scf accuracy    <       0.04727865 Ry

     iteration # 90     ecut=    30.00 Ry     beta= 0.50
     Davidson diagonalization with overlap
     ethr =  7.70E-07,  avg # of iterations =  2.0

     total cpu time spent up to now is       18.0 secs

     total energy              =    -501.91633583 Ry
     estimated scf accuracy    <       0.04480271 Ry

     iteration # 91     ecut=    30.00 Ry     beta= 0.50
     Davidson diagonalization with overlap
     ethr =  7.70E-07,  avg # of iterations =  1.0

     total cpu time spent up to now is       18.0 secs

     total energy              =    -501.91659949 Ry
     estimated scf accuracy    <       0.04575844 Ry

     iteration # 92     ecut=    30.00 Ry     beta= 0.50
     Davidson diagonalization with overlap
     c_bands:  1 eigenvalues not converged
     ethr =  7.70E-07,  avg # of iterations = 20.0

     total cpu time spent up to now is       18.2 secs

     total energy              =    -501.91621319 Ry
     estimated scf accuracy    <       0.04697757 Ry

     iteration # 93     ecut=    30.00 Ry     beta= 0.50
     Davidson diagonalization with overlap
     ethr =  7.70E-07,  avg # of iterations =  8.0

     total cpu time spent up to now is       18.4 secs

     total energy              =    -501.91585174 Ry
     estimated scf accuracy    <       0.04298176 Ry

     iteration # 94     ecut=    30.00 Ry     beta= 0.50
     Davidson diagonalization with overlap
     ethr =  7.70E-07,  avg # of iterations =  1.0

     total cpu time spent up to now is       18.4 secs

     total energy              =    -501.91557658 Ry
     estimated scf accuracy    <       0.04068815 Ry

     iteration # 95     ecut=    30.00 Ry     beta= 0.50
     Davidson diagonalization with overlap
     ethr =  7.70E-07,  avg # of iterations =  1.0

     total cpu time spent up to now is       18.5 secs

     total energy              =    -501.91519288 Ry
     estimated scf accuracy    <       0.03882462 Ry

     iteration # 96     ecut=    30.00 Ry     beta= 0.50
     Davidson diagonalization with overlap
     ethr =  7.70E-07,  avg # of iterations =  2.0

     total cpu time spent up to now is       18.6 secs

     total energy              =    -501.90317574 Ry
     estimated scf accuracy    <       0.03631775 Ry

     iteration # 97     ecut=    30.00 Ry     beta= 0.50
     Davidson diagonalization with overlap
     c_bands:  1 eigenvalues not converged
     ethr =  7.70E-07,  avg # of iterations = 20.0

     total cpu time spent up to now is       18.9 secs

     total energy              =    -501.92498610 Ry
     estimated scf accuracy    <       0.15804498 Ry

     iteration # 98     ecut=    30.00 Ry     beta= 0.50
     Davidson diagonalization with overlap
     ethr =  7.70E-07,  avg # of iterations = 11.0

     total cpu time spent up to now is       19.0 secs

     total energy              =    -501.91729498 Ry
     estimated scf accuracy    <       0.10158641 Ry

     iteration # 99     ecut=    30.00 Ry     beta= 0.50
     Davidson diagonalization with overlap
     ethr =  7.70E-07,  avg # of iterations =  9.0

     total cpu time spent up to now is       19.2 secs

     total energy              =    -501.91705393 Ry
     estimated scf accuracy    <       0.04363174 Ry

     iteration #100     ecut=    30.00 Ry     beta= 0.50
     Davidson diagonalization with overlap
     ethr =  7.70E-07,  avg # of iterations =  2.0

     total cpu time spent up to now is       19.3 secs

     total energy              =    -501.91506647 Ry
     estimated scf accuracy    <       0.03443706 Ry

     iteration #101     ecut=    30.00 Ry     beta= 0.50
     Davidson diagonalization with overlap
     c_bands:  1 eigenvalues not converged
     ethr =  7.70E-07,  avg # of iterations = 20.0

     total cpu time spent up to now is       19.5 secs

     total energy              =    -501.91618376 Ry
     estimated scf accuracy    <       0.01245340 Ry

     iteration #102     ecut=    30.00 Ry     beta= 0.50
     Davidson diagonalization with overlap
     ethr =  7.70E-07,  avg # of iterations = 12.0

     total cpu time spent up to now is       19.6 secs

     total energy              =    -501.91635962 Ry
     estimated scf accuracy    <       0.01161100 Ry

     iteration #103     ecut=    30.00 Ry     beta= 0.50
     Davidson diagonalization with overlap
     ethr =  7.70E-07,  avg # of iterations = 19.0

     total cpu time spent up to now is       19.8 secs

     total energy              =    -501.91661910 Ry
     estimated scf accuracy    <       0.01982741 Ry

     iteration #104     ecut=    30.00 Ry     beta= 0.50
     Davidson diagonalization with overlap
     ethr =  7.70E-07,  avg # of iterations =  2.0

     total cpu time spent up to now is       19.9 secs

     total energy              =    -501.91608640 Ry
     estimated scf accuracy    <       0.02075251 Ry

     iteration #105     ecut=    30.00 Ry     beta= 0.50
     Davidson diagonalization with overlap
     ethr =  7.70E-07,  avg # of iterations =  1.0

     total cpu time spent up to now is       20.0 secs

     total energy              =    -501.91075769 Ry
     estimated scf accuracy    <       0.01907952 Ry

     iteration #106     ecut=    30.00 Ry     beta= 0.50
     Davidson diagonalization with overlap
     c_bands:  1 eigenvalues not converged
     ethr =  7.70E-07,  avg # of iterations = 20.0

     total cpu time spent up to now is       20.2 secs

     total energy              =    -501.91678463 Ry
     estimated scf accuracy    <       0.08173337 Ry

     iteration #107     ecut=    30.00 Ry     beta= 0.50
     Davidson diagonalization with overlap
     ethr =  7.70E-07,  avg # of iterations = 18.0

     total cpu time spent up to now is       20.4 secs

     total energy              =    -501.91446273 Ry
     estimated scf accuracy    <       0.05441659 Ry

     iteration #108     ecut=    30.00 Ry     beta= 0.50
     Davidson diagonalization with overlap
     c_bands:  1 eigenvalues not converged
     ethr =  7.70E-07,  avg # of iterations = 20.0

     total cpu time spent up to now is       20.6 secs

     total energy              =    -501.91510985 Ry
     estimated scf accuracy    <       0.00825018 Ry

     iteration #109     ecut=    30.00 Ry     beta= 0.50
     Davidson diagonalization with overlap
     ethr =  7.70E-07,  avg # of iterations = 18.0

     total cpu time spent up to now is       20.8 secs

     total energy              =    -501.91521194 Ry
     estimated scf accuracy    <       0.00637967 Ry

     iteration #110     ecut=    30.00 Ry     beta= 0.50
     Davidson diagonalization with overlap
     ethr =  7.70E-07,  avg # of iterations =  1.0

     total cpu time spent up to now is       20.9 secs

     total energy              =    -501.91513672 Ry
     estimated scf accuracy    <       0.00591127 Ry

     iteration #111     ecut=    30.00 Ry     beta= 0.50
     Davidson diagonalization with overlap
     ethr =  7.70E-07,  avg # of iterations =  1.0

     total cpu time spent up to now is       21.0 secs

     total energy              =    -501.91508016 Ry
     estimated scf accuracy    <       0.00519837 Ry

     iteration #112     ecut=    30.00 Ry     beta= 0.50
     Davidson diagonalization with overlap
     ethr =  7.70E-07,  avg # of iterations =  1.0

     total cpu time spent up to now is       21.0 secs

     total energy              =    -501.91491385 Ry
     estimated scf accuracy    <       0.00473629 Ry

     iteration #113     ecut=    30.00 Ry     beta= 0.50
     Davidson diagonalization with overlap
     c_bands:  1 eigenvalues not converged
     ethr =  7.70E-07,  avg # of iterations = 20.0

     total cpu time spent up to now is       21.2 secs

     total energy              =    -501.91541604 Ry
     estimated scf accuracy    <       0.00821702 Ry

     iteration #114     ecut=    30.00 Ry     beta= 0.50
     Davidson diagonalization with overlap
     ethr =  7.70E-07,  avg # of iterations = 15.0

     total cpu time spent up to now is       21.4 secs

     total energy              =    -501.91553664 Ry
     estimated scf accuracy    <       0.00860342 Ry

     iteration #115     ecut=    30.00 Ry     beta= 0.50
     Davidson diagonalization with overlap
     ethr =  7.70E-07,  avg # of iterations =  1.0

     total cpu time spent up to now is       21.5 secs

     total energy              =    -501.91538979 Ry
     estimated scf accuracy    <       0.00881634 Ry

     iteration #116     ecut=    30.00 Ry     beta= 0.50
     Davidson diagonalization with overlap
     ethr =  7.70E-07,  avg # of iterations =  1.0

     total cpu time spent up to now is       21.6 secs

     total energy              =    -501.91548163 Ry
     estimated scf accuracy    <       0.00835279 Ry

     iteration #117     ecut=    30.00 Ry     beta= 0.50
     Davidson diagonalization with overlap
     ethr =  7.70E-07,  avg # of iterations =  2.0

     total cpu time spent up to now is       21.7 secs

     total energy              =    -501.91556405 Ry
     estimated scf accuracy    <       0.00873136 Ry

     iteration #118     ecut=    30.00 Ry     beta= 0.50
     Davidson diagonalization with overlap
     ethr =  7.70E-07,  avg # of iterations =  1.0

     total cpu time spent up to now is       21.8 secs

     total energy              =    -501.91528225 Ry
     estimated scf accuracy    <       0.00895366 Ry

     iteration #119     ecut=    30.00 Ry     beta= 0.50
     Davidson diagonalization with overlap
     ethr =  7.70E-07,  avg # of iterations =  1.0

     total cpu time spent up to now is       21.9 secs

     total energy              =    -501.91518250 Ry
     estimated scf accuracy    <       0.00794435 Ry

     iteration #120     ecut=    30.00 Ry     beta= 0.50
     Davidson diagonalization with overlap
     ethr =  7.70E-07,  avg # of iterations =  1.0

     total cpu time spent up to now is       22.0 secs

     total energy              =    -501.91505720 Ry
     estimated scf accuracy    <       0.00737187 Ry

     iteration #121     ecut=    30.00 Ry     beta= 0.50
     Davidson diagonalization with overlap
     ethr =  7.70E-07,  avg # of iterations =  1.0

     total cpu time spent up to now is       22.0 secs

     total energy              =    -501.91271964 Ry
     estimated scf accuracy    <       0.00666466 Ry

     iteration #122     ecut=    30.00 Ry     beta= 0.50
     Davidson diagonalization with overlap
     c_bands:  1 eigenvalues not converged
     ethr =  7.70E-07,  avg # of iterations = 20.0

     total cpu time spent up to now is       22.3 secs

     total energy              =    -501.91615401 Ry
     estimated scf accuracy    <       0.09880162 Ry

     iteration #123     ecut=    30.00 Ry     beta= 0.50
     Davidson diagonalization with overlap
     ethr =  7.70E-07,  avg # of iterations = 19.0

     total cpu time spent up to now is       22.5 secs

     total energy              =    -501.91535015 Ry
     estimated scf accuracy    <       0.05359482 Ry

     iteration #124     ecut=    30.00 Ry     beta= 0.50
     Davidson diagonalization with overlap
     c_bands:  1 eigenvalues not converged
     ethr =  7.70E-07,  avg # of iterations = 20.0

     total cpu time spent up to now is       22.7 secs

     total energy              =    -501.91516383 Ry
     estimated scf accuracy    <       0.02510184 Ry

     iteration #125     ecut=    30.00 Ry     beta= 0.50
     Davidson diagonalization with overlap
     ethr =  7.70E-07,  avg # of iterations =  2.0

     total cpu time spent up to now is       22.8 secs

     total energy              =    -501.91380312 Ry
     estimated scf accuracy    <       0.02192696 Ry

     iteration #126     ecut=    30.00 Ry     beta= 0.50
     Davidson diagonalization with overlap
     c_bands:  1 eigenvalues not converged
     ethr =  7.70E-07,  avg # of iterations = 20.0

     total cpu time spent up to now is       23.0 secs

     total energy              =    -501.91607915 Ry
     estimated scf accuracy    <       0.01859194 Ry

     iteration #127     ecut=    30.00 Ry     beta= 0.50
     Davidson diagonalization with overlap
     ethr =  7.70E-07,  avg # of iterations = 19.0

     total cpu time spent up to now is       23.1 secs

     total energy              =    -501.91561191 Ry
     estimated scf accuracy    <       0.02168621 Ry

     iteration #128     ecut=    30.00 Ry     beta= 0.50
     Davidson diagonalization with overlap
     ethr =  7.70E-07,  avg # of iterations =  2.0

     total cpu time spent up to now is       23.2 secs

     total energy              =    -501.91511052 Ry
     estimated scf accuracy    <       0.01944546 Ry

     iteration #129     ecut=    30.00 Ry     beta= 0.50
     Davidson diagonalization with overlap
     ethr =  7.70E-07,  avg # of iterations =  2.0

     total cpu time spent up to now is       23.3 secs

     total energy              =    -501.91499692 Ry
     estimated scf accuracy    <       0.01675698 Ry

     iteration #130     ecut=    30.00 Ry     beta= 0.50
     Davidson diagonalization with overlap
     ethr =  7.70E-07,  avg # of iterations =  1.0

     total cpu time spent up to now is       23.4 secs

     total energy              =    -501.91472429 Ry
     estimated scf accuracy    <       0.01584807 Ry

     iteration #131     ecut=    30.00 Ry     beta= 0.50
     Davidson diagonalization with overlap
     ethr =  7.70E-07,  avg # of iterations =  2.0

     total cpu time spent up to now is       23.5 secs

     total energy              =    -501.91455678 Ry
     estimated scf accuracy    <       0.01416228 Ry

     iteration #132     ecut=    30.00 Ry     beta= 0.50
     Davidson diagonalization with overlap
     ethr =  7.70E-07,  avg # of iterations =  2.0

     total cpu time spent up to now is       23.6 secs

     total energy              =    -501.91387952 Ry
     estimated scf accuracy    <       0.01312777 Ry

     iteration #133     ecut=    30.00 Ry     beta= 0.50
     Davidson diagonalization with overlap
     c_bands:  1 eigenvalues not converged
     ethr =  7.70E-07,  avg # of iterations = 20.0

     total cpu time spent up to now is       23.8 secs

     total energy              =    -501.91612611 Ry
     estimated scf accuracy    <       0.02329753 Ry

     iteration #134     ecut=    30.00 Ry     beta= 0.50
     Davidson diagonalization with overlap
     ethr =  7.70E-07,  avg # of iterations = 17.0

     total cpu time spent up to now is       24.0 secs

     total energy              =    -501.91638766 Ry
     estimated scf accuracy    <       0.02599952 Ry

     iteration #135     ecut=    30.00 Ry     beta= 0.50
     Davidson diagonalization with overlap
     ethr =  7.70E-07,  avg # of iterations =  1.0

     total cpu time spent up to now is       24.1 secs

     total energy              =    -501.91645440 Ry
     estimated scf accuracy    <       0.02689782 Ry

     iteration #136     ecut=    30.00 Ry     beta= 0.50
     Davidson diagonalization with overlap
     ethr =  7.70E-07,  avg # of iterations =  1.0

     total cpu time spent up to now is       24.1 secs

     total energy              =    -501.91646046 Ry
     estimated scf accuracy    <       0.02751687 Ry

     iteration #137     ecut=    30.00 Ry     beta= 0.50
     Davidson diagonalization with overlap
     ethr =  7.70E-07,  avg # of iterations =  1.0

     total cpu time spent up to now is       24.2 secs

     total energy              =    -501.91624328 Ry
     estimated scf accuracy    <       0.02776569 Ry

     iteration #138     ecut=    30.00 Ry     beta= 0.50
     Davidson diagonalization with overlap
     ethr =  7.70E-07,  avg # of iterations =  1.0

     total cpu time spent up to now is       24.3 secs

     total energy              =    -501.91615975 Ry
     estimated scf accuracy    <       0.02695249 Ry

     iteration #139     ecut=    30.00 Ry     beta= 0.50
     Davidson diagonalization with overlap
     ethr =  7.70E-07,  avg # of iterations =  1.0

     total cpu time spent up to now is       24.4 secs

     total energy              =    -501.91620031 Ry
     estimated scf accuracy    <       0.02645248 Ry

     iteration #140     ecut=    30.00 Ry     beta= 0.50
     Davidson diagonalization with overlap
     ethr =  7.70E-07,  avg # of iterations =  1.0

     total cpu time spent up to now is       24.5 secs

     total energy              =    -501.91518279 Ry
     estimated scf accuracy    <       0.02644652 Ry

     iteration #141     ecut=    30.00 Ry     beta= 0.50
     Davidson diagonalization with overlap
     c_bands:  1 eigenvalues not converged
     ethr =  7.70E-07,  avg # of iterations = 20.0

     total cpu time spent up to now is       24.7 secs

     total energy              =    -501.91411991 Ry
     estimated scf accuracy    <       0.00402685 Ry

     iteration #142     ecut=    30.00 Ry     beta= 0.50
     Davidson diagonalization with overlap
     c_bands:  1 eigenvalues not converged
     ethr =  7.70E-07,  avg # of iterations = 20.0

     total cpu time spent up to now is       24.9 secs

     total energy              =    -501.91622634 Ry
     estimated scf accuracy    <       0.04351576 Ry

     iteration #143     ecut=    30.00 Ry     beta= 0.50
     Davidson diagonalization with overlap
     c_bands:  1 eigenvalues not converged
     ethr =  7.70E-07,  avg # of iterations = 20.0

     total cpu time spent up to now is       25.1 secs

     total energy              =    -501.91514507 Ry
     estimated scf accuracy    <       0.02838063 Ry

     iteration #144     ecut=    30.00 Ry     beta= 0.50
     Davidson diagonalization with overlap
     ethr =  7.70E-07,  avg # of iterations =  5.0

     total cpu time spent up to now is       25.2 secs

     total energy              =    -501.91465250 Ry
     estimated scf accuracy    <       0.01916112 Ry

     iteration #145     ecut=    30.00 Ry     beta= 0.50
     Davidson diagonalization with overlap
     ethr =  7.70E-07,  avg # of iterations =  2.0

     total cpu time spent up to now is       25.3 secs

     total energy              =    -501.91410258 Ry
     estimated scf accuracy    <       0.01462238 Ry

     iteration #146     ecut=    30.00 Ry     beta= 0.50
     Davidson diagonalization with overlap
     c_bands:  1 eigenvalues not converged
     ethr =  7.70E-07,  avg # of iterations = 20.0

     total cpu time spent up to now is       25.5 secs

     total energy              =    -501.91554907 Ry
     estimated scf accuracy    <       0.02102971 Ry

     iteration #147     ecut=    30.00 Ry     beta= 0.50
     Davidson diagonalization with overlap
     ethr =  7.70E-07,  avg # of iterations =  8.0

     total cpu time spent up to now is       25.6 secs

     total energy              =    -501.91549159 Ry
     estimated scf accuracy    <       0.02007434 Ry

     iteration #148     ecut=    30.00 Ry     beta= 0.50
     Davidson diagonalization with overlap
     ethr =  7.70E-07,  avg # of iterations =  1.0

     total cpu time spent up to now is       25.7 secs

     total energy              =    -501.91524147 Ry
     estimated scf accuracy    <       0.01977533 Ry

     iteration #149     ecut=    30.00 Ry     beta= 0.50
     Davidson diagonalization with overlap
     ethr =  7.70E-07,  avg # of iterations =  1.0

     total cpu time spent up to now is       25.8 secs

     total energy              =    -501.91465769 Ry
     estimated scf accuracy    <       0.01863613 Ry

     iteration #150     ecut=    30.00 Ry     beta= 0.50
     Davidson diagonalization with overlap
     c_bands:  1 eigenvalues not converged
     ethr =  7.70E-07,  avg # of iterations = 20.0

     total cpu time spent up to now is       26.0 secs

     total energy              =    -501.91543690 Ry
     estimated scf accuracy    <       0.00458835 Ry

     iteration #151     ecut=    30.00 Ry     beta= 0.50
     Davidson diagonalization with overlap
     ethr =  7.70E-07,  avg # of iterations = 13.0

     total cpu time spent up to now is       26.2 secs

     total energy              =    -501.91535939 Ry
     estimated scf accuracy    <       0.00483651 Ry

     iteration #152     ecut=    30.00 Ry     beta= 0.50
     Davidson diagonalization with overlap
     ethr =  7.70E-07,  avg # of iterations =  1.0

     total cpu time spent up to now is       26.3 secs

     total energy              =    -501.91527403 Ry
     estimated scf accuracy    <       0.00440670 Ry

     iteration #153     ecut=    30.00 Ry     beta= 0.50
     Davidson diagonalization with overlap
     ethr =  7.70E-07,  avg # of iterations =  1.0

     total cpu time spent up to now is       26.3 secs

     total energy              =    -501.91534646 Ry
     estimated scf accuracy    <       0.00389538 Ry

     iteration #154     ecut=    30.00 Ry     beta= 0.50
     Davidson diagonalization with overlap
     ethr =  7.70E-07,  avg # of iterations =  1.0

     total cpu time spent up to now is       26.4 secs

     total energy              =    -501.91832231 Ry
     estimated scf accuracy    <       0.00400784 Ry

     iteration #155     ecut=    30.00 Ry     beta= 0.50
     Davidson diagonalization with overlap
     c_bands:  1 eigenvalues not converged
     ethr =  7.70E-07,  avg # of iterations = 20.0

     total cpu time spent up to now is       26.6 secs

     total energy              =    -501.91886382 Ry
     estimated scf accuracy    <       0.08471393 Ry

     iteration #156     ecut=    30.00 Ry     beta= 0.50
     Davidson diagonalization with overlap
     ethr =  7.70E-07,  avg # of iterations =  9.0

     total cpu time spent up to now is       26.8 secs

     total energy              =    -501.91619690 Ry
     estimated scf accuracy    <       0.05286940 Ry

     iteration #157     ecut=    30.00 Ry     beta= 0.50
     Davidson diagonalization with overlap
     ethr =  7.70E-07,  avg # of iterations = 17.0

     total cpu time spent up to now is       27.0 secs

     total energy              =    -501.91506126 Ry
     estimated scf accuracy    <       0.02936371 Ry

     iteration #158     ecut=    30.00 Ry     beta= 0.50
     Davidson diagonalization with overlap
     ethr =  7.70E-07,  avg # of iterations =  3.0

     total cpu time spent up to now is       27.1 secs

     total energy              =    -501.90664163 Ry
     estimated scf accuracy    <       0.01910836 Ry

     iteration #159     ecut=    30.00 Ry     beta= 0.50
     Davidson diagonalization with overlap
     c_bands:  1 eigenvalues not converged
     ethr =  7.70E-07,  avg # of iterations = 20.0

     total cpu time spent up to now is       27.3 secs

     total energy              =    -501.91307008 Ry
     estimated scf accuracy    <       0.22505138 Ry

     iteration #160     ecut=    30.00 Ry     beta= 0.50
     Davidson diagonalization with overlap
     ethr =  7.70E-07,  avg # of iterations = 18.0

     total cpu time spent up to now is       27.5 secs

     total energy              =    -501.91494812 Ry
     estimated scf accuracy    <       0.06078412 Ry

     iteration #161     ecut=    30.00 Ry     beta= 0.50
     Davidson diagonalization with overlap
     c_bands:  1 eigenvalues not converged
     ethr =  7.70E-07,  avg # of iterations = 20.0

     total cpu time spent up to now is       27.8 secs

     total energy              =    -501.91527092 Ry
     estimated scf accuracy    <       0.02511094 Ry

     iteration #162     ecut=    30.00 Ry     beta= 0.50
     Davidson diagonalization with overlap
     ethr =  7.70E-07,  avg # of iterations = 18.0

     total cpu time spent up to now is       27.9 secs

     total energy              =    -501.91506696 Ry
     estimated scf accuracy    <       0.02087425 Ry

     iteration #163     ecut=    30.00 Ry     beta= 0.50
     Davidson diagonalization with overlap
     ethr =  7.70E-07,  avg # of iterations =  2.0

     total cpu time spent up to now is       28.0 secs

     total energy              =    -501.91466820 Ry
     estimated scf accuracy    <       0.01900825 Ry

     iteration #164     ecut=    30.00 Ry     beta= 0.50
     Davidson diagonalization with overlap
     c_bands:  1 eigenvalues not converged
     ethr =  7.70E-07,  avg # of iterations = 20.0

     total cpu time spent up to now is       28.2 secs

     total energy              =    -501.91521846 Ry
     estimated scf accuracy    <       0.00150360 Ry

     iteration #165     ecut=    30.00 Ry     beta= 0.50
     Davidson diagonalization with overlap
     ethr =  5.87E-07,  avg # of iterations = 17.0

     total cpu time spent up to now is       28.4 secs

     total energy              =    -501.91539748 Ry
     estimated scf accuracy    <       0.00159380 Ry

     iteration #166     ecut=    30.00 Ry     beta= 0.50
     Davidson diagonalization with overlap
     ethr =  5.87E-07,  avg # of iterations =  1.0

     total cpu time spent up to now is       28.5 secs

     total energy              =    -501.91537633 Ry
     estimated scf accuracy    <       0.00165191 Ry

     iteration #167     ecut=    30.00 Ry     beta= 0.50
     Davidson diagonalization with overlap
     ethr =  5.87E-07,  avg # of iterations =  1.0

     total cpu time spent up to now is       28.6 secs

     total energy              =    -501.91578595 Ry
     estimated scf accuracy    <       0.00158472 Ry

     iteration #168     ecut=    30.00 Ry     beta= 0.50
     Davidson diagonalization with overlap
     c_bands:  1 eigenvalues not converged
     ethr =  5.87E-07,  avg # of iterations = 20.0

     total cpu time spent up to now is       28.8 secs

     total energy              =    -501.91570719 Ry
     estimated scf accuracy    <       0.03488525 Ry

     iteration #169     ecut=    30.00 Ry     beta= 0.50
     Davidson diagonalization with overlap
     c_bands:  1 eigenvalues not converged
     ethr =  5.87E-07,  avg # of iterations = 20.0

     total cpu time spent up to now is       29.0 secs

     total energy              =    -501.91599365 Ry
     estimated scf accuracy    <       0.02183216 Ry

     iteration #170     ecut=    30.00 Ry     beta= 0.50
     Davidson diagonalization with overlap
     ethr =  5.87E-07,  avg # of iterations =  2.0

     total cpu time spent up to now is       29.1 secs

     total energy              =    -501.91557250 Ry
     estimated scf accuracy    <       0.02103176 Ry

     iteration #171     ecut=    30.00 Ry     beta= 0.50
     Davidson diagonalization with overlap
     ethr =  5.87E-07,  avg # of iterations =  2.0

     total cpu time spent up to now is       29.2 secs

     total energy              =    -501.91511031 Ry
     estimated scf accuracy    <       0.01880346 Ry

     iteration #172     ecut=    30.00 Ry     beta= 0.50
     Davidson diagonalization with overlap
     c_bands:  1 eigenvalues not converged
     ethr =  5.87E-07,  avg # of iterations = 20.0

     total cpu time spent up to now is       29.4 secs

     total energy              =    -501.91440718 Ry
     estimated scf accuracy    <       0.00845394 Ry

     iteration #173     ecut=    30.00 Ry     beta= 0.50
     Davidson diagonalization with overlap
     c_bands:  1 eigenvalues not converged
     ethr =  5.87E-07,  avg # of iterations = 20.0

     total cpu time spent up to now is       29.6 secs

     total energy              =    -501.91529666 Ry
     estimated scf accuracy    <       0.03419570 Ry

     iteration #174     ecut=    30.00 Ry     beta= 0.50
     Davidson diagonalization with overlap
     c_bands:  1 eigenvalues not converged
     ethr =  5.87E-07,  avg # of iterations = 20.0

     total cpu time spent up to now is       29.8 secs

     total energy              =    -501.91504919 Ry
     estimated scf accuracy    <       0.02549756 Ry

     iteration #175     ecut=    30.00 Ry     beta= 0.50
     Davidson diagonalization with overlap
     c_bands:  1 eigenvalues not converged
     ethr =  5.87E-07,  avg # of iterations = 20.0

     total cpu time spent up to now is       29.9 secs

     total energy              =    -501.91523972 Ry
     estimated scf accuracy    <       0.00727186 Ry

     iteration #176     ecut=    30.00 Ry     beta= 0.50
     Davidson diagonalization with overlap
     ethr =  5.87E-07,  avg # of iterations = 17.0

     total cpu time spent up to now is       30.1 secs

     total energy              =    -501.91522163 Ry
     estimated scf accuracy    <       0.00552498 Ry

     iteration #177     ecut=    30.00 Ry     beta= 0.50
     Davidson diagonalization with overlap
     ethr =  5.87E-07,  avg # of iterations =  1.0

     total cpu time spent up to now is       30.2 secs

     total energy              =    -501.91509416 Ry
     estimated scf accuracy    <       0.00483215 Ry

     iteration #178     ecut=    30.00 Ry     beta= 0.50
     Davidson diagonalization with overlap
     c_bands:  1 eigenvalues not converged
     ethr =  5.87E-07,  avg # of iterations = 20.0

     total cpu time spent up to now is       30.4 secs

     total energy              =    -501.91547673 Ry
     estimated scf accuracy    <       0.00564719 Ry

     iteration #179     ecut=    30.00 Ry     beta= 0.50
     Davidson diagonalization with overlap
     ethr =  5.87E-07,  avg # of iterations =  2.0

     total cpu time spent up to now is       30.5 secs

     total energy              =    -501.91546828 Ry
     estimated scf accuracy    <       0.00578357 Ry

     iteration #180     ecut=    30.00 Ry     beta= 0.50
     Davidson diagonalization with overlap
     ethr =  5.87E-07,  avg # of iterations =  1.0

     total cpu time spent up to now is       30.6 secs

     total energy              =    -501.91500990 Ry
     estimated scf accuracy    <       0.00588504 Ry

     iteration #181     ecut=    30.00 Ry     beta= 0.50
     Davidson diagonalization with overlap
     c_bands:  1 eigenvalues not converged
     ethr =  5.87E-07,  avg # of iterations = 20.0

     total cpu time spent up to now is       30.7 secs

     total energy              =    -501.91563911 Ry
     estimated scf accuracy    <       0.00856355 Ry

     iteration #182     ecut=    30.00 Ry     beta= 0.50
     Davidson diagonalization with overlap
     ethr =  5.87E-07,  avg # of iterations = 17.0

     total cpu time spent up to now is       30.9 secs

     total energy              =    -501.91563518 Ry
     estimated scf accuracy    <       0.01057751 Ry

     iteration #183     ecut=    30.00 Ry     beta= 0.50
     Davidson diagonalization with overlap
     ethr =  5.87E-07,  avg # of iterations =  1.0

     total cpu time spent up to now is       31.0 secs

     total energy              =    -501.91449143 Ry
     estimated scf accuracy    <       0.01048474 Ry

     iteration #184     ecut=    30.00 Ry     beta= 0.50
     Davidson diagonalization with overlap
     c_bands:  1 eigenvalues not converged
     ethr =  5.87E-07,  avg # of iterations = 20.0

     total cpu time spent up to now is       31.2 secs

     total energy              =    -501.91502707 Ry
     estimated scf accuracy    <       0.02098159 Ry

     iteration #185     ecut=    30.00 Ry     beta= 0.50
     Davidson diagonalization with overlap
     c_bands:  1 eigenvalues not converged
     ethr =  5.87E-07,  avg # of iterations = 20.0

     total cpu time spent up to now is       31.4 secs

     total energy              =    -501.91436310 Ry
     estimated scf accuracy    <       0.01556580 Ry

     iteration #186     ecut=    30.00 Ry     beta= 0.50
     Davidson diagonalization with overlap
     c_bands:  1 eigenvalues not converged
     ethr =  5.87E-07,  avg # of iterations = 20.0

     total cpu time spent up to now is       31.6 secs

     total energy              =    -501.91509281 Ry
     estimated scf accuracy    <       0.00162025 Ry

     iteration #187     ecut=    30.00 Ry     beta= 0.50
     Davidson diagonalization with overlap
     c_bands:  1 eigenvalues not converged
     ethr =  5.87E-07,  avg # of iterations = 20.0

     total cpu time spent up to now is       31.8 secs

     total energy              =    -501.91545125 Ry
     estimated scf accuracy    <       0.00231232 Ry

     iteration #188     ecut=    30.00 Ry     beta= 0.50
     Davidson diagonalization with overlap
     ethr =  5.87E-07,  avg # of iterations =  2.0

     total cpu time spent up to now is       31.9 secs

     total energy              =    -501.91539498 Ry
     estimated scf accuracy    <       0.00234707 Ry

     iteration #189     ecut=    30.00 Ry     beta= 0.50
     Davidson diagonalization with overlap
     ethr =  5.87E-07,  avg # of iterations =  1.0

     total cpu time spent up to now is       32.0 secs

     total energy              =    -501.91539910 Ry
     estimated scf accuracy    <       0.00202682 Ry

     iteration #190     ecut=    30.00 Ry     beta= 0.50
     Davidson diagonalization with overlap
     ethr =  5.87E-07,  avg # of iterations =  1.0

     total cpu time spent up to now is       32.1 secs

     total energy              =    -501.91539115 Ry
     estimated scf accuracy    <       0.00197309 Ry

     iteration #191     ecut=    30.00 Ry     beta= 0.50
     Davidson diagonalization with overlap
     ethr =  5.87E-07,  avg # of iterations =  1.0

     total cpu time spent up to now is       32.2 secs

     total energy              =    -501.91534863 Ry
     estimated scf accuracy    <       0.00188965 Ry

     iteration #192     ecut=    30.00 Ry     beta= 0.50
     Davidson diagonalization with overlap
     ethr =  5.87E-07,  avg # of iterations =  1.0

     total cpu time spent up to now is       32.3 secs

     total energy              =    -501.91518732 Ry
     estimated scf accuracy    <       0.00169737 Ry

     iteration #193     ecut=    30.00 Ry     beta= 0.50
     Davidson diagonalization with overlap
     c_bands:  1 eigenvalues not converged
     ethr =  5.87E-07,  avg # of iterations = 20.0

     total cpu time spent up to now is       32.5 secs

     total energy              =    -501.91487775 Ry
     estimated scf accuracy    <       0.02638583 Ry

     iteration #194     ecut=    30.00 Ry     beta= 0.50
     Davidson diagonalization with overlap
     c_bands:  1 eigenvalues not converged
     ethr =  5.87E-07,  avg # of iterations = 20.0

     total cpu time spent up to now is       32.6 secs

     total energy              =    -501.91346440 Ry
     estimated scf accuracy    <       0.02257190 Ry

     iteration #195     ecut=    30.00 Ry     beta= 0.50
     Davidson diagonalization with overlap
     c_bands:  1 eigenvalues not converged
     ethr =  5.87E-07,  avg # of iterations = 20.0

     total cpu time spent up to now is       32.8 secs

     total energy              =    -501.91383644 Ry
     estimated scf accuracy    <       0.02345755 Ry

     iteration #196     ecut=    30.00 Ry     beta= 0.50
     Davidson diagonalization with overlap
     c_bands:  1 eigenvalues not converged
     ethr =  5.87E-07,  avg # of iterations = 20.0

     total cpu time spent up to now is       33.0 secs

     total energy              =    -501.91519463 Ry
     estimated scf accuracy    <       0.01850324 Ry

     iteration #197     ecut=    30.00 Ry     beta= 0.50
     Davidson diagonalization with overlap
     c_bands:  1 eigenvalues not converged
     ethr =  5.87E-07,  avg # of iterations = 20.0

     total cpu time spent up to now is       33.2 secs

     total energy              =    -501.91509463 Ry
     estimated scf accuracy    <       0.01361897 Ry

     iteration #198     ecut=    30.00 Ry     beta= 0.50
     Davidson diagonalization with overlap
     c_bands:  1 eigenvalues not converged
     ethr =  5.87E-07,  avg # of iterations = 20.0

     total cpu time spent up to now is       33.4 secs

     total energy              =    -501.91516224 Ry
     estimated scf accuracy    <       0.00973238 Ry

     iteration #199     ecut=    30.00 Ry     beta= 0.50
     Davidson diagonalization with overlap
     ethr =  5.87E-07,  avg # of iterations = 18.0

     total cpu time spent up to now is       33.6 secs

     total energy              =    -501.91519537 Ry
     estimated scf accuracy    <       0.00800395 Ry

     iteration #200     ecut=    30.00 Ry     beta= 0.50
     Davidson diagonalization with overlap
     ethr =  5.87E-07,  avg # of iterations =  1.0

     total cpu time spent up to now is       33.7 secs

     total energy              =    -501.91516099 Ry
     estimated scf accuracy    <       0.00780030 Ry

     iteration #201     ecut=    30.00 Ry     beta= 0.50
     Davidson diagonalization with overlap
     ethr =  5.87E-07,  avg # of iterations =  1.0

     total cpu time spent up to now is       33.8 secs

     total energy              =    -501.91512471 Ry
     estimated scf accuracy    <       0.00752006 Ry

     iteration #202     ecut=    30.00 Ry     beta= 0.50
     Davidson diagonalization with overlap
     ethr =  5.87E-07,  avg # of iterations =  1.0

     total cpu time spent up to now is       33.8 secs

     total energy              =    -501.91512340 Ry
     estimated scf accuracy    <       0.00728962 Ry

     iteration #203     ecut=    30.00 Ry     beta= 0.50
     Davidson diagonalization with overlap
     ethr =  5.87E-07,  avg # of iterations =  1.0

     total cpu time spent up to now is       33.9 secs

     total energy              =    -501.91357106 Ry
     estimated scf accuracy    <       0.00720236 Ry

     iteration #204     ecut=    30.00 Ry     beta= 0.50
     Davidson diagonalization with overlap
     c_bands:  1 eigenvalues not converged
     ethr =  5.87E-07,  avg # of iterations = 20.0

     total cpu time spent up to now is       34.1 secs

     total energy              =    -501.91640415 Ry
     estimated scf accuracy    <       0.07094732 Ry

     iteration #205     ecut=    30.00 Ry     beta= 0.50
     Davidson diagonalization with overlap
     ethr =  5.87E-07,  avg # of iterations = 10.0

     total cpu time spent up to now is       34.3 secs

     total energy              =    -501.91510660 Ry
     estimated scf accuracy    <       0.05347473 Ry

     iteration #206     ecut=    30.00 Ry     beta= 0.50
     Davidson diagonalization with overlap
     c_bands:  1 eigenvalues not converged
     ethr =  5.87E-07,  avg # of iterations = 20.0

     total cpu time spent up to now is       34.5 secs

     total energy              =    -501.91555271 Ry
     estimated scf accuracy    <       0.03360425 Ry

     iteration #207     ecut=    30.00 Ry     beta= 0.50
     Davidson diagonalization with overlap
     ethr =  5.87E-07,  avg # of iterations = 16.0

     total cpu time spent up to now is       34.6 secs

     total energy              =    -501.91506452 Ry
     estimated scf accuracy    <       0.03374179 Ry

     iteration #208     ecut=    30.00 Ry     beta= 0.50
     Davidson diagonalization with overlap
     ethr =  5.87E-07,  avg # of iterations =  1.0

     total cpu time spent up to now is       34.7 secs

     total energy              =    -501.91494209 Ry
     estimated scf accuracy    <       0.03074746 Ry

     iteration #209     ecut=    30.00 Ry     beta= 0.50
     Davidson diagonalization with overlap
     ethr =  5.87E-07,  avg # of iterations =  1.0

     total cpu time spent up to now is       34.8 secs

     total energy              =    -501.91481189 Ry
     estimated scf accuracy    <       0.02969627 Ry

     iteration #210     ecut=    30.00 Ry     beta= 0.50
     Davidson diagonalization with overlap
     ethr =  5.87E-07,  avg # of iterations =  1.0

     total cpu time spent up to now is       34.9 secs

     total energy              =    -501.91474113 Ry
     estimated scf accuracy    <       0.02849828 Ry

     iteration #211     ecut=    30.00 Ry     beta= 0.50
     Davidson diagonalization with overlap
     ethr =  5.87E-07,  avg # of iterations =  1.0

     total cpu time spent up to now is       35.0 secs

     total energy              =    -501.91477465 Ry
     estimated scf accuracy    <       0.02770963 Ry

     iteration #212     ecut=    30.00 Ry     beta= 0.50
     Davidson diagonalization with overlap
     ethr =  5.87E-07,  avg # of iterations =  1.0

     total cpu time spent up to now is       35.1 secs

     total energy              =    -501.90836306 Ry
     estimated scf accuracy    <       0.02735685 Ry

     iteration #213     ecut=    30.00 Ry     beta= 0.50
     Davidson diagonalization with overlap
[...]

     iteration #308     ecut=    30.00 Ry     beta= 0.50
     Davidson diagonalization with overlap
     c_bands:  1 eigenvalues not converged
     ethr =  5.38E-07,  avg # of iterations = 20.0

     total cpu time spent up to now is       49.2 secs

     total energy              =    -501.91653612 Ry
     estimated scf accuracy    <       0.01913950 Ry

     iteration #309     ecut=    30.00 Ry     beta= 0.50
     Davidson diagonalization with overlap
     c_bands:  1 eigenvalues not converged
     ethr =  5.38E-07,  avg # of iterations = 20.0

     total cpu time spent up to now is       49.4 secs

     total energy              =    -501.91643432 Ry
     estimated scf accuracy    <       0.02620499 Ry

     iteration #310     ecut=    30.00 Ry     beta= 0.50
     Davidson diagonalization with overlap
     ethr =  5.38E-07,  avg # of iterations = 14.0

     total cpu time spent up to now is       49.6 secs

     total energy              =    -501.91644640 Ry
     estimated scf accuracy    <       0.02590395 Ry

     iteration #311     ecut=    30.00 Ry     beta= 0.50
     Davidson diagonalization with overlap
     ethr =  5.38E-07,  avg # of iterations =  1.0

     total cpu time spent up to now is       49.7 secs

     total energy              =    -501.91261571 Ry
     estimated scf accuracy    <       0.02585089 Ry

     iteration #312     ecut=    30.00 Ry     beta= 0.50
     Davidson diagonalization with overlap
     c_bands:  1 eigenvalues not converged
     ethr =  5.38E-07,  avg # of iterations = 20.0

     total cpu time spent up to now is       49.9 secs

     total energy              =    -501.91640043 Ry
     estimated scf accuracy    <       0.11285381 Ry

     iteration #313     ecut=    30.00 Ry     beta= 0.50
     Davidson diagonalization with overlap
     ethr =  5.38E-07,  avg # of iterations = 17.0

     total cpu time spent up to now is       50.1 secs

     total energy              =    -501.91532707 Ry
     estimated scf accuracy    <       0.05845378 Ry

     iteration #314     ecut=    30.00 Ry     beta= 0.50
     Davidson diagonalization with overlap
     c_bands:  1 eigenvalues not converged
     ethr =  5.38E-07,  avg # of iterations = 20.0

     total cpu time spent up to now is       50.3 secs

     total energy              =    -501.91475642 Ry
     estimated scf accuracy    <       0.03244920 Ry

     iteration #315     ecut=    30.00 Ry     beta= 0.50
     Davidson diagonalization with overlap
     c_bands:  1 eigenvalues not converged
     ethr =  5.38E-07,  avg # of iterations = 20.0

     total cpu time spent up to now is       50.5 secs

     total energy              =    -501.91470818 Ry
     estimated scf accuracy    <       0.01340135 Ry

     iteration #316     ecut=    30.00 Ry     beta= 0.50
     Davidson diagonalization with overlap
     c_bands:  1 eigenvalues not converged
     ethr =  5.38E-07,  avg # of iterations = 20.0

     total cpu time spent up to now is       50.7 secs

     total energy              =    -501.91498082 Ry
     estimated scf accuracy    <       0.00389077 Ry

     iteration #317     ecut=    30.00 Ry     beta= 0.50
     Davidson diagonalization with overlap
     c_bands:  1 eigenvalues not converged
     ethr =  5.38E-07,  avg # of iterations = 20.0

     total cpu time spent up to now is       50.8 secs

     total energy              =    -501.91524490 Ry
     estimated scf accuracy    <       0.00135194 Ry

     iteration #318     ecut=    30.00 Ry     beta= 0.50
     Davidson diagonalization with overlap
     c_bands:  1 eigenvalues not converged
     ethr =  5.28E-07,  avg # of iterations = 20.0

     total cpu time spent up to now is       51.0 secs

     total energy              =    -501.91527140 Ry
     estimated scf accuracy    <       0.00195242 Ry

     iteration #319     ecut=    30.00 Ry     beta= 0.50
     Davidson diagonalization with overlap
     ethr =  5.28E-07,  avg # of iterations =  2.0

     total cpu time spent up to now is       51.1 secs

     total energy              =    -501.91526056 Ry
     estimated scf accuracy    <       0.00154810 Ry

     iteration #320     ecut=    30.00 Ry     beta= 0.50
     Davidson diagonalization with overlap
     ethr =  5.28E-07,  avg # of iterations =  1.0

     total cpu time spent up to now is       51.2 secs

     total energy              =    -501.91506749 Ry
     estimated scf accuracy    <       0.00143362 Ry

     iteration #321     ecut=    30.00 Ry     beta= 0.50
     Davidson diagonalization with overlap
     c_bands:  1 eigenvalues not converged
     ethr =  5.28E-07,  avg # of iterations = 20.0

     total cpu time spent up to now is       51.4 secs

     total energy              =    -501.91532863 Ry
     estimated scf accuracy    <       0.00528782 Ry

     iteration #322     ecut=    30.00 Ry     beta= 0.50
     Davidson diagonalization with overlap
     c_bands:  1 eigenvalues not converged
     ethr =  5.28E-07,  avg # of iterations = 20.0

     total cpu time spent up to now is       51.6 secs

     total energy              =    -501.91549770 Ry
     estimated scf accuracy    <       0.00737309 Ry

     iteration #323     ecut=    30.00 Ry     beta= 0.50
     Davidson diagonalization with overlap
     ethr =  5.28E-07,  avg # of iterations =  2.0

     total cpu time spent up to now is       51.7 secs

     total energy              =    -501.91604732 Ry
     estimated scf accuracy    <       0.00764388 Ry

     iteration #324     ecut=    30.00 Ry     beta= 0.50
     Davidson diagonalization with overlap
     c_bands:  1 eigenvalues not converged
     ethr =  5.28E-07,  avg # of iterations = 20.0

     total cpu time spent up to now is       51.9 secs

     total energy              =    -501.91579470 Ry
     estimated scf accuracy    <       0.05469253 Ry

     iteration #325     ecut=    30.00 Ry     beta= 0.50
     Davidson diagonalization with overlap
     ethr =  5.28E-07,  avg # of iterations = 16.0

     total cpu time spent up to now is       52.0 secs

     total energy              =    -501.91530614 Ry
     estimated scf accuracy    <       0.04706145 Ry

     iteration #326     ecut=    30.00 Ry     beta= 0.50
     Davidson diagonalization with overlap
     ethr =  5.28E-07,  avg # of iterations =  2.0

     total cpu time spent up to now is       52.1 secs

     total energy              =    -501.91524329 Ry
     estimated scf accuracy    <       0.04340841 Ry

     iteration #327     ecut=    30.00 Ry     beta= 0.50
     Davidson diagonalization with overlap
     ethr =  5.28E-07,  avg # of iterations =  1.0

     total cpu time spent up to now is       52.2 secs

     total energy              =    -501.91394436 Ry
     estimated scf accuracy    <       0.04230093 Ry

     iteration #328     ecut=    30.00 Ry     beta= 0.50
     Davidson diagonalization with overlap
     c_bands:  1 eigenvalues not converged
     ethr =  5.28E-07,  avg # of iterations = 20.0

     total cpu time spent up to now is       52.4 secs

     total energy              =    -501.91456036 Ry
     estimated scf accuracy    <       0.00181157 Ry

     iteration #329     ecut=    30.00 Ry     beta= 0.50
     Davidson diagonalization with overlap
     c_bands:  1 eigenvalues not converged
     ethr =  5.28E-07,  avg # of iterations = 20.0

     total cpu time spent up to now is       52.6 secs

     total energy              =    -501.91510496 Ry
     estimated scf accuracy    <       0.00124594 Ry

     iteration #330     ecut=    30.00 Ry     beta= 0.50
     Davidson diagonalization with overlap
     c_bands:  1 eigenvalues not converged
     ethr =  4.87E-07,  avg # of iterations = 20.0

     total cpu time spent up to now is       52.8 secs

     total energy              =    -501.91555111 Ry
     estimated scf accuracy    <       0.02501406 Ry

     iteration #331     ecut=    30.00 Ry     beta= 0.50
     Davidson diagonalization with overlap
     ethr =  4.87E-07,  avg # of iterations = 12.0

     total cpu time spent up to now is       53.0 secs

     total energy              =    -501.91519301 Ry
     estimated scf accuracy    <       0.01875106 Ry

     iteration #332     ecut=    30.00 Ry     beta= 0.50
     Davidson diagonalization with overlap
     ethr =  4.87E-07,  avg # of iterations =  2.0

     total cpu time spent up to now is       53.0 secs

     total energy              =    -501.91522317 Ry
     estimated scf accuracy    <       0.01546273 Ry

     iteration #333     ecut=    30.00 Ry     beta= 0.50
     Davidson diagonalization with overlap
     ethr =  4.87E-07,  avg # of iterations =  1.0

     total cpu time spent up to now is       53.1 secs

     total energy              =    -501.91526843 Ry
     estimated scf accuracy    <       0.01511703 Ry

     iteration #334     ecut=    30.00 Ry     beta= 0.50
     Davidson diagonalization with overlap
     ethr =  4.87E-07,  avg # of iterations =  1.0

     total cpu time spent up to now is       53.2 secs

     total energy              =    -501.91534611 Ry
     estimated scf accuracy    <       0.01480064 Ry

     iteration #335     ecut=    30.00 Ry     beta= 0.50
     Davidson diagonalization with overlap
     ethr =  4.87E-07,  avg # of iterations =  1.0

     total cpu time spent up to now is       53.3 secs

     total energy              =    -501.91524343 Ry
     estimated scf accuracy    <       0.01472321 Ry

     iteration #336     ecut=    30.00 Ry     beta= 0.50
     Davidson diagonalization with overlap
     ethr =  4.87E-07,  avg # of iterations =  1.0

     total cpu time spent up to now is       53.4 secs

     total energy              =    -501.91362649 Ry
     estimated scf accuracy    <       0.01414639 Ry

     iteration #337     ecut=    30.00 Ry     beta= 0.50
     Davidson diagonalization with overlap
     c_bands:  1 eigenvalues not converged
     ethr =  4.87E-07,  avg # of iterations = 20.0

     total cpu time spent up to now is       53.6 secs

     total energy              =    -501.91445408 Ry
     estimated scf accuracy    <       0.05595378 Ry

     iteration #338     ecut=    30.00 Ry     beta= 0.50
     Davidson diagonalization with overlap
     c_bands:  1 eigenvalues not converged
     ethr =  4.87E-07,  avg # of iterations = 20.0

     total cpu time spent up to now is       53.8 secs

     total energy              =    -501.91444574 Ry
     estimated scf accuracy    <       0.03690467 Ry

     iteration #339     ecut=    30.00 Ry     beta= 0.50
     Davidson diagonalization with overlap
     c_bands:  1 eigenvalues not converged
     ethr =  4.87E-07,  avg # of iterations = 20.0

     total cpu time spent up to now is       54.1 secs

     total energy              =    -501.91503149 Ry
     estimated scf accuracy    <       0.00379160 Ry

     iteration #340     ecut=    30.00 Ry     beta= 0.50
     Davidson diagonalization with overlap
     c_bands:  1 eigenvalues not converged
     ethr =  4.87E-07,  avg # of iterations = 20.0

     total cpu time spent up to now is       54.3 secs

     total energy              =    -501.91528956 Ry
     estimated scf accuracy    <       0.00277687 Ry

     iteration #341     ecut=    30.00 Ry     beta= 0.50
     Davidson diagonalization with overlap
     ethr =  4.87E-07,  avg # of iterations = 13.0

     total cpu time spent up to now is       54.4 secs

     total energy              =    -501.91531664 Ry
     estimated scf accuracy    <       0.00209598 Ry

     iteration #342     ecut=    30.00 Ry     beta= 0.50
     Davidson diagonalization with overlap
     ethr =  4.87E-07,  avg # of iterations =  1.0

     total cpu time spent up to now is       54.5 secs

     total energy              =    -501.91526677 Ry
     estimated scf accuracy    <       0.00188010 Ry

     iteration #343     ecut=    30.00 Ry     beta= 0.50
     Davidson diagonalization with overlap
     ethr =  4.87E-07,  avg # of iterations =  1.0

     total cpu time spent up to now is       54.6 secs

     total energy              =    -501.91524107 Ry
     estimated scf accuracy    <       0.00157286 Ry

     iteration #344     ecut=    30.00 Ry     beta= 0.50
     Davidson diagonalization with overlap
     ethr =  4.87E-07,  avg # of iterations =  1.0

     total cpu time spent up to now is       54.7 secs

     total energy              =    -501.91522010 Ry
     estimated scf accuracy    <       0.00140679 Ry

     iteration #345     ecut=    30.00 Ry     beta= 0.50
     Davidson diagonalization with overlap
     ethr =  4.87E-07,  avg # of iterations =  1.0

     total cpu time spent up to now is       54.8 secs

     total energy              =    -501.91497915 Ry
     estimated scf accuracy    <       0.00125881 Ry

     iteration #346     ecut=    30.00 Ry     beta= 0.50
     Davidson diagonalization with overlap
     c_bands:  1 eigenvalues not converged
     ethr =  4.87E-07,  avg # of iterations = 20.0

     total cpu time spent up to now is       55.0 secs

     total energy              =    -501.91570122 Ry
     estimated scf accuracy    <       0.03898093 Ry

     iteration #347     ecut=    30.00 Ry     beta= 0.50
     Davidson diagonalization with overlap
     ethr =  4.87E-07,  avg # of iterations = 18.0

     total cpu time spent up to now is       55.1 secs

     total energy              =    -501.91599119 Ry
     estimated scf accuracy    <       0.03936279 Ry

     iteration #348     ecut=    30.00 Ry     beta= 0.50
     Davidson diagonalization with overlap
     ethr =  4.87E-07,  avg # of iterations =  1.0

     total cpu time spent up to now is       55.2 secs

     total energy              =    -501.91602655 Ry
     estimated scf accuracy    <       0.03964319 Ry

     iteration #349     ecut=    30.00 Ry     beta= 0.50
     Davidson diagonalization with overlap
     ethr =  4.87E-07,  avg # of iterations =  1.0

     total cpu time spent up to now is       55.3 secs

     total energy              =    -501.91595782 Ry
     estimated scf accuracy    <       0.04030079 Ry

     iteration #350     ecut=    30.00 Ry     beta= 0.50
     Davidson diagonalization with overlap
     ethr =  4.87E-07,  avg # of iterations =  2.0

     total cpu time spent up to now is       55.4 secs

     total energy              =    -501.91641110 Ry
     estimated scf accuracy    <       0.04018814 Ry

     iteration #351     ecut=    30.00 Ry     beta= 0.50
     Davidson diagonalization with overlap
     ethr =  4.87E-07,  avg # of iterations =  2.0

     total cpu time spent up to now is       55.5 secs

     total energy              =    -501.91664334 Ry
     estimated scf accuracy    <       0.04237281 Ry

     iteration #352     ecut=    30.00 Ry     beta= 0.50
     Davidson diagonalization with overlap
     ethr =  4.87E-07,  avg # of iterations =  2.0

     total cpu time spent up to now is       55.6 secs

     total energy              =    -501.91685893 Ry
     estimated scf accuracy    <       0.04364390 Ry

     iteration #353     ecut=    30.00 Ry     beta= 0.50
     Davidson diagonalization with overlap
     ethr =  4.87E-07,  avg # of iterations =  2.0

     total cpu time spent up to now is       55.7 secs

     total energy              =    -501.91442725 Ry
     estimated scf accuracy    <       0.04495979 Ry

     iteration #354     ecut=    30.00 Ry     beta= 0.50
     Davidson diagonalization with overlap
     ethr =  4.87E-07,  avg # of iterations =  6.0

     total cpu time spent up to now is       55.8 secs

     total energy              =    -501.90378490 Ry
     estimated scf accuracy    <       0.03336819 Ry

     iteration #355     ecut=    30.00 Ry     beta= 0.50
     Davidson diagonalization with overlap
     c_bands:  1 eigenvalues not converged
     ethr =  4.87E-07,  avg # of iterations = 20.0

     total cpu time spent up to now is       56.1 secs

     total energy              =    -501.90997642 Ry
     estimated scf accuracy    <       0.16612959 Ry

     iteration #356     ecut=    30.00 Ry     beta= 0.50
     Davidson diagonalization with overlap
     ethr =  4.87E-07,  avg # of iterations = 18.0

     total cpu time spent up to now is       56.3 secs

     total energy              =    -501.91618733 Ry
     estimated scf accuracy    <       0.04043801 Ry

     iteration #357     ecut=    30.00 Ry     beta= 0.50
     Davidson diagonalization with overlap
     ethr =  4.87E-07,  avg # of iterations = 17.0

     total cpu time spent up to now is       56.5 secs

     total energy              =    -501.91621320 Ry
     estimated scf accuracy    <       0.02660276 Ry

     iteration #358     ecut=    30.00 Ry     beta= 0.50
     Davidson diagonalization with overlap
     ethr =  4.87E-07,  avg # of iterations = 10.0

     total cpu time spent up to now is       56.7 secs

     total energy              =    -501.91545224 Ry
     estimated scf accuracy    <       0.01960587 Ry

     iteration #359     ecut=    30.00 Ry     beta= 0.50
     Davidson diagonalization with overlap
     c_bands:  1 eigenvalues not converged
     ethr =  4.87E-07,  avg # of iterations = 20.0

     total cpu time spent up to now is       56.9 secs

     total energy              =    -501.91551698 Ry
     estimated scf accuracy    <       0.00904112 Ry

     iteration #360     ecut=    30.00 Ry     beta= 0.50
     Davidson diagonalization with overlap
     ethr =  4.87E-07,  avg # of iterations =  2.0

     total cpu time spent up to now is       56.9 secs

     total energy              =    -501.91527530 Ry
     estimated scf accuracy    <       0.00813930 Ry

     iteration #361     ecut=    30.00 Ry     beta= 0.50
     Davidson diagonalization with overlap
     ethr =  4.87E-07,  avg # of iterations =  1.0

     total cpu time spent up to now is       57.0 secs

     total energy              =    -501.91491159 Ry
     estimated scf accuracy    <       0.00696110 Ry

     iteration #362     ecut=    30.00 Ry     beta= 0.50
     Davidson diagonalization with overlap
     c_bands:  1 eigenvalues not converged
     ethr =  4.87E-07,  avg # of iterations = 20.0

     total cpu time spent up to now is       57.2 secs

     total energy              =    -501.91489477 Ry
     estimated scf accuracy    <       0.00555755 Ry

     iteration #363     ecut=    30.00 Ry     beta= 0.50
     Davidson diagonalization with overlap
     c_bands:  1 eigenvalues not converged
     ethr =  4.87E-07,  avg # of iterations = 20.0

     total cpu time spent up to now is       57.4 secs

     total energy              =    -501.91546728 Ry
     estimated scf accuracy    <       0.00331534 Ry

     iteration #364     ecut=    30.00 Ry     beta= 0.50
     Davidson diagonalization with overlap
     c_bands:  1 eigenvalues not converged
     ethr =  4.87E-07,  avg # of iterations = 20.0

     total cpu time spent up to now is       57.6 secs

     total energy              =    -501.91477602 Ry
     estimated scf accuracy    <       0.04973680 Ry

     iteration #365     ecut=    30.00 Ry     beta= 0.50
     Davidson diagonalization with overlap
     ethr =  4.87E-07,  avg # of iterations = 10.0

     total cpu time spent up to now is       57.7 secs

     total energy              =    -501.91456264 Ry
     estimated scf accuracy    <       0.04041738 Ry

     iteration #366     ecut=    30.00 Ry     beta= 0.50
     Davidson diagonalization with overlap
     ethr =  4.87E-07,  avg # of iterations =  1.0

     total cpu time spent up to now is       57.8 secs

     total energy              =    -501.91411068 Ry
     estimated scf accuracy    <       0.03853926 Ry

     iteration #367     ecut=    30.00 Ry     beta= 0.50
     Davidson diagonalization with overlap
     ethr =  4.87E-07,  avg # of iterations =  1.0

     total cpu time spent up to now is       57.9 secs

     total energy              =    -501.91389330 Ry
     estimated scf accuracy    <       0.03620409 Ry

     iteration #368     ecut=    30.00 Ry     beta= 0.50
