An instance of this daemon is already running

     Program PWSCF v.7.1 starts on  8May2023 at 15:38: 9 

     This program is part of the open-source Quantum ESPRESSO suite
     for quantum simulation of materials; please cite
         "P. Giannozzi et al., J. Phys.:Condens. Matter 21 395502 (2009);
         "P. Giannozzi et al., J. Phys.:Condens. Matter 29 465901 (2017);
         "P. Giannozzi et al., J. Chem. Phys. 152 154105 (2020);
          URL http://www.quantum-espresso.org", 
     in publications or presentations arising from this work. More details at
     http://www.quantum-espresso.org/quote

     Parallel version (MPI & OpenMP), running on       4 processor cores
     Number of MPI processes:                 4
     Threads/MPI process:                     1

     MPI processes distributed on     1 nodes
     618412 MiB available memory on the printing compute node when the environment starts
 
     Reading input from pw-si-46.in
Warning: card &CELL ignored
Warning: card / ignored

     Current dimensions of program PWSCF are:
     Max number of different atomic species (ntypx) = 10
     Max number of k-points (npk) =  40000
     Max angular momentum in pseudopotentials (lmaxx) =  4

     IMPORTANT: XC functional enforced from input :
     Exchange-correlation= PBE
                           (   1   4   3   4   0   0   0)
     Any further DFT definition will be discarded
     Please, verify this is what you really want


     gamma-point specific algorithms are used
 
     K-points division:     npool     =       2
     R & G space division:  proc/nbgrp/npool/nimage =       2
     Subspace diagonalization in iterative solution of the eigenvalue problem:
     a serial algorithm will be used

     Message from routine divide_et_impera:
     suboptimal parallelization: some nodes have no k-points
 
     Parallelization info
     --------------------
     sticks:   dense  smooth     PW     G-vecs:    dense   smooth      PW
     Min        2113    2113    561                98057    98057   13330
     Max        2114    2114    562                98058    98058   13331
     Sum        4227    4227   1123               196115   196115   26661
 
     Using Slab Decomposition
 


     bravais-lattice index     =            0
     lattice parameter (alat)  =      20.9195  a.u.
     unit-cell volume          =    8831.2257 (a.u.)^3
     number of atoms/cell      =           64
     number of atomic types    =            1
     number of electrons       =       256.00
     number of Kohn-Sham states=          128
     kinetic-energy cutoff     =      30.0000  Ry
     charge density cutoff     =     120.0000  Ry
     scf convergence threshold =      1.0E-06
     mixing beta               =       0.5000
     number of iterations used =            8  plain     mixing
     Exchange-correlation= PBE
                           (   1   4   3   4   0   0   0)

     GPU acceleration is ACTIVE.
     GPU-aware MPI enabled

     Message from routine print_cuda_info:
     High GPU oversubscription detected. Are you sure this is what you want?

     celldm(1)=  20.919464  celldm(2)=   0.000000  celldm(3)=   0.000000
     celldm(4)=   0.000000  celldm(5)=   0.000000  celldm(6)=   0.000000

     crystal axes: (cart. coord. in units of alat)
               a(1) = (   1.000000   0.000000   0.000000 )  
               a(2) = (   0.000000   1.014762   0.000000 )  
               a(3) = (   0.000000   0.000000   0.950616 )  

     reciprocal axes: (cart. coord. in units 2 pi/alat)
               b(1) = (  1.000000  0.000000  0.000000 )  
               b(2) = (  0.000000  0.985453  0.000000 )  
               b(3) = (  0.000000  0.000000  1.051949 )  


     PseudoPot. # 1 for Si read from file:
     /home/ppiaggi/pseudos/Si_ONCV_PBE_sr.upf
     MD5 check sum: 8553c464762ac42b85b1eed164b4d029
     Pseudo is Norm-conserving, Zval =  4.0
     Generated using ONCVPSP code by D. R. Hamann
     Using radial grid of 1510 points,  4 beta functions with: 
                l(1) =   0
                l(2) =   0
                l(3) =   1
                l(4) =   1

     atomic species   valence    mass     pseudopotential
        Si             4.00    28.08500     Si( 1.00)

     No symmetry found



   Cartesian axes

     site n.     atom                  positions (alat units)
         1           Si  tau(   1) = (  -0.0015777   0.0063040  -0.0105716  )
         2           Si  tau(   2) = (  -0.0001785   0.2353804   0.2606911  )
         3           Si  tau(   3) = (   0.2543294  -0.0081867   0.2363650  )
         4           Si  tau(   4) = (   0.2367586   0.2276516  -0.0034304  )
         5           Si  tau(   5) = (   0.1339909   0.1351707   0.1304318  )
         6           Si  tau(   6) = (   0.4901274  -0.0018930   0.0010933  )
         7           Si  tau(   7) = (   0.4938104   0.2516247   0.2504143  )
         8           Si  tau(   8) = (   0.6298991   0.1357638   0.1347096  )
         9           Si  tau(   9) = (   0.7611980  -0.0088445   0.2591535  )
        10           Si  tau(  10) = (   0.7674850   0.2273587   0.0035731  )
        11           Si  tau(  11) = (   0.0145064   0.4981321  -0.0115594  )
        12           Si  tau(  12) = (   0.2496237   0.4910117   0.2426275  )
        13           Si  tau(  13) = (   0.1329944   0.6008152   0.1197635  )
        14           Si  tau(  14) = (   0.3705825   0.3535800   0.1090883  )
        15           Si  tau(  15) = (   0.5246928   0.4787031  -0.0007924  )
        16           Si  tau(  16) = (   0.6462483   0.6103735   0.1383393  )
        17           Si  tau(  17) = (   0.9019877   0.3775172   0.1295412  )
        18           Si  tau(  18) = (   0.7545572   0.4973579   0.2535094  )
        19           Si  tau(  19) = (  -0.0050610   0.7492761   0.2355817  )
        20           Si  tau(  20) = (   0.2382735   0.7451596  -0.0173776  )
        21           Si  tau(  21) = (   0.3970209   0.8652005   0.1290328  )
        22           Si  tau(  22) = (   0.5175950   0.7463431   0.2471516  )
        23           Si  tau(  23) = (   0.7648353   0.7274520  -0.0071026  )
        24           Si  tau(  24) = (   0.8919457   0.8481824   0.1099732  )
        25           Si  tau(  25) = (   0.0073745  -0.0106913   0.4818662  )
        26           Si  tau(  26) = (   0.2531717   0.2486834   0.4951841  )
        27           Si  tau(  27) = (   0.1312138   0.1370645   0.6242061  )
        28           Si  tau(  28) = (   0.3720999   0.1367807   0.3618689  )
        29           Si  tau(  29) = (   0.5109124  -0.0114374   0.4806810  )
        30           Si  tau(  30) = (   0.6364234   0.1396071   0.6309432  )
        31           Si  tau(  31) = (   0.8796777   0.1369232   0.3688123  )
        32           Si  tau(  32) = (   0.7422157   0.2374286   0.4779642  )
        33           Si  tau(  33) = (   0.1425813   0.3824704   0.3502630  )
        34           Si  tau(  34) = (   0.0060588   0.5029862   0.4882913  )
        35           Si  tau(  35) = (   0.1417487   0.6195954   0.6257354  )
        36           Si  tau(  36) = (   0.6254771   0.3579864   0.3681368  )
        37           Si  tau(  37) = (   0.3677548   0.6111968   0.3711504  )
        38           Si  tau(  38) = (   0.3967426   0.3635023   0.6016395  )
        39           Si  tau(  39) = (   0.5178637   0.4959451   0.4849702  )
        40           Si  tau(  40) = (   0.6387245   0.5988909   0.5986901  )
        41           Si  tau(  41) = (   0.8798584   0.5923725   0.3536583  )
        42           Si  tau(  42) = (   0.8728634   0.3744788   0.6133036  )
        43           Si  tau(  43) = (   0.1370882   0.8448262   0.3793111  )
        44           Si  tau(  44) = (   0.2385595   0.7313027   0.5040946  )
        45           Si  tau(  45) = (   0.6480676   0.8706519   0.3734938  )
        46           Si  tau(  46) = (   0.3719325   0.8422785   0.6127556  )
        47           Si  tau(  47) = (   0.7461859   0.7458835   0.4843832  )
        48           Si  tau(  48) = (   0.8809528   0.8392306   0.6302521  )
        49           Si  tau(  49) = (   0.0167429   0.2508606   0.7309165  )
        50           Si  tau(  50) = (   0.2691591   0.0072914   0.7414172  )
        51           Si  tau(  51) = (   0.3649066   0.1191431   0.8720820  )
        52           Si  tau(  52) = (   0.5155920   0.2415547   0.7455805  )
        53           Si  tau(  53) = (   0.7674238   0.0135471   0.7372591  )
        54           Si  tau(  54) = (   0.8949363   0.1155998   0.8567209  )
        55           Si  tau(  55) = (   0.1212109   0.3633214   0.8446815  )
        56           Si  tau(  56) = (   0.2349830   0.4868868   0.7305695  )
        57           Si  tau(  57) = (   0.6155292   0.3759362   0.8765141  )
        58           Si  tau(  58) = (   0.3821129   0.5995010   0.8438725  )
        59           Si  tau(  59) = (   0.7435706   0.4829580   0.7370964  )
        60           Si  tau(  60) = (   0.9000627   0.6107168   0.8755211  )
        61           Si  tau(  61) = (  -0.0039873   0.7441930   0.7404570  )
        62           Si  tau(  62) = (   0.1092912   0.8641816   0.8549825  )
        63           Si  tau(  63) = (   0.5247337   0.7437360   0.7376497  )
        64           Si  tau(  64) = (   0.6471631   0.8430586   0.8607445  )

     number of k points=     1
                       cart. coord. in units 2pi/alat
        k(    1) = (   0.0000000   0.0000000   0.0000000), wk =   2.0000000

     Dense  grid:    98058 G-vectors     FFT dimensions: (  75,  75,  72)

     Estimated max dynamical RAM per process >     144.23 MB

     Estimated total dynamical RAM >     552.96 MB

     Initial potential from superposition of free atoms

     starting charge     255.9608, renormalised to     256.0000
     Starting wfcs are  256 randomized atomic wfcs

     total cpu time spent up to now is        5.0 secs

     Self-consistent Calculation

     iteration #  1     ecut=    30.00 Ry     beta= 0.50
     Davidson diagonalization with overlap
     ethr =  1.00E-02,  avg # of iterations =  3.0

     Threshold (ethr) on eigenvalues was too large:
     Diagonalizing with lowered threshold

     Davidson diagonalization with overlap
     ethr =  7.43E-04,  avg # of iterations =  5.0

     total cpu time spent up to now is        5.3 secs

     total energy              =    -501.60974673 Ry
     estimated scf accuracy    <       2.21845107 Ry

     iteration #  2     ecut=    30.00 Ry     beta= 0.50
     Davidson diagonalization with overlap
     ethr =  8.67E-04,  avg # of iterations = 15.0

     total cpu time spent up to now is        5.5 secs

     total energy              =    -501.51472805 Ry
     estimated scf accuracy    <       1.08234915 Ry

     iteration #  3     ecut=    30.00 Ry     beta= 0.50
     Davidson diagonalization with overlap
     c_bands:  1 eigenvalues not converged
     ethr =  4.23E-04,  avg # of iterations = 20.0

     total cpu time spent up to now is        5.7 secs

     total energy              =    -501.52477806 Ry
     estimated scf accuracy    <       2.14109228 Ry

     iteration #  4     ecut=    30.00 Ry     beta= 0.50
     Davidson diagonalization with overlap
     ethr =  4.23E-04,  avg # of iterations = 13.0

     total cpu time spent up to now is        5.8 secs

     total energy              =    -501.77699437 Ry
     estimated scf accuracy    <       0.27750721 Ry

     iteration #  5     ecut=    30.00 Ry     beta= 0.50
     Davidson diagonalization with overlap
     ethr =  1.08E-04,  avg # of iterations =  6.0

     total cpu time spent up to now is        5.9 secs

     total energy              =    -501.81348491 Ry
     estimated scf accuracy    <       0.07269959 Ry

     iteration #  6     ecut=    30.00 Ry     beta= 0.50
     Davidson diagonalization with overlap
     ethr =  2.84E-05,  avg # of iterations =  7.0

     total cpu time spent up to now is        6.1 secs

     total energy              =    -501.81854674 Ry
     estimated scf accuracy    <       0.02156740 Ry

     iteration #  7     ecut=    30.00 Ry     beta= 0.50
     Davidson diagonalization with overlap
     ethr =  8.42E-06,  avg # of iterations = 15.0

     total cpu time spent up to now is        6.3 secs

     total energy              =    -501.82192480 Ry
     estimated scf accuracy    <       0.00273397 Ry

     iteration #  8     ecut=    30.00 Ry     beta= 0.50
     Davidson diagonalization with overlap
     ethr =  1.07E-06,  avg # of iterations = 20.0

     total cpu time spent up to now is        6.4 secs

     total energy              =    -501.82241462 Ry
     estimated scf accuracy    <       0.00252705 Ry

     iteration #  9     ecut=    30.00 Ry     beta= 0.50
     Davidson diagonalization with overlap
     ethr =  9.87E-07,  avg # of iterations =  9.0

     total cpu time spent up to now is        6.6 secs

     total energy              =    -501.82262513 Ry
     estimated scf accuracy    <       0.00060809 Ry

     iteration # 10     ecut=    30.00 Ry     beta= 0.50
     Davidson diagonalization with overlap
     ethr =  2.38E-07,  avg # of iterations = 16.0

     total cpu time spent up to now is        6.8 secs

     total energy              =    -501.82272916 Ry
     estimated scf accuracy    <       0.00013463 Ry

     iteration # 11     ecut=    30.00 Ry     beta= 0.50
     Davidson diagonalization with overlap
     ethr =  5.26E-08,  avg # of iterations = 15.0

     total cpu time spent up to now is        6.9 secs

     total energy              =    -501.82274979 Ry
     estimated scf accuracy    <       0.00006495 Ry

     iteration # 12     ecut=    30.00 Ry     beta= 0.50
     Davidson diagonalization with overlap
     ethr =  2.54E-08,  avg # of iterations =  9.0

     total cpu time spent up to now is        7.1 secs

     total energy              =    -501.82275462 Ry
     estimated scf accuracy    <       0.00001533 Ry

     iteration # 13     ecut=    30.00 Ry     beta= 0.50
     Davidson diagonalization with overlap
     ethr =  5.99E-09,  avg # of iterations = 15.0

     total cpu time spent up to now is        7.3 secs

     total energy              =    -501.82275731 Ry
     estimated scf accuracy    <       0.00000557 Ry

     iteration # 14     ecut=    30.00 Ry     beta= 0.50
     Davidson diagonalization with overlap
     ethr =  2.17E-09,  avg # of iterations =  9.0

     total cpu time spent up to now is        7.4 secs

     total energy              =    -501.82275810 Ry
     estimated scf accuracy    <       0.00000428 Ry

     iteration # 15     ecut=    30.00 Ry     beta= 0.50
     Davidson diagonalization with overlap
     ethr =  1.67E-09,  avg # of iterations =  7.0

     total cpu time spent up to now is        7.5 secs

     End of self-consistent calculation

          k = 0.0000 0.0000 0.0000 ( 12260 PWs)   bands (ev):

    -6.2858  -5.5389  -5.4629  -5.2208  -5.1477  -5.0142  -4.9033  -4.6553
    -4.5189  -4.3873  -4.2626  -4.1470  -4.1275  -4.0948  -4.0199  -3.9058
    -3.7791  -3.6880  -3.5924  -3.5369  -3.3956  -3.3423  -3.0081  -2.6374
    -2.3393  -2.1399  -2.1006  -2.0542  -1.9827  -1.9133  -1.7983  -1.7784
    -1.6679  -1.6242  -1.5848  -1.5021  -1.4617  -1.3381  -1.3037  -1.2595
    -1.0675  -0.9757  -0.8897  -0.7565  -0.6132   0.0772   0.1246   0.1753
     0.3010   0.3600   0.4044   0.4427   0.5285   0.6351   0.6842   0.8164
     1.0209   1.4481   1.5386   1.6508   1.6829   1.7338   1.8519   1.8894
     1.9248   1.9696   2.0308   2.0925   2.1281   2.1502   2.1973   2.2480
     2.2501   2.3434   2.3534   2.4078   2.4802   2.4925   2.5278   2.5650
     2.6282   2.6348   2.7980   2.8484   2.8832   2.9616   2.9778   3.0697
     3.1688   3.1968   3.2640   3.3772   3.4364   3.4674   3.6126   3.6772
     3.9239   3.9902   4.0001   4.0438   4.1610   4.2104   4.2620   4.2984
     4.3638   4.4660   4.4897   4.5331   4.5756   4.6236   4.6957   4.7597
     4.8328   4.8753   4.9310   4.9941   5.0184   5.0457   5.1037   5.1958
     5.3432   5.3771   5.4278   5.5141   5.8523   5.8753   6.0350   6.2821

     highest occupied level (ev):     6.2821

!    total energy              =    -501.82275787 Ry
     estimated scf accuracy    <       0.00000083 Ry

     The total energy is the sum of the following terms:
     one-electron contribution =     129.77894185 Ry
     hartree contribution      =      44.09254862 Ry
     xc contribution           =    -153.55900721 Ry
     ewald contribution        =    -522.13524111 Ry

     convergence has been achieved in  15 iterations

     Forces acting on atoms (cartesian axes, Ry/au):

     atom    1 type  1   force =     0.22141167   -0.23555851    0.23836290
     atom    2 type  1   force =     0.10630102    0.11844283   -0.09413575
     atom    3 type  1   force =     0.02181607   -0.03731533    0.03670511
     atom    4 type  1   force =    -0.04232286    0.15918149    0.03900645
     atom    5 type  1   force =    -0.08209590   -0.11173890    0.05382993
     atom    6 type  1   force =     0.12652429   -0.08610126    0.09020481
     atom    7 type  1   force =     0.01388014    0.00541618   -0.05905913
     atom    8 type  1   force =     0.00695644   -0.08231603    0.00435435
     atom    9 type  1   force =     0.00461780    0.00358714   -0.06729811
     atom   10 type  1   force =    -0.06037444    0.10792666    0.07926695
     atom   11 type  1   force =     0.15013605   -0.18801224    0.18257967
     atom   12 type  1   force =     0.12479376    0.04436037   -0.09263835
     atom   13 type  1   force =    -0.01264167    0.11563342   -0.00238273
     atom   14 type  1   force =     0.02045797    0.04097413    0.02926581
     atom   15 type  1   force =    -0.45797699    0.49747464    0.39584714
     atom   16 type  1   force =    -0.06985407    0.06369079   -0.08245880
     atom   17 type  1   force =    -0.05444851   -0.04162536   -0.00447160
     atom   18 type  1   force =    -0.04254284   -0.16803470   -0.04569974
     atom   19 type  1   force =     0.10569250   -0.11985453    0.09597297
     atom   20 type  1   force =     0.11361879   -0.08734963    0.10617379
     atom   21 type  1   force =    -0.06618240    0.04193757   -0.04277069
     atom   22 type  1   force =    -0.01314846   -0.03483949    0.03522775
     atom   23 type  1   force =     0.01054684   -0.05134486    0.15670617
     atom   24 type  1   force =    -0.07432215    0.15444104   -0.04437625
     atom   25 type  1   force =     0.00843896   -0.00830098    0.05208280
     atom   26 type  1   force =    -0.00513848    0.02970762   -0.04337013
     atom   27 type  1   force =     0.05662491   -0.11914901   -0.06729172
     atom   28 type  1   force =    -0.00056667   -0.10362669    0.04319255
     atom   29 type  1   force =    -0.03421837    0.01128438    0.03338528
     atom   30 type  1   force =     0.02920729   -0.10202267   -0.07658423
     atom   31 type  1   force =    -0.04183535   -0.15025327    0.06336531
     atom   32 type  1   force =     0.03116438    0.03389648    0.07674501
     atom   33 type  1   force =    -0.11978365   -0.12426777    0.16387653
     atom   34 type  1   force =     0.03595334   -0.03294318    0.01018891
     atom   35 type  1   force =    -0.15955526   -0.00499655    0.00728005
     atom   36 type  1   force =     0.00160427    0.06029284   -0.03073942
     atom   37 type  1   force =     0.05097321    0.03116144   -0.00088548
     atom   38 type  1   force =    -0.02051974    0.00658807    0.05690042
     atom   39 type  1   force =    -0.08756331   -0.03674342   -0.04946207
     atom   40 type  1   force =     0.02071324    0.10636781    0.06671151
     atom   41 type  1   force =     0.08086973    0.18004588    0.08957783
     atom   42 type  1   force =     0.02115372   -0.03934898   -0.02654665
     atom   43 type  1   force =    -0.07892714    0.11585130   -0.09460687
     atom   44 type  1   force =     0.10179164   -0.00489513   -0.06125159
     atom   45 type  1   force =    -0.07967992    0.06576598   -0.04056721
     atom   46 type  1   force =     0.07412906    0.11804426    0.03884236
     atom   47 type  1   force =     0.09130886   -0.09815818    0.06061616
     atom   48 type  1   force =    -0.11537867    0.16447306   -0.13573560
     atom   49 type  1   force =    -0.16056859   -0.01504847   -0.03006103
     atom   50 type  1   force =    -0.07530767   -0.09985556   -0.08292740
     atom   51 type  1   force =     0.12334350   -0.01306477   -0.12318625
     atom   52 type  1   force =    -0.10018773    0.05108763    0.03382543
     atom   53 type  1   force =    -0.03035134   -0.10602743   -0.01924207
     atom   54 type  1   force =    -0.12943920    0.19610979   -0.20688969
     atom   55 type  1   force =     0.06849168    0.00775343    0.02303380
     atom   56 type  1   force =     0.13267221   -0.05250641    0.00467519
     atom   57 type  1   force =     0.47791406   -0.50383220   -0.38390809
     atom   58 type  1   force =     0.00205568    0.05391950   -0.01294579
     atom   59 type  1   force =     0.02652355    0.01297100    0.03250796
     atom   60 type  1   force =    -0.17693868    0.13654425   -0.22985454
     atom   61 type  1   force =     0.08790098   -0.12837213    0.04690307
     atom   62 type  1   force =     0.01097091    0.12450598   -0.04437999
     atom   63 type  1   force =    -0.06551394   -0.07736257   -0.06612185
     atom   64 type  1   force =    -0.10317451    0.20542924   -0.08536515

     Total force =     1.663270     Total SCF correction =     0.001697


     Computing stress (Cartesian axis) and pressure

          total   stress  (Ry/bohr**3)                   (kbar)     P=       58.33
   0.00044921  -0.00037861   0.00011482           66.08      -55.70       16.89
  -0.00037861   0.00034245  -0.00011175          -55.70       50.38      -16.44
   0.00011482  -0.00011175   0.00039793           16.89      -16.44       58.54

 
     init_run     :      1.07s CPU      4.96s WALL (       1 calls)
     electrons    :      2.35s CPU      2.49s WALL (       1 calls)
     forces       :      0.04s CPU      0.04s WALL (       1 calls)
     stress       :      0.14s CPU      0.14s WALL (       1 calls)

     Called by init_run:
     wfcinit      :      0.57s CPU      4.28s WALL (       1 calls)
                                        4.28s GPU  (       1 calls)
     potinit      :      0.21s CPU      0.30s WALL (       1 calls)
     hinit0       :      0.27s CPU      0.30s WALL (       1 calls)

     Called by electrons:
     c_bands      :      1.68s CPU      1.74s WALL (      16 calls)
     sum_band     :      0.34s CPU      0.38s WALL (      16 calls)
     v_of_rho     :      0.17s CPU      0.27s WALL (      16 calls)
     mix_rho      :      0.15s CPU      0.17s WALL (      16 calls)

     Called by c_bands:
     init_us_2    :      0.06s CPU      0.06s WALL (      33 calls)
     init_us_2:gp :      0.06s CPU      0.06s WALL (      33 calls)
     regterg      :      1.54s CPU      1.59s WALL (      16 calls)

     Called by *egterg:
     rdiaghg      :      0.72s CPU      1.49s WALL (     199 calls)
                                        1.45s GPU  (     199 calls)
     h_psi        :      1.14s CPU      4.13s WALL (     201 calls)
                                        4.12s GPU  (     201 calls)
     g_psi        :      0.00s CPU      0.00s WALL (     184 calls)
                                        0.00s GPU  (     184 calls)

     Called by h_psi:
     h_psi:calbec :      0.53s CPU      3.44s WALL (     201 calls)
                                        3.44s GPU  (     201 calls)
     vloc_psi     :      0.49s CPU      0.56s WALL (     201 calls)
                                        0.56s GPU  (     201 calls)
     add_vuspsi   :      0.09s CPU      0.12s WALL (     201 calls)
                                        0.11s GPU  (     201 calls)

     General routines
     calbec       :      0.53s CPU      3.44s WALL (     206 calls)
     fft          :      0.39s CPU      0.53s WALL (     135 calls)
                                        0.14s GPU  (      86 calls)
     ffts         :      0.05s CPU      0.06s WALL (      16 calls)
     fftw         :      0.51s CPU      0.68s WALL (    1684 calls)
                                        0.62s GPU  (    1684 calls)
 
     Parallel routines
 
     PWSCF        :      3.64s CPU      7.73s WALL

 
   This run was terminated on:  15:38:17   8May2023            

=------------------------------------------------------------------------------=
   JOB DONE.
=------------------------------------------------------------------------------=
