An instance of this daemon is already running

     Program PWSCF v.7.1 starts on  8May2023 at 15:43: 0 

     This program is part of the open-source Quantum ESPRESSO suite
     for quantum simulation of materials; please cite
         "P. Giannozzi et al., J. Phys.:Condens. Matter 21 395502 (2009);
         "P. Giannozzi et al., J. Phys.:Condens. Matter 29 465901 (2017);
         "P. Giannozzi et al., J. Chem. Phys. 152 154105 (2020);
          URL http://www.quantum-espresso.org", 
     in publications or presentations arising from this work. More details at
     http://www.quantum-espresso.org/quote

     Parallel version (MPI & OpenMP), running on       4 processor cores
     Number of MPI processes:                 4
     Threads/MPI process:                     1

     MPI processes distributed on     1 nodes
     615412 MiB available memory on the printing compute node when the environment starts
 
     Reading input from pw-si-63.in
Warning: card &CELL ignored
Warning: card / ignored

     Current dimensions of program PWSCF are:
     Max number of different atomic species (ntypx) = 10
     Max number of k-points (npk) =  40000
     Max angular momentum in pseudopotentials (lmaxx) =  4

     IMPORTANT: XC functional enforced from input :
     Exchange-correlation= PBE
                           (   1   4   3   4   0   0   0)
     Any further DFT definition will be discarded
     Please, verify this is what you really want


     gamma-point specific algorithms are used
 
     K-points division:     npool     =       2
     R & G space division:  proc/nbgrp/npool/nimage =       2
     Subspace diagonalization in iterative solution of the eigenvalue problem:
     a serial algorithm will be used

     Message from routine divide_et_impera:
     suboptimal parallelization: some nodes have no k-points
 
     Parallelization info
     --------------------
     sticks:   dense  smooth     PW     G-vecs:    dense   smooth      PW
     Min        2051    2051    541               100899   100899   13705
     Max        2052    2052    544               100900   100900   13712
     Sum        4103    4103   1085               201799   201799   27417
 
     Using Slab Decomposition
 


     bravais-lattice index     =            0
     lattice parameter (alat)  =      20.4082  a.u.
     unit-cell volume          =    9093.2245 (a.u.)^3
     number of atoms/cell      =           64
     number of atomic types    =            1
     number of electrons       =       256.00
     number of Kohn-Sham states=          128
     kinetic-energy cutoff     =      30.0000  Ry
     charge density cutoff     =     120.0000  Ry
     scf convergence threshold =      1.0E-06
     mixing beta               =       0.5000
     number of iterations used =            8  plain     mixing
     Exchange-correlation= PBE
                           (   1   4   3   4   0   0   0)

     GPU acceleration is ACTIVE.
     GPU-aware MPI enabled

     Message from routine print_cuda_info:
     High GPU oversubscription detected. Are you sure this is what you want?

     celldm(1)=  20.408191  celldm(2)=   0.000000  celldm(3)=   0.000000
     celldm(4)=   0.000000  celldm(5)=   0.000000  celldm(6)=   0.000000

     crystal axes: (cart. coord. in units of alat)
               a(1) = (   1.000000   0.000000   0.000000 )  
               a(2) = (   0.000000   1.031116   0.000000 )  
               a(3) = (   0.000000   0.000000   1.037521 )  

     reciprocal axes: (cart. coord. in units 2 pi/alat)
               b(1) = (  1.000000  0.000000  0.000000 )  
               b(2) = (  0.000000  0.969823  0.000000 )  
               b(3) = (  0.000000  0.000000  0.963836 )  


     PseudoPot. # 1 for Si read from file:
     /home/ppiaggi/pseudos/Si_ONCV_PBE_sr.upf
     MD5 check sum: 8553c464762ac42b85b1eed164b4d029
     Pseudo is Norm-conserving, Zval =  4.0
     Generated using ONCVPSP code by D. R. Hamann
     Using radial grid of 1510 points,  4 beta functions with: 
                l(1) =   0
                l(2) =   0
                l(3) =   1
                l(4) =   1

     atomic species   valence    mass     pseudopotential
        Si             4.00    28.08500     Si( 1.00)

     No symmetry found



   Cartesian axes

     site n.     atom                  positions (alat units)
         1           Si  tau(   1) = (   0.0007131   0.0005225  -0.0018341  )
         2           Si  tau(   2) = (  -0.0044820   0.2711237   0.2761722  )
         3           Si  tau(   3) = (   0.2488364   0.0056317   0.2652510  )
         4           Si  tau(   4) = (   0.2294270   0.2716216  -0.0053035  )
         5           Si  tau(   5) = (   0.1388408   0.1401119   0.1306764  )
         6           Si  tau(   6) = (   0.4693011  -0.0008963  -0.0166159  )
         7           Si  tau(   7) = (   0.4753241   0.2616267   0.2560320  )
         8           Si  tau(   8) = (   0.6020292   0.1130052   0.1228086  )
         9           Si  tau(   9) = (   0.7179150   0.0102463   0.2826807  )
        10           Si  tau(  10) = (   0.7275719   0.2484320   0.0074453  )
        11           Si  tau(  11) = (   0.0095618   0.5269239   0.0123752  )
        12           Si  tau(  12) = (   0.2510630   0.4962128   0.2796356  )
        13           Si  tau(  13) = (   0.1217737   0.6407146   0.1434396  )
        14           Si  tau(  14) = (   0.3787770   0.3932688   0.1218818  )
        15           Si  tau(  15) = (   0.4799271   0.5016829   0.0194937  )
        16           Si  tau(  16) = (   0.6062319   0.6420586   0.1374012  )
        17           Si  tau(  17) = (   0.8355529   0.3925482   0.1287741  )
        18           Si  tau(  18) = (   0.7199980   0.5037266   0.2588720  )
        19           Si  tau(  19) = (  -0.0161451   0.7699465   0.2681094  )
        20           Si  tau(  20) = (   0.2482174   0.7623729  -0.0127587  )
        21           Si  tau(  21) = (   0.3579105   0.9029985   0.1360246  )
        22           Si  tau(  22) = (   0.4973290   0.7815968   0.2532186  )
        23           Si  tau(  23) = (   0.7350185   0.7791794  -0.0035450  )
        24           Si  tau(  24) = (   0.8642195   0.8917294   0.1478481  )
        25           Si  tau(  25) = (   0.0017999   0.0044001   0.5546530  )
        26           Si  tau(  26) = (   0.2293401   0.2539987   0.5639716  )
        27           Si  tau(  27) = (   0.1151306   0.1318775   0.6949243  )
        28           Si  tau(  28) = (   0.3712404   0.1328843   0.4008414  )
        29           Si  tau(  29) = (   0.4701603   0.0080621   0.5594250  )
        30           Si  tau(  30) = (   0.5898587   0.1349810   0.6818626  )
        31           Si  tau(  31) = (   0.8468808   0.1406536   0.4054308  )
        32           Si  tau(  32) = (   0.7236535   0.2657974   0.5633612  )
        33           Si  tau(  33) = (   0.1101102   0.3743902   0.4063390  )
        34           Si  tau(  34) = (   0.0032541   0.4962300   0.5293566  )
        35           Si  tau(  35) = (   0.1216367   0.6491379   0.6845567  )
        36           Si  tau(  36) = (   0.5935667   0.3722605   0.4249481  )
        37           Si  tau(  37) = (   0.3771532   0.6456580   0.4127986  )
        38           Si  tau(  38) = (   0.3789680   0.4026068   0.6745560  )
        39           Si  tau(  39) = (   0.4904305   0.4957657   0.5272394  )
        40           Si  tau(  40) = (   0.5948005   0.6417426   0.6709118  )
        41           Si  tau(  41) = (   0.8377082   0.6304013   0.4277965  )
        42           Si  tau(  42) = (   0.8551053   0.3997825   0.6976464  )
        43           Si  tau(  43) = (   0.1161942   0.8849512   0.4130636  )
        44           Si  tau(  44) = (   0.2540946   0.7810073   0.5628483  )
        45           Si  tau(  45) = (   0.5954832   0.9107250   0.4127692  )
        46           Si  tau(  46) = (   0.3689537   0.8899029   0.6691489  )
        47           Si  tau(  47) = (   0.7403965   0.7506559   0.5544721  )
        48           Si  tau(  48) = (   0.8667918   0.8870140   0.6684364  )
        49           Si  tau(  49) = (  -0.0029135   0.2698871   0.8286974  )
        50           Si  tau(  50) = (   0.2467916   0.0048009   0.7982829  )
        51           Si  tau(  51) = (   0.3683466   0.1356504   0.9525287  )
        52           Si  tau(  52) = (   0.4928885   0.2411213   0.8012348  )
        53           Si  tau(  53) = (   0.7301653   0.0090947   0.8158643  )
        54           Si  tau(  54) = (   0.8354337   0.1379966   0.9532436  )
        55           Si  tau(  55) = (   0.1356472   0.4030431   0.9689759  )
        56           Si  tau(  56) = (   0.2353774   0.5181185   0.7982826  )
        57           Si  tau(  57) = (   0.6215334   0.3805602   0.9416797  )
        58           Si  tau(  58) = (   0.3589620   0.6518414   0.9435109  )
        59           Si  tau(  59) = (   0.7450485   0.5235215   0.8353692  )
        60           Si  tau(  60) = (   0.8637551   0.6257528   0.9380600  )
        61           Si  tau(  61) = (  -0.0020707   0.7855328   0.8026834  )
        62           Si  tau(  62) = (   0.1173731   0.9024375   0.9615105  )
        63           Si  tau(  63) = (   0.4726640   0.7727203   0.8040605  )
        64           Si  tau(  64) = (   0.6080935   0.8904926   0.9535318  )

     number of k points=     1
                       cart. coord. in units 2pi/alat
        k(    1) = (   0.0000000   0.0000000   0.0000000), wk =   2.0000000

     Dense  grid:   100900 G-vectors     FFT dimensions: (  72,  75,  75)

     Estimated max dynamical RAM per process >     148.20 MB

     Estimated total dynamical RAM >     568.17 MB

     Initial potential from superposition of free atoms

     starting charge     255.9608, renormalised to     256.0000
     Starting wfcs are  256 randomized atomic wfcs

     total cpu time spent up to now is        5.0 secs

     Self-consistent Calculation

     iteration #  1     ecut=    30.00 Ry     beta= 0.50
     Davidson diagonalization with overlap
     ethr =  1.00E-02,  avg # of iterations =  3.0

     Threshold (ethr) on eigenvalues was too large:
     Diagonalizing with lowered threshold

     Davidson diagonalization with overlap
     ethr =  6.91E-04,  avg # of iterations =  4.0

     total cpu time spent up to now is        5.3 secs

     total energy              =    -501.86150287 Ry
     estimated scf accuracy    <       2.05303013 Ry

     iteration #  2     ecut=    30.00 Ry     beta= 0.50
     Davidson diagonalization with overlap
     ethr =  8.02E-04,  avg # of iterations = 10.0

     total cpu time spent up to now is        5.4 secs

     total energy              =    -501.77622125 Ry
     estimated scf accuracy    <       0.88786966 Ry

     iteration #  3     ecut=    30.00 Ry     beta= 0.50
     Davidson diagonalization with overlap
     ethr =  3.47E-04,  avg # of iterations = 17.0

     total cpu time spent up to now is        5.6 secs

     total energy              =    -501.76306609 Ry
     estimated scf accuracy    <       1.75644666 Ry

     iteration #  4     ecut=    30.00 Ry     beta= 0.50
     Davidson diagonalization with overlap
     ethr =  3.47E-04,  avg # of iterations =  9.0

     total cpu time spent up to now is        5.7 secs

     total energy              =    -502.00211537 Ry
     estimated scf accuracy    <       0.07727816 Ry

     iteration #  5     ecut=    30.00 Ry     beta= 0.50
     Davidson diagonalization with overlap
     ethr =  3.02E-05,  avg # of iterations = 11.0

     total cpu time spent up to now is        5.9 secs

     total energy              =    -502.01341567 Ry
     estimated scf accuracy    <       0.06321184 Ry

     iteration #  6     ecut=    30.00 Ry     beta= 0.50
     Davidson diagonalization with overlap
     ethr =  2.47E-05,  avg # of iterations =  6.0

     total cpu time spent up to now is        6.0 secs

     total energy              =    -502.01637370 Ry
     estimated scf accuracy    <       0.01557637 Ry

     iteration #  7     ecut=    30.00 Ry     beta= 0.50
     Davidson diagonalization with overlap
     ethr =  6.08E-06,  avg # of iterations = 12.0

     total cpu time spent up to now is        6.2 secs

     total energy              =    -502.02009911 Ry
     estimated scf accuracy    <       0.00584011 Ry

     iteration #  8     ecut=    30.00 Ry     beta= 0.50
     Davidson diagonalization with overlap
     ethr =  2.28E-06,  avg # of iterations =  6.0

     total cpu time spent up to now is        6.3 secs

     total energy              =    -502.01980595 Ry
     estimated scf accuracy    <       0.00311215 Ry

     iteration #  9     ecut=    30.00 Ry     beta= 0.50
     Davidson diagonalization with overlap
     ethr =  1.22E-06,  avg # of iterations = 16.0

     total cpu time spent up to now is        6.5 secs

     total energy              =    -502.02030155 Ry
     estimated scf accuracy    <       0.00027558 Ry

     iteration # 10     ecut=    30.00 Ry     beta= 0.50
     Davidson diagonalization with overlap
     ethr =  1.08E-07,  avg # of iterations =  9.0

     total cpu time spent up to now is        6.6 secs

     total energy              =    -502.02032247 Ry
     estimated scf accuracy    <       0.00038908 Ry

     iteration # 11     ecut=    30.00 Ry     beta= 0.50
     Davidson diagonalization with overlap
     ethr =  1.08E-07,  avg # of iterations = 15.0

     total cpu time spent up to now is        6.8 secs

     total energy              =    -502.02033733 Ry
     estimated scf accuracy    <       0.00006804 Ry

     iteration # 12     ecut=    30.00 Ry     beta= 0.50
     Davidson diagonalization with overlap
     ethr =  2.66E-08,  avg # of iterations = 16.0

     total cpu time spent up to now is        7.0 secs

     total energy              =    -502.02035351 Ry
     estimated scf accuracy    <       0.00001420 Ry

     iteration # 13     ecut=    30.00 Ry     beta= 0.50
     Davidson diagonalization with overlap
     ethr =  5.55E-09,  avg # of iterations =  8.0

     total cpu time spent up to now is        7.1 secs

     total energy              =    -502.02035347 Ry
     estimated scf accuracy    <       0.00000741 Ry

     iteration # 14     ecut=    30.00 Ry     beta= 0.50
     Davidson diagonalization with overlap
     ethr =  2.89E-09,  avg # of iterations = 15.0

     total cpu time spent up to now is        7.2 secs

     End of self-consistent calculation

          k = 0.0000 0.0000 0.0000 ( 12608 PWs)   bands (ev):

    -6.3856  -5.5615  -5.5264  -5.3329  -5.2907  -5.1274  -4.8451  -4.8085
    -4.7046  -4.4464  -4.4084  -4.3364  -4.1919  -4.1639  -4.0018  -3.9960
    -3.9624  -3.8540  -3.7380  -3.5832  -3.5430  -3.4923  -3.2913  -2.7232
    -2.5986  -2.4535  -2.2620  -2.2183  -2.1848  -2.0825  -1.9268  -1.8923
    -1.8381  -1.8001  -1.7659  -1.6860  -1.6820  -1.6037  -1.4440  -1.3688
    -1.3459  -1.1651  -1.0877  -1.0605  -0.8045  -0.2443  -0.1616   0.0025
     0.0610   0.1853   0.2120   0.2982   0.3521   0.4504   0.4888   0.5369
     0.6554   1.3234   1.4350   1.4685   1.5479   1.5766   1.6406   1.7585
     1.8035   1.8361   1.8646   1.9320   1.9420   1.9844   2.0570   2.0711
     2.1119   2.1903   2.2437   2.2621   2.3102   2.3200   2.3746   2.4358
     2.4593   2.4900   2.5287   2.5566   2.5859   2.6645   2.6833   2.7125
     2.8526   2.8902   3.0392   3.1202   3.1462   3.2644   3.5625   3.6061
     3.7016   3.7426   3.7528   3.8108   3.9373   3.9807   4.0168   4.1017
     4.1587   4.1854   4.2429   4.3130   4.3872   4.4326   4.4635   4.5226
     4.5582   4.5693   4.6333   4.7294   4.7855   4.8194   4.8359   4.9319
     5.0426   5.0848   5.2297   5.2599   5.3730   5.6589   5.7569   5.8486

     highest occupied level (ev):     5.8486

!    total energy              =    -502.02035429 Ry
     estimated scf accuracy    <       0.00000052 Ry

     The total energy is the sum of the following terms:
     one-electron contribution =     122.08905924 Ry
     hartree contribution      =      45.46513869 Ry
     xc contribution           =    -152.60527633 Ry
     ewald contribution        =    -516.96927589 Ry

     convergence has been achieved in  14 iterations

     Forces acting on atoms (cartesian axes, Ry/au):

     atom    1 type  1   force =    -0.12620421    0.12178918    0.13584588
     atom    2 type  1   force =    -0.07818346   -0.07537578   -0.08366403
     atom    3 type  1   force =    -0.02335466   -0.02695302    0.03436856
     atom    4 type  1   force =     0.23974644   -0.25072983    0.17891747
     atom    5 type  1   force =    -0.08704086   -0.02642306    0.04976526
     atom    6 type  1   force =     0.12174462   -0.16846262    0.16979804
     atom    7 type  1   force =     0.05964291   -0.03847160    0.02863587
     atom    8 type  1   force =    -0.02211723    0.01283307    0.04836891
     atom    9 type  1   force =     0.03214355   -0.03369905   -0.02457640
     atom   10 type  1   force =    -0.11807189    0.11781936    0.21269948
     atom   11 type  1   force =    -0.12166873    0.01882102    0.07910136
     atom   12 type  1   force =    -0.00405081    0.05551632   -0.00839928
     atom   13 type  1   force =     0.03518016    0.02017137    0.05042119
     atom   14 type  1   force =    -0.21623709   -0.15349254    0.18266158
     atom   15 type  1   force =     0.17516961    0.19123454   -0.16275820
     atom   16 type  1   force =     0.02839925   -0.00752676   -0.02445021
     atom   17 type  1   force =     0.10144826   -0.01170253    0.00426039
     atom   18 type  1   force =    -0.02214285    0.03183001    0.09183289
     atom   19 type  1   force =     0.01653320   -0.04757926    0.06083112
     atom   20 type  1   force =    -0.18487707    0.17633861    0.26048630
     atom   21 type  1   force =     0.00647609    0.00060263   -0.02907090
     atom   22 type  1   force =    -0.03417011    0.00333876    0.07009206
     atom   23 type  1   force =     0.14213613   -0.13528342    0.14505373
     atom   24 type  1   force =    -0.03705901    0.07614137   -0.03166934
     atom   25 type  1   force =    -0.04916738   -0.02559923   -0.05805428
     atom   26 type  1   force =     0.05494204    0.03122882   -0.06563126
     atom   27 type  1   force =    -0.03915571    0.00999494   -0.00423341
     atom   28 type  1   force =    -0.04804786    0.00508946    0.04166095
     atom   29 type  1   force =     0.03900803   -0.01106023   -0.08665822
     atom   30 type  1   force =     0.15239894   -0.12338174   -0.10045364
     atom   31 type  1   force =     0.05205077    0.00821076    0.04059684
     atom   32 type  1   force =     0.02895551   -0.01806847   -0.01843536
     atom   33 type  1   force =     0.09354101    0.00149608    0.02591290
     atom   34 type  1   force =    -0.09087996    0.09806680    0.08880717
     atom   35 type  1   force =    -0.03819812    0.00299209   -0.06179239
     atom   36 type  1   force =     0.09819671   -0.09323099   -0.14141915
     atom   37 type  1   force =    -0.01773046    0.00658502   -0.02351410
     atom   38 type  1   force =    -0.07087921   -0.08279979    0.03653621
     atom   39 type  1   force =    -0.05628676    0.16768447    0.07258873
     atom   40 type  1   force =     0.02624504   -0.03038185    0.03616098
     atom   41 type  1   force =     0.10426294   -0.07147514   -0.10983470
     atom   42 type  1   force =     0.05090313   -0.03619064   -0.04531298
     atom   43 type  1   force =     0.00351402    0.05933329    0.00595462
     atom   44 type  1   force =    -0.10967279   -0.12954710   -0.15150009
     atom   45 type  1   force =     0.02146883   -0.02237441    0.01481821
     atom   46 type  1   force =     0.03113331    0.14165051    0.09681821
     atom   47 type  1   force =    -0.07597764    0.08738982    0.01547931
     atom   48 type  1   force =    -0.00868760    0.08017820    0.02390982
     atom   49 type  1   force =    -0.04078243   -0.00354720   -0.00418586
     atom   50 type  1   force =     0.01313855   -0.04276138    0.06880129
     atom   51 type  1   force =    -0.13138690    0.13733871   -0.18357461
     atom   52 type  1   force =    -0.10467739    0.17547283    0.13324478
     atom   53 type  1   force =    -0.01493061   -0.05339060   -0.03790928
     atom   54 type  1   force =     0.24934890   -0.18195298   -0.18423508
     atom   55 type  1   force =    -0.15480487    0.19627245   -0.26842104
     atom   56 type  1   force =     0.05041942   -0.01725563    0.05672694
     atom   57 type  1   force =    -0.07990511    0.04045393   -0.07236525
     atom   58 type  1   force =     0.19108744   -0.23924437   -0.19368125
     atom   59 type  1   force =    -0.15412953   -0.09086139   -0.16248634
     atom   60 type  1   force =     0.12113894    0.18017146    0.06308305
     atom   61 type  1   force =    -0.00972203   -0.04380642    0.03556559
     atom   62 type  1   force =     0.05955342   -0.04951857   -0.17389334
     atom   63 type  1   force =     0.07448649   -0.02470884    0.02518267
     atom   64 type  1   force =    -0.10421333    0.11081057   -0.17280836

     Total force =     1.405695     Total SCF correction =     0.001221


     Computing stress (Cartesian axis) and pressure

          total   stress  (Ry/bohr**3)                   (kbar)     P=       27.47
   0.00030529  -0.00037936  -0.00004767           44.91      -55.81       -7.01
  -0.00037936   0.00031555   0.00005075          -55.81       46.42        7.47
  -0.00004767   0.00005075  -0.00006069           -7.01        7.47       -8.93

 
     init_run     :      1.11s CPU      4.97s WALL (       1 calls)
     electrons    :      2.06s CPU      2.19s WALL (       1 calls)
     forces       :      0.04s CPU      0.05s WALL (       1 calls)
     stress       :      0.14s CPU      0.15s WALL (       1 calls)

     Called by init_run:
     wfcinit      :      0.55s CPU      4.24s WALL (       1 calls)
                                        4.24s GPU  (       1 calls)
     potinit      :      0.21s CPU      0.30s WALL (       1 calls)
     hinit0       :      0.32s CPU      0.35s WALL (       1 calls)

     Called by electrons:
     c_bands      :      1.43s CPU      1.49s WALL (      15 calls)
     sum_band     :      0.31s CPU      0.34s WALL (      15 calls)
     v_of_rho     :      0.16s CPU      0.26s WALL (      15 calls)
     mix_rho      :      0.14s CPU      0.16s WALL (      15 calls)

     Called by c_bands:
     init_us_2    :      0.05s CPU      0.06s WALL (      31 calls)
     init_us_2:gp :      0.05s CPU      0.06s WALL (      31 calls)
     regterg      :      1.30s CPU      1.35s WALL (      15 calls)

     Called by *egterg:
     rdiaghg      :      0.63s CPU      1.39s WALL (     171 calls)
                                        1.36s GPU  (     171 calls)
     h_psi        :      1.01s CPU      3.98s WALL (     173 calls)
                                        3.98s GPU  (     173 calls)
     g_psi        :      0.00s CPU      0.00s WALL (     157 calls)
                                        0.00s GPU  (     157 calls)

     Called by h_psi:
     h_psi:calbec :      0.51s CPU      3.40s WALL (     173 calls)
                                        3.40s GPU  (     173 calls)
     vloc_psi     :      0.39s CPU      0.47s WALL (     173 calls)
                                        0.47s GPU  (     173 calls)
     add_vuspsi   :      0.08s CPU      0.10s WALL (     173 calls)
                                        0.10s GPU  (     173 calls)

     General routines
     calbec       :      0.51s CPU      3.41s WALL (     178 calls)
     fft          :      0.43s CPU      0.55s WALL (     127 calls)
                                        0.13s GPU  (      81 calls)
     ffts         :      0.05s CPU      0.05s WALL (      15 calls)
     fftw         :      0.42s CPU      0.58s WALL (    1548 calls)
                                        0.52s GPU  (    1548 calls)
 
     Parallel routines
 
     PWSCF        :      3.40s CPU      7.44s WALL

 
   This run was terminated on:  15:43: 7   8May2023            

=------------------------------------------------------------------------------=
   JOB DONE.
=------------------------------------------------------------------------------=
