An instance of this daemon is already running
An instance of this daemon is already running

     Program PWSCF v.7.1 starts on  8May2023 at 15:41:21 

     This program is part of the open-source Quantum ESPRESSO suite
     for quantum simulation of materials; please cite
         "P. Giannozzi et al., J. Phys.:Condens. Matter 21 395502 (2009);
         "P. Giannozzi et al., J. Phys.:Condens. Matter 29 465901 (2017);
         "P. Giannozzi et al., J. Chem. Phys. 152 154105 (2020);
          URL http://www.quantum-espresso.org", 
     in publications or presentations arising from this work. More details at
     http://www.quantum-espresso.org/quote

     Parallel version (MPI & OpenMP), running on       4 processor cores
     Number of MPI processes:                 4
     Threads/MPI process:                     1

     MPI processes distributed on     1 nodes
     613546 MiB available memory on the printing compute node when the environment starts
 
     Reading input from pw-si-59.in
Warning: card &CELL ignored
Warning: card / ignored

     Current dimensions of program PWSCF are:
     Max number of different atomic species (ntypx) = 10
     Max number of k-points (npk) =  40000
     Max angular momentum in pseudopotentials (lmaxx) =  4

     IMPORTANT: XC functional enforced from input :
     Exchange-correlation= PBE
                           (   1   4   3   4   0   0   0)
     Any further DFT definition will be discarded
     Please, verify this is what you really want


     gamma-point specific algorithms are used
 
     K-points division:     npool     =       2
     R & G space division:  proc/nbgrp/npool/nimage =       2
     Subspace diagonalization in iterative solution of the eigenvalue problem:
     a serial algorithm will be used

     Message from routine divide_et_impera:
     suboptimal parallelization: some nodes have no k-points
 
     Parallelization info
     --------------------
     sticks:   dense  smooth     PW     G-vecs:    dense   smooth      PW
     Min        1950    1950    517                92397    92397   12589
     Max        1955    1955    518                92398    92398   12594
     Sum        3905    3905   1035               184795   184795   25183
 
     Using Slab Decomposition
 


     bravais-lattice index     =            0
     lattice parameter (alat)  =      20.6576  a.u.
     unit-cell volume          =    8326.4676 (a.u.)^3
     number of atoms/cell      =           64
     number of atomic types    =            1
     number of electrons       =       256.00
     number of Kohn-Sham states=          128
     kinetic-energy cutoff     =      30.0000  Ry
     charge density cutoff     =     120.0000  Ry
     scf convergence threshold =      1.0E-06
     mixing beta               =       0.5000
     number of iterations used =            8  plain     mixing
     Exchange-correlation= PBE
                           (   1   4   3   4   0   0   0)

     GPU acceleration is ACTIVE.
     GPU-aware MPI enabled

     Message from routine print_cuda_info:
     High GPU oversubscription detected. Are you sure this is what you want?

     celldm(1)=  20.657572  celldm(2)=   0.000000  celldm(3)=   0.000000
     celldm(4)=   0.000000  celldm(5)=   0.000000  celldm(6)=   0.000000

     crystal axes: (cart. coord. in units of alat)
               a(1) = (   1.000000   0.000000   0.000000 )  
               a(2) = (   0.000000   0.961641   0.000000 )  
               a(3) = (   0.000000   0.000000   0.982223 )  

     reciprocal axes: (cart. coord. in units 2 pi/alat)
               b(1) = (  1.000000  0.000000  0.000000 )  
               b(2) = (  0.000000  1.039889  0.000000 )  
               b(3) = (  0.000000  0.000000  1.018099 )  


     PseudoPot. # 1 for Si read from file:
     /home/ppiaggi/pseudos/Si_ONCV_PBE_sr.upf
     MD5 check sum: 8553c464762ac42b85b1eed164b4d029
     Pseudo is Norm-conserving, Zval =  4.0
     Generated using ONCVPSP code by D. R. Hamann
     Using radial grid of 1510 points,  4 beta functions with: 
                l(1) =   0
                l(2) =   0
                l(3) =   1
                l(4) =   1

     atomic species   valence    mass     pseudopotential
        Si             4.00    28.08500     Si( 1.00)

     No symmetry found



   Cartesian axes

     site n.     atom                  positions (alat units)
         1           Si  tau(   1) = (  -0.0012748  -0.0003993   0.0174398  )
         2           Si  tau(   2) = (  -0.0087238   0.2395390   0.2378350  )
         3           Si  tau(   3) = (   0.2283119  -0.0170385   0.2418407  )
         4           Si  tau(   4) = (   0.2400054   0.2331414  -0.0123857  )
         5           Si  tau(   5) = (   0.1238216   0.1063625   0.1283076  )
         6           Si  tau(   6) = (   0.4759772   0.0016667   0.0050639  )
         7           Si  tau(   7) = (   0.4780459   0.2480014   0.2592627  )
         8           Si  tau(   8) = (   0.5955559   0.1257352   0.1299656  )
         9           Si  tau(   9) = (   0.7197953  -0.0163122   0.2636532  )
        10           Si  tau(  10) = (   0.7429773   0.2411053  -0.0042429  )
        11           Si  tau(  11) = (  -0.0088894   0.4689798  -0.0054034  )
        12           Si  tau(  12) = (   0.2469891   0.4915039   0.2566272  )
        13           Si  tau(  13) = (   0.1132944   0.5797625   0.1141101  )
        14           Si  tau(  14) = (   0.3646904   0.3735969   0.1102876  )
        15           Si  tau(  15) = (   0.4919891   0.4854533   0.0124747  )
        16           Si  tau(  16) = (   0.5916147   0.6108553   0.1170103  )
        17           Si  tau(  17) = (   0.8537128   0.3661049   0.1196947  )
        18           Si  tau(  18) = (   0.7196743   0.4931528   0.2684321  )
        19           Si  tau(  19) = (  -0.0143999   0.6978145   0.2675536  )
        20           Si  tau(  20) = (   0.2280078   0.7189923  -0.0172253  )
        21           Si  tau(  21) = (   0.3528131   0.8479016   0.1256698  )
        22           Si  tau(  22) = (   0.4972831   0.7105537   0.2622643  )
        23           Si  tau(  23) = (   0.7167112   0.7040218  -0.0004103  )
        24           Si  tau(  24) = (   0.8570086   0.8251404   0.1347898  )
        25           Si  tau(  25) = (   0.0170467  -0.0124609   0.4858447  )
        26           Si  tau(  26) = (   0.2432305   0.2223605   0.5188342  )
        27           Si  tau(  27) = (   0.1037321   0.1083702   0.6204590  )
        28           Si  tau(  28) = (   0.3509787   0.1208982   0.3763456  )
        29           Si  tau(  29) = (   0.4916255  -0.0155306   0.4886375  )
        30           Si  tau(  30) = (   0.6136434   0.1279626   0.6253931  )
        31           Si  tau(  31) = (   0.8476847   0.1319443   0.3664311  )
        32           Si  tau(  32) = (   0.7196597   0.2349470   0.5100987  )
        33           Si  tau(  33) = (   0.1035572   0.3451701   0.3719723  )
        34           Si  tau(  34) = (   0.0133859   0.4760311   0.4993363  )
        35           Si  tau(  35) = (   0.1326205   0.5974068   0.6272257  )
        36           Si  tau(  36) = (   0.5909145   0.3437581   0.3943609  )
        37           Si  tau(  37) = (   0.3732151   0.5994609   0.3899594  )
        38           Si  tau(  38) = (   0.3560804   0.3663250   0.6407599  )
        39           Si  tau(  39) = (   0.4780872   0.4772514   0.4981885  )
        40           Si  tau(  40) = (   0.5922603   0.5980368   0.6131402  )
        41           Si  tau(  41) = (   0.8429623   0.6017025   0.3900566  )
        42           Si  tau(  42) = (   0.8605522   0.3408828   0.6345282  )
        43           Si  tau(  43) = (   0.1379589   0.8488682   0.3779518  )
        44           Si  tau(  44) = (   0.2577225   0.7198963   0.4882602  )
        45           Si  tau(  45) = (   0.6029179   0.8375663   0.3900794  )
        46           Si  tau(  46) = (   0.3795852   0.8226346   0.6379784  )
        47           Si  tau(  47) = (   0.7405705   0.7070440   0.4910439  )
        48           Si  tau(  48) = (   0.8336768   0.8392498   0.6183670  )
        49           Si  tau(  49) = (  -0.0110816   0.2371667   0.7380101  )
        50           Si  tau(  50) = (   0.2287537   0.0041268   0.7432072  )
        51           Si  tau(  51) = (   0.3711613   0.1114893   0.8727039  )
        52           Si  tau(  52) = (   0.4724592   0.2282495   0.7550265  )
        53           Si  tau(  53) = (   0.7295212   0.0042699   0.7452910  )
        54           Si  tau(  54) = (   0.8452862   0.1315104   0.8817950  )
        55           Si  tau(  55) = (   0.1333882   0.3531998   0.8920705  )
        56           Si  tau(  56) = (   0.2312178   0.4759795   0.7579619  )
        57           Si  tau(  57) = (   0.6074722   0.3577019   0.8968239  )
        58           Si  tau(  58) = (   0.3648249   0.5856519   0.8895117  )
        59           Si  tau(  59) = (   0.7201368   0.4768162   0.7711794  )
        60           Si  tau(  60) = (   0.8344498   0.6103591   0.8898409  )
        61           Si  tau(  61) = (   0.0169343   0.7248545   0.7605034  )
        62           Si  tau(  62) = (   0.1325498   0.8359267   0.8877462  )
        63           Si  tau(  63) = (   0.4769526   0.7283489   0.7413514  )
        64           Si  tau(  64) = (   0.6004948   0.8371334   0.8773789  )

     number of k points=     1
                       cart. coord. in units 2pi/alat
        k(    1) = (   0.0000000   0.0000000   0.0000000), wk =   2.0000000

     Dense  grid:    92398 G-vectors     FFT dimensions: (  75,  72,  72)

     Estimated max dynamical RAM per process >     136.34 MB

     Estimated total dynamical RAM >     522.81 MB

     Initial potential from superposition of free atoms

     starting charge     255.9608, renormalised to     256.0000
     Starting wfcs are  256 randomized atomic wfcs

     total cpu time spent up to now is        5.4 secs

     Self-consistent Calculation

     iteration #  1     ecut=    30.00 Ry     beta= 0.50
     Davidson diagonalization with overlap
     ethr =  1.00E-02,  avg # of iterations =  2.0

     Threshold (ethr) on eigenvalues was too large:
     Diagonalizing with lowered threshold

     Davidson diagonalization with overlap
     ethr =  8.04E-04,  avg # of iterations =  2.0

     total cpu time spent up to now is        5.6 secs

     total energy              =    -501.72416805 Ry
     estimated scf accuracy    <       2.36322194 Ry

     iteration #  2     ecut=    30.00 Ry     beta= 0.50
     Davidson diagonalization with overlap
     ethr =  9.23E-04,  avg # of iterations =  2.0

     total cpu time spent up to now is        5.7 secs

     total energy              =    -501.76768092 Ry
     estimated scf accuracy    <       0.39627793 Ry

     iteration #  3     ecut=    30.00 Ry     beta= 0.50
     Davidson diagonalization with overlap
     ethr =  1.55E-04,  avg # of iterations = 14.0

     total cpu time spent up to now is        5.8 secs

     total energy              =    -501.89107450 Ry
     estimated scf accuracy    <       0.16745421 Ry

     iteration #  4     ecut=    30.00 Ry     beta= 0.50
     Davidson diagonalization with overlap
     ethr =  6.54E-05,  avg # of iterations =  8.0

     total cpu time spent up to now is        6.0 secs

     total energy              =    -501.91124252 Ry
     estimated scf accuracy    <       0.09612288 Ry

     iteration #  5     ecut=    30.00 Ry     beta= 0.50
     Davidson diagonalization with overlap
     ethr =  3.75E-05,  avg # of iterations =  6.0

     total cpu time spent up to now is        6.2 secs

     total energy              =    -501.92345851 Ry
     estimated scf accuracy    <       0.00796418 Ry

     iteration #  6     ecut=    30.00 Ry     beta= 0.50
     Davidson diagonalization with overlap
     ethr =  3.11E-06,  avg # of iterations = 11.0

     total cpu time spent up to now is        6.3 secs

     total energy              =    -501.92473572 Ry
     estimated scf accuracy    <       0.01495734 Ry

     iteration #  7     ecut=    30.00 Ry     beta= 0.50
     Davidson diagonalization with overlap
     ethr =  3.11E-06,  avg # of iterations =  9.0

     total cpu time spent up to now is        6.4 secs

     total energy              =    -501.92605953 Ry
     estimated scf accuracy    <       0.00332079 Ry

     iteration #  8     ecut=    30.00 Ry     beta= 0.50
     Davidson diagonalization with overlap
     ethr =  1.30E-06,  avg # of iterations =  8.0

     total cpu time spent up to now is        6.6 secs

     total energy              =    -501.92655681 Ry
     estimated scf accuracy    <       0.00062096 Ry

     iteration #  9     ecut=    30.00 Ry     beta= 0.50
     Davidson diagonalization with overlap
     ethr =  2.43E-07,  avg # of iterations = 10.0

     total cpu time spent up to now is        6.7 secs

     total energy              =    -501.92661798 Ry
     estimated scf accuracy    <       0.00063036 Ry

     iteration # 10     ecut=    30.00 Ry     beta= 0.50
     Davidson diagonalization with overlap
     ethr =  2.43E-07,  avg # of iterations =  7.0

     total cpu time spent up to now is        6.8 secs

     total energy              =    -501.92664925 Ry
     estimated scf accuracy    <       0.00016286 Ry

     iteration # 11     ecut=    30.00 Ry     beta= 0.50
     Davidson diagonalization with overlap
     ethr =  6.36E-08,  avg # of iterations =  6.0

     total cpu time spent up to now is        7.0 secs

     total energy              =    -501.92667215 Ry
     estimated scf accuracy    <       0.00001549 Ry

     iteration # 12     ecut=    30.00 Ry     beta= 0.50
     Davidson diagonalization with overlap
     ethr =  6.05E-09,  avg # of iterations = 15.0

     total cpu time spent up to now is        7.1 secs

     total energy              =    -501.92667638 Ry
     estimated scf accuracy    <       0.00001652 Ry

     iteration # 13     ecut=    30.00 Ry     beta= 0.50
     Davidson diagonalization with overlap
     ethr =  6.05E-09,  avg # of iterations =  6.0

     total cpu time spent up to now is        7.2 secs

     total energy              =    -501.92667698 Ry
     estimated scf accuracy    <       0.00000426 Ry

     iteration # 14     ecut=    30.00 Ry     beta= 0.50
     Davidson diagonalization with overlap
     ethr =  1.67E-09,  avg # of iterations =  8.0

     total cpu time spent up to now is        7.3 secs

     End of self-consistent calculation

          k = 0.0000 0.0000 0.0000 ( 11547 PWs)   bands (ev):

    -5.9429  -5.1430  -5.1100  -4.8390  -4.7268  -4.6348  -4.5366  -4.3453
    -4.2472  -4.1351  -4.0553  -3.9146  -3.7657  -3.6517  -3.5995  -3.5380
    -3.4369  -3.3365  -3.2066  -3.1759  -3.0419  -2.9514  -2.6765  -2.0490
    -1.8851  -1.7913  -1.7219  -1.6395  -1.5076  -1.4419  -1.3479  -1.2797
    -1.2521  -1.1667  -1.0951  -1.0570  -0.9499  -0.8990  -0.8724  -0.7373
    -0.7178  -0.5939  -0.5612  -0.3999  -0.2049   0.5265   0.6773   0.7501
     0.7821   0.9036   0.9348   0.9840   1.0360   1.1516   1.2433   1.2992
     1.4012   2.0164   2.0783   2.1338   2.1842   2.2337   2.3387   2.3585
     2.3823   2.4610   2.4957   2.5138   2.5577   2.5769   2.6399   2.6619
     2.7056   2.7365   2.7917   2.7973   2.8350   2.8813   2.9133   3.0066
     3.0632   3.1172   3.2264   3.2860   3.3091   3.3328   3.4599   3.5229
     3.6135   3.6650   3.7214   3.7716   3.8356   4.1449   4.2039   4.3096
     4.4121   4.4840   4.5054   4.6503   4.6920   4.7290   4.7761   4.8627
     4.9072   4.9317   5.0128   5.0440   5.1229   5.1598   5.2152   5.2754
     5.2975   5.4077   5.4720   5.5312   5.5577   5.6185   5.7000   5.7093
     5.7495   5.7852   5.8570   5.9674   6.4936   6.5633   6.6603   6.6841

     highest occupied level (ev):     6.6841

!    total energy              =    -501.92667733 Ry
     estimated scf accuracy    <       0.00000038 Ry

     The total energy is the sum of the following terms:
     one-electron contribution =     148.22410010 Ry
     hartree contribution      =      40.51691401 Ry
     xc contribution           =    -155.61390226 Ry
     ewald contribution        =    -535.05378918 Ry

     convergence has been achieved in  14 iterations

     Forces acting on atoms (cartesian axes, Ry/au):

     atom    1 type  1   force =    -0.09848918   -0.05165329   -0.04380561
     atom    2 type  1   force =    -0.04214604   -0.02331329   -0.01488383
     atom    3 type  1   force =     0.08092470    0.10569473    0.01201767
     atom    4 type  1   force =     0.13750310   -0.15644668    0.18985909
     atom    5 type  1   force =    -0.01386061    0.11816276   -0.00966473
     atom    6 type  1   force =     0.08388776   -0.05658283    0.08510964
     atom    7 type  1   force =    -0.04057360   -0.02929849   -0.07245105
     atom    8 type  1   force =     0.06060377   -0.01984594    0.01714653
     atom    9 type  1   force =     0.04926638    0.06690971   -0.07032105
     atom   10 type  1   force =    -0.14739170    0.08551347    0.21473216
     atom   11 type  1   force =    -0.06895854    0.02998278    0.01409101
     atom   12 type  1   force =    -0.03302309   -0.06565707   -0.02646574
     atom   13 type  1   force =     0.01489894    0.07557014    0.06112305
     atom   14 type  1   force =    -0.08643913   -0.06427837    0.10940627
     atom   15 type  1   force =     0.02199387   -0.05417234   -0.01327715
     atom   16 type  1   force =     0.08018589   -0.02614091    0.13422155
     atom   17 type  1   force =     0.00064193    0.02744395    0.06456544
     atom   18 type  1   force =    -0.03319882   -0.06890595   -0.06648169
     atom   19 type  1   force =     0.03598663    0.04005723   -0.05546802
     atom   20 type  1   force =     0.23878405   -0.27757151    0.27835227
     atom   21 type  1   force =     0.04697630   -0.11297715   -0.02215682
     atom   22 type  1   force =    -0.06920316    0.06485313   -0.01157426
     atom   23 type  1   force =    -0.08170614    0.21795576    0.14858594
     atom   24 type  1   force =    -0.00076770    0.01455886    0.01556687
     atom   25 type  1   force =    -0.20405180    0.05319628    0.05099858
     atom   26 type  1   force =    -0.02543035    0.07796307   -0.02862490
     atom   27 type  1   force =     0.00146849    0.02703974    0.01970318
     atom   28 type  1   force =     0.02566446   -0.06605961   -0.01468722
     atom   29 type  1   force =    -0.13027537    0.15068273    0.14107533
     atom   30 type  1   force =    -0.11858562   -0.10289271    0.06177290
     atom   31 type  1   force =     0.02943134   -0.05543080    0.01286262
     atom   32 type  1   force =     0.12945497    0.06075270   -0.08002594
     atom   33 type  1   force =     0.10463362    0.02230208    0.01622922
     atom   34 type  1   force =    -0.10624959    0.00883213    0.03286861
     atom   35 type  1   force =    -0.03422650    0.04989253   -0.03289733
     atom   36 type  1   force =     0.06796413    0.07381602   -0.03553688
     atom   37 type  1   force =    -0.01650758   -0.00798812   -0.12068849
     atom   38 type  1   force =     0.00859480   -0.04187148   -0.04997691
     atom   39 type  1   force =     0.00412779   -0.07856324    0.07534444
     atom   40 type  1   force =     0.08487534    0.01672247    0.06447068
     atom   41 type  1   force =     0.21651420   -0.17693537   -0.11065646
     atom   42 type  1   force =    -0.05563446    0.12316872   -0.04566890
     atom   43 type  1   force =    -0.04803895   -0.17575773    0.00096987
     atom   44 type  1   force =    -0.05400480    0.03871199    0.11083719
     atom   45 type  1   force =     0.11939548   -0.12416896   -0.08543448
     atom   46 type  1   force =    -0.27878124    0.28791958   -0.26888823
     atom   47 type  1   force =    -0.19070813    0.14053811    0.17319428
     atom   48 type  1   force =     0.12173442    0.00981012    0.00362305
     atom   49 type  1   force =     0.03697991   -0.04399289    0.10646671
     atom   50 type  1   force =     0.07060183   -0.06404850    0.03017914
     atom   51 type  1   force =    -0.13497543   -0.00845608   -0.07083412
     atom   52 type  1   force =     0.11056277    0.09030141   -0.04547955
     atom   53 type  1   force =    -0.00636020   -0.01267288    0.05396829
     atom   54 type  1   force =     0.21065648   -0.20328780   -0.17389118
     atom   55 type  1   force =    -0.19062800    0.12877087   -0.17818352
     atom   56 type  1   force =     0.03295647    0.01074044    0.02921325
     atom   57 type  1   force =    -0.04301774   -0.02598087   -0.11458325
     atom   58 type  1   force =    -0.05975269    0.08045306   -0.13290314
     atom   59 type  1   force =     0.02346293    0.01193149   -0.09230751
     atom   60 type  1   force =     0.25982192   -0.17262391   -0.20750334
     atom   61 type  1   force =    -0.10908683   -0.03822783   -0.04556672
     atom   62 type  1   force =    -0.24186272    0.33054825   -0.19218790
     atom   63 type  1   force =     0.23104261   -0.27196602    0.26179298
     atom   64 type  1   force =     0.02233844    0.03697234   -0.05727186

     Total force =     1.528961     Total SCF correction =     0.001125


     Computing stress (Cartesian axis) and pressure

          total   stress  (Ry/bohr**3)                   (kbar)     P=      117.69
   0.00076564  -0.00042945  -0.00005458          112.63      -63.17       -8.03
  -0.00042945   0.00088931   0.00006417          -63.17      130.82        9.44
  -0.00005458   0.00006417   0.00074526           -8.03        9.44      109.63

 
     init_run     :      1.25s CPU      5.30s WALL (       1 calls)
     electrons    :      1.79s CPU      1.97s WALL (       1 calls)
     forces       :      0.04s CPU      0.05s WALL (       1 calls)
     stress       :      0.13s CPU      0.14s WALL (       1 calls)

     Called by init_run:
     wfcinit      :      0.54s CPU      4.41s WALL (       1 calls)
                                        4.41s GPU  (       1 calls)
     potinit      :      0.19s CPU      0.29s WALL (       1 calls)
     hinit0       :      0.50s CPU      0.53s WALL (       1 calls)

     Called by electrons:
     c_bands      :      1.21s CPU      1.30s WALL (      15 calls)
     sum_band     :      0.29s CPU      0.35s WALL (      15 calls)
     v_of_rho     :      0.14s CPU      0.25s WALL (      15 calls)
     mix_rho      :      0.13s CPU      0.14s WALL (      15 calls)

     Called by c_bands:
     init_us_2    :      0.06s CPU      0.06s WALL (      31 calls)
     init_us_2:gp :      0.05s CPU      0.06s WALL (      31 calls)
     regterg      :      1.09s CPU      1.17s WALL (      15 calls)

     Called by *egterg:
     rdiaghg      :      0.52s CPU      1.30s WALL (     128 calls)
                                        1.28s GPU  (     128 calls)
     h_psi        :      0.93s CPU      4.07s WALL (     130 calls)
                                        4.07s GPU  (     130 calls)
     g_psi        :      0.00s CPU      0.00s WALL (     114 calls)
                                        0.00s GPU  (     114 calls)

     Called by h_psi:
     h_psi:calbec :      0.50s CPU      3.56s WALL (     130 calls)
                                        3.56s GPU  (     130 calls)
     vloc_psi     :      0.36s CPU      0.44s WALL (     130 calls)
                                        0.44s GPU  (     130 calls)
     add_vuspsi   :      0.05s CPU      0.07s WALL (     130 calls)
                                        0.07s GPU  (     130 calls)

     General routines
     calbec       :      0.50s CPU      3.56s WALL (     135 calls)
     fft          :      0.59s CPU      0.72s WALL (     127 calls)
                                        0.13s GPU  (      81 calls)
     ffts         :      0.04s CPU      0.05s WALL (      15 calls)
     fftw         :      0.40s CPU      0.56s WALL (    1464 calls)
                                        0.50s GPU  (    1464 calls)
 
     Parallel routines
 
     PWSCF        :      3.26s CPU      7.55s WALL

 
   This run was terminated on:  15:41:28   8May2023            

=------------------------------------------------------------------------------=
   JOB DONE.
=------------------------------------------------------------------------------=
