An instance of this daemon is already running

     Program PWSCF v.7.1 starts on  8May2023 at 15:49: 5 

     This program is part of the open-source Quantum ESPRESSO suite
     for quantum simulation of materials; please cite
         "P. Giannozzi et al., J. Phys.:Condens. Matter 21 395502 (2009);
         "P. Giannozzi et al., J. Phys.:Condens. Matter 29 465901 (2017);
         "P. Giannozzi et al., J. Chem. Phys. 152 154105 (2020);
          URL http://www.quantum-espresso.org", 
     in publications or presentations arising from this work. More details at
     http://www.quantum-espresso.org/quote

     Parallel version (MPI & OpenMP), running on       4 processor cores
     Number of MPI processes:                 4
     Threads/MPI process:                     1

     MPI processes distributed on     1 nodes
     615071 MiB available memory on the printing compute node when the environment starts
 
     Reading input from pw-si-84.in
Warning: card &CELL ignored
Warning: card / ignored

     Current dimensions of program PWSCF are:
     Max number of different atomic species (ntypx) = 10
     Max number of k-points (npk) =  40000
     Max angular momentum in pseudopotentials (lmaxx) =  4

     IMPORTANT: XC functional enforced from input :
     Exchange-correlation= PBE
                           (   1   4   3   4   0   0   0)
     Any further DFT definition will be discarded
     Please, verify this is what you really want


     gamma-point specific algorithms are used
 
     K-points division:     npool     =       2
     R & G space division:  proc/nbgrp/npool/nimage =       2
     Subspace diagonalization in iterative solution of the eigenvalue problem:
     a serial algorithm will be used

     Message from routine divide_et_impera:
     suboptimal parallelization: some nodes have no k-points
 
     Parallelization info
     --------------------
     sticks:   dense  smooth     PW     G-vecs:    dense   smooth      PW
     Min        2095    2095    557                99769    99769   13578
     Max        2098    2098    558                99774    99774   13581
     Sum        4193    4193   1115               199543   199543   27159
 
     Using Slab Decomposition
 


     bravais-lattice index     =            0
     lattice parameter (alat)  =      20.4752  a.u.
     unit-cell volume          =    8986.5679 (a.u.)^3
     number of atoms/cell      =           64
     number of atomic types    =            1
     number of electrons       =       256.00
     number of Kohn-Sham states=          128
     kinetic-energy cutoff     =      30.0000  Ry
     charge density cutoff     =     120.0000  Ry
     scf convergence threshold =      1.0E-06
     mixing beta               =       0.5000
     number of iterations used =            8  plain     mixing
     Exchange-correlation= PBE
                           (   1   4   3   4   0   0   0)

     GPU acceleration is ACTIVE.
     GPU-aware MPI enabled

     Message from routine print_cuda_info:
     High GPU oversubscription detected. Are you sure this is what you want?

     celldm(1)=  20.475220  celldm(2)=   0.000000  celldm(3)=   0.000000
     celldm(4)=   0.000000  celldm(5)=   0.000000  celldm(6)=   0.000000

     crystal axes: (cart. coord. in units of alat)
               a(1) = (   1.000000   0.000000   0.000000 )  
               a(2) = (   0.000000   1.047441   0.000000 )  
               a(3) = (   0.000000   0.000000   0.999490 )  

     reciprocal axes: (cart. coord. in units 2 pi/alat)
               b(1) = (  1.000000  0.000000  0.000000 )  
               b(2) = (  0.000000  0.954707  0.000000 )  
               b(3) = (  0.000000  0.000000  1.000510 )  


     PseudoPot. # 1 for Si read from file:
     /home/ppiaggi/pseudos/Si_ONCV_PBE_sr.upf
     MD5 check sum: 8553c464762ac42b85b1eed164b4d029
     Pseudo is Norm-conserving, Zval =  4.0
     Generated using ONCVPSP code by D. R. Hamann
     Using radial grid of 1510 points,  4 beta functions with: 
                l(1) =   0
                l(2) =   0
                l(3) =   1
                l(4) =   1

     atomic species   valence    mass     pseudopotential
        Si             4.00    28.08500     Si( 1.00)

     No symmetry found



   Cartesian axes

     site n.     atom                  positions (alat units)
         1           Si  tau(   1) = (   0.0040393  -0.0019536   0.0154642  )
         2           Si  tau(   2) = (  -0.0093904   0.2637566   0.2414601  )
         3           Si  tau(   3) = (   0.2657563  -0.0070658   0.2570496  )
         4           Si  tau(   4) = (   0.2584562   0.2560651  -0.0019179  )
         5           Si  tau(   5) = (   0.1098457   0.1446116   0.1216039  )
         6           Si  tau(   6) = (   0.5250574  -0.0086563  -0.0158820  )
         7           Si  tau(   7) = (   0.5240706   0.2847428   0.2386947  )
         8           Si  tau(   8) = (   0.6393524   0.1434553   0.1278814  )
         9           Si  tau(   9) = (   0.7783279  -0.0048353   0.2419884  )
        10           Si  tau(  10) = (   0.7480673   0.2780058  -0.0047858  )
        11           Si  tau(  11) = (  -0.0035384   0.5503833  -0.0141761  )
        12           Si  tau(  12) = (   0.2572716   0.5551049   0.2444799  )
        13           Si  tau(  13) = (   0.1440629   0.6800889   0.1128798  )
        14           Si  tau(  14) = (   0.3752355   0.3973111   0.1334303  )
        15           Si  tau(  15) = (   0.5247977   0.5200471  -0.0065806  )
        16           Si  tau(  16) = (   0.6418770   0.6639318   0.1286529  )
        17           Si  tau(  17) = (   0.8836396   0.4185462   0.1283024  )
        18           Si  tau(  18) = (   0.7705363   0.5203584   0.2622325  )
        19           Si  tau(  19) = (  -0.0007239   0.7850238   0.2469996  )
        20           Si  tau(  20) = (   0.2472935   0.7970756   0.0107659  )
        21           Si  tau(  21) = (   0.3873663   0.9408232   0.1401468  )
        22           Si  tau(  22) = (   0.5217747   0.8215149   0.2437665  )
        23           Si  tau(  23) = (   0.7562955   0.7860719   0.0166628  )
        24           Si  tau(  24) = (   0.8797503   0.9434502   0.1267089  )
        25           Si  tau(  25) = (  -0.0079551   0.0025438   0.4906212  )
        26           Si  tau(  26) = (   0.2481040   0.2720561   0.4850100  )
        27           Si  tau(  27) = (   0.1101362   0.1369011   0.6292055  )
        28           Si  tau(  28) = (   0.3700461   0.1219616   0.3810975  )
        29           Si  tau(  29) = (   0.5039962   0.0176932   0.4814555  )
        30           Si  tau(  30) = (   0.6207953   0.1172495   0.6012555  )
        31           Si  tau(  31) = (   0.8950413   0.1451307   0.3580146  )
        32           Si  tau(  32) = (   0.7602125   0.2677204   0.5102165  )
        33           Si  tau(  33) = (   0.1323101   0.3842269   0.3836381  )
        34           Si  tau(  34) = (   0.0033864   0.5209093   0.4869872  )
        35           Si  tau(  35) = (   0.1284010   0.6659604   0.6128006  )
        36           Si  tau(  36) = (   0.6518748   0.4069009   0.3605124  )
        37           Si  tau(  37) = (   0.3689653   0.6794434   0.3655993  )
        38           Si  tau(  38) = (   0.3899036   0.4039203   0.6249101  )
        39           Si  tau(  39) = (   0.5239641   0.5283541   0.5001108  )
        40           Si  tau(  40) = (   0.6472715   0.6733575   0.6308990  )
        41           Si  tau(  41) = (   0.8954021   0.6691152   0.3837722  )
        42           Si  tau(  42) = (   0.8971574   0.4204635   0.6181038  )
        43           Si  tau(  43) = (   0.1369929   0.9459709   0.3776175  )
        44           Si  tau(  44) = (   0.2374373   0.7966631   0.4922424  )
        45           Si  tau(  45) = (   0.6398969   0.9511885   0.3857634  )
        46           Si  tau(  46) = (   0.3845645   0.9385254   0.6276183  )
        47           Si  tau(  47) = (   0.7490536   0.8067493   0.5012577  )
        48           Si  tau(  48) = (   0.8976137   0.9575829   0.6262891  )
        49           Si  tau(  49) = (   0.0009414   0.2672159   0.7554562  )
        50           Si  tau(  50) = (   0.2472267   0.0084724   0.7494657  )
        51           Si  tau(  51) = (   0.3985999   0.1316247   0.8830987  )
        52           Si  tau(  52) = (   0.4979483   0.2852657   0.7416147  )
        53           Si  tau(  53) = (   0.7596851  -0.0186795   0.7255286  )
        54           Si  tau(  54) = (   0.8760324   0.1426241   0.8548215  )
        55           Si  tau(  55) = (   0.1090708   0.3907431   0.8749732  )
        56           Si  tau(  56) = (   0.2579206   0.5400264   0.7571050  )
        57           Si  tau(  57) = (   0.6287588   0.4072486   0.8547879  )
        58           Si  tau(  58) = (   0.3814029   0.6781646   0.8511932  )
        59           Si  tau(  59) = (   0.7538256   0.5534073   0.7330389  )
        60           Si  tau(  60) = (   0.8784835   0.6672495   0.8572746  )
        61           Si  tau(  61) = (  -0.0087669   0.7882555   0.7331807  )
        62           Si  tau(  62) = (   0.1260502   0.9387638   0.8724087  )
        63           Si  tau(  63) = (   0.5112480   0.7918248   0.7383535  )
        64           Si  tau(  64) = (   0.6441594   0.9302343   0.8551843  )

     number of k points=     1
                       cart. coord. in units 2pi/alat
        k(    1) = (   0.0000000   0.0000000   0.0000000), wk =   2.0000000

     Dense  grid:    99772 G-vectors     FFT dimensions: (  72,  75,  72)

     Estimated max dynamical RAM per process >     145.92 MB

     Estimated total dynamical RAM >     559.34 MB

     Initial potential from superposition of free atoms

     starting charge     255.9608, renormalised to     256.0000
     Starting wfcs are  256 randomized atomic wfcs

     total cpu time spent up to now is        5.1 secs

     Self-consistent Calculation

     iteration #  1     ecut=    30.00 Ry     beta= 0.50
     Davidson diagonalization with overlap
     ethr =  1.00E-02,  avg # of iterations =  2.0

     Threshold (ethr) on eigenvalues was too large:
     Diagonalizing with lowered threshold

     Davidson diagonalization with overlap
     ethr =  6.85E-04,  avg # of iterations =  2.0

     total cpu time spent up to now is        5.3 secs

     total energy              =    -502.36958855 Ry
     estimated scf accuracy    <       1.99937904 Ry

     iteration #  2     ecut=    30.00 Ry     beta= 0.50
     Davidson diagonalization with overlap
     ethr =  7.81E-04,  avg # of iterations =  2.0

     total cpu time spent up to now is        5.5 secs

     total energy              =    -502.38808473 Ry
     estimated scf accuracy    <       0.36005735 Ry

     iteration #  3     ecut=    30.00 Ry     beta= 0.50
     Davidson diagonalization with overlap
     ethr =  1.41E-04,  avg # of iterations = 19.0

     total cpu time spent up to now is        5.6 secs

     total energy              =    -502.46865176 Ry
     estimated scf accuracy    <       0.04562613 Ry

     iteration #  4     ecut=    30.00 Ry     beta= 0.50
     Davidson diagonalization with overlap
     ethr =  1.78E-05,  avg # of iterations = 11.0

     total cpu time spent up to now is        5.8 secs

     total energy              =    -502.47544954 Ry
     estimated scf accuracy    <       0.04959649 Ry

     iteration #  5     ecut=    30.00 Ry     beta= 0.50
     Davidson diagonalization with overlap
     ethr =  1.78E-05,  avg # of iterations =  9.0

     total cpu time spent up to now is        5.9 secs

     total energy              =    -502.48290161 Ry
     estimated scf accuracy    <       0.00547266 Ry

     iteration #  6     ecut=    30.00 Ry     beta= 0.50
     Davidson diagonalization with overlap
     ethr =  2.14E-06,  avg # of iterations =  8.0

     total cpu time spent up to now is        6.0 secs

     total energy              =    -502.48329487 Ry
     estimated scf accuracy    <       0.00514756 Ry

     iteration #  7     ecut=    30.00 Ry     beta= 0.50
     Davidson diagonalization with overlap
     ethr =  2.01E-06,  avg # of iterations = 10.0

     total cpu time spent up to now is        6.2 secs

     total energy              =    -502.48395692 Ry
     estimated scf accuracy    <       0.00159661 Ry

     iteration #  8     ecut=    30.00 Ry     beta= 0.50
     Davidson diagonalization with overlap
     ethr =  6.24E-07,  avg # of iterations =  9.0

     total cpu time spent up to now is        6.3 secs

     total energy              =    -502.48414749 Ry
     estimated scf accuracy    <       0.00015369 Ry

     iteration #  9     ecut=    30.00 Ry     beta= 0.50
     Davidson diagonalization with overlap
     ethr =  6.00E-08,  avg # of iterations = 15.0

     total cpu time spent up to now is        6.5 secs

     total energy              =    -502.48418567 Ry
     estimated scf accuracy    <       0.00012862 Ry

     iteration # 10     ecut=    30.00 Ry     beta= 0.50
     Davidson diagonalization with overlap
     ethr =  5.02E-08,  avg # of iterations =  8.0

     total cpu time spent up to now is        6.6 secs

     total energy              =    -502.48419168 Ry
     estimated scf accuracy    <       0.00004414 Ry

     iteration # 11     ecut=    30.00 Ry     beta= 0.50
     Davidson diagonalization with overlap
     ethr =  1.72E-08,  avg # of iterations =  8.0

     total cpu time spent up to now is        6.7 secs

     total energy              =    -502.48419725 Ry
     estimated scf accuracy    <       0.00000291 Ry

     iteration # 12     ecut=    30.00 Ry     beta= 0.50
     Davidson diagonalization with overlap
     ethr =  1.14E-09,  avg # of iterations = 12.0

     total cpu time spent up to now is        6.9 secs

     total energy              =    -502.48419844 Ry
     estimated scf accuracy    <       0.00000641 Ry

     iteration # 13     ecut=    30.00 Ry     beta= 0.50
     Davidson diagonalization with overlap
     ethr =  1.14E-09,  avg # of iterations = 11.0

     total cpu time spent up to now is        7.1 secs

     total energy              =    -502.48419858 Ry
     estimated scf accuracy    <       0.00000175 Ry

     iteration # 14     ecut=    30.00 Ry     beta= 0.50
     Davidson diagonalization with overlap
     ethr =  6.86E-10,  avg # of iterations =  9.0

     total cpu time spent up to now is        7.2 secs

     End of self-consistent calculation

          k = 0.0000 0.0000 0.0000 ( 12481 PWs)   bands (ev):

    -6.1523  -5.3489  -5.3098  -5.1730  -5.0578  -4.9901  -4.8530  -4.5968
    -4.4554  -4.3562  -4.2908  -4.2373  -4.1340  -4.0351  -3.9512  -3.8856
    -3.8347  -3.7799  -3.7419  -3.6850  -3.5889  -3.4936  -3.4005  -2.6063
    -2.3896  -2.3187  -2.2601  -2.1771  -2.1367  -2.0245  -1.9474  -1.8790
    -1.8268  -1.6650  -1.6408  -1.5846  -1.5286  -1.5000  -1.3753  -1.3387
    -1.2913  -1.1611  -1.0526  -0.8633  -0.5942  -0.0560  -0.0236   0.2147
     0.2593   0.2986   0.3689   0.3936   0.4585   0.4722   0.5867   0.6874
     0.7917   1.5535   1.5802   1.6397   1.6890   1.7854   1.7956   1.8238
     1.8970   1.9341   1.9817   2.0302   2.0351   2.0524   2.1088   2.1489
     2.2165   2.2530   2.2896   2.3024   2.3355   2.3719   2.3939   2.4072
     2.5242   2.5506   2.5733   2.6307   2.6625   2.7790   2.8291   2.9438
     2.9591   2.9822   3.0541   3.1537   3.3506   3.6092   3.6573   3.6731
     3.7305   3.8119   3.8276   3.9012   3.9585   3.9956   4.0571   4.1091
     4.1561   4.2720   4.3084   4.3508   4.4107   4.5097   4.5567   4.5772
     4.6044   4.6665   4.7102   4.7913   4.8252   4.9014   4.9828   5.0333
     5.0546   5.1370   5.2703   5.3458   5.4164   5.8744   5.9211   6.0728

     highest occupied level (ev):     6.0728

!    total energy              =    -502.48419867 Ry
     estimated scf accuracy    <       0.00000018 Ry

     The total energy is the sum of the following terms:
     one-electron contribution =     133.92757034 Ry
     hartree contribution      =      40.72069746 Ry
     xc contribution           =    -153.07136276 Ry
     ewald contribution        =    -524.06110371 Ry

     convergence has been achieved in  14 iterations

     Forces acting on atoms (cartesian axes, Ry/au):

     atom    1 type  1   force =     0.03470966    0.08579242   -0.12894842
     atom    2 type  1   force =     0.08721269    0.12908076   -0.04211039
     atom    3 type  1   force =    -0.07169271    0.12004558   -0.02314813
     atom    4 type  1   force =    -0.02484176    0.02636127    0.02241623
     atom    5 type  1   force =     0.08788084   -0.03422159   -0.00205689
     atom    6 type  1   force =    -0.03145156    0.06527033    0.07503459
     atom    7 type  1   force =    -0.05061740   -0.05261927    0.04179392
     atom    8 type  1   force =     0.01067211   -0.04603060   -0.02767676
     atom    9 type  1   force =    -0.17075572    0.19410228    0.15785841
     atom   10 type  1   force =     0.03835166   -0.00300374   -0.01581757
     atom   11 type  1   force =     0.04368589   -0.04464662    0.04041272
     atom   12 type  1   force =    -0.02359177   -0.09933794   -0.00333529
     atom   13 type  1   force =    -0.16316310   -0.14006134    0.09835139
     atom   14 type  1   force =     0.01711973    0.03943861   -0.05089917
     atom   15 type  1   force =    -0.07929289    0.05912824    0.02764451
     atom   16 type  1   force =    -0.05326994   -0.05822472    0.05190134
     atom   17 type  1   force =     0.01905287   -0.03597666   -0.06996810
     atom   18 type  1   force =     0.04451934    0.16544115   -0.05464836
     atom   19 type  1   force =     0.05755429    0.07132816   -0.02473442
     atom   20 type  1   force =     0.15285855    0.15382362   -0.15068725
     atom   21 type  1   force =     0.04744038   -0.07177445   -0.14570275
     atom   22 type  1   force =     0.00382611   -0.07573931    0.05155487
     atom   23 type  1   force =     0.05989286    0.06818921   -0.10245793
     atom   24 type  1   force =     0.06018849   -0.24558736   -0.08229519
     atom   25 type  1   force =     0.10133955    0.12799112   -0.09065957
     atom   26 type  1   force =     0.09806803   -0.10946666    0.14831353
     atom   27 type  1   force =     0.05044805    0.00164990   -0.04054048
     atom   28 type  1   force =    -0.00959814    0.13719289   -0.06496288
     atom   29 type  1   force =    -0.06335665   -0.08284494    0.03992827
     atom   30 type  1   force =     0.08610113    0.11304611    0.12961041
     atom   31 type  1   force =    -0.11342349   -0.07787425    0.11583712
     atom   32 type  1   force =     0.01840260    0.00013253   -0.05219820
     atom   33 type  1   force =    -0.08941643    0.12029570   -0.15570502
     atom   34 type  1   force =     0.08865397    0.06114841   -0.02576294
     atom   35 type  1   force =    -0.02376346   -0.04854290    0.03771837
     atom   36 type  1   force =    -0.09951295   -0.08461363    0.13470862
     atom   37 type  1   force =     0.09391647    0.01795258    0.04051383
     atom   38 type  1   force =    -0.08503052    0.06443081   -0.06600253
     atom   39 type  1   force =    -0.02296410    0.03482008   -0.02649613
     atom   40 type  1   force =    -0.11851314    0.04537679   -0.12104365
     atom   41 type  1   force =    -0.07584944   -0.01433148   -0.00309365
     atom   42 type  1   force =    -0.10118117   -0.07879311    0.08852714
     atom   43 type  1   force =    -0.07110813   -0.10069907    0.00247260
     atom   44 type  1   force =     0.06702451    0.02922682    0.01595833
     atom   45 type  1   force =     0.03423704   -0.06825195   -0.08728667
     atom   46 type  1   force =    -0.00905757   -0.03527598   -0.03875772
     atom   47 type  1   force =     0.07144799    0.00818715    0.00649390
     atom   48 type  1   force =     0.04525384   -0.22772505   -0.02488109
     atom   49 type  1   force =    -0.01632657    0.02205955   -0.08296441
     atom   50 type  1   force =     0.04172521    0.04984753   -0.00627630
     atom   51 type  1   force =    -0.03855938    0.02965632   -0.05388915
     atom   52 type  1   force =     0.05302983   -0.13671109    0.03951188
     atom   53 type  1   force =    -0.12087387    0.20073024    0.07439508
     atom   54 type  1   force =    -0.05833638   -0.05673106    0.08368603
     atom   55 type  1   force =     0.10089729    0.07218468    0.04262661
     atom   56 type  1   force =    -0.04704036   -0.05457029   -0.05494748
     atom   57 type  1   force =     0.05325953   -0.00014447   -0.00259192
     atom   58 type  1   force =    -0.00068282   -0.02351806    0.12716433
     atom   59 type  1   force =     0.08447300   -0.15065799    0.07911240
     atom   60 type  1   force =    -0.03512683    0.02401253    0.06628916
     atom   61 type  1   force =     0.06419432    0.05724154   -0.00097393
     atom   62 type  1   force =    -0.02361061   -0.08420426    0.02633137
     atom   63 type  1   force =     0.00321011    0.06238095   -0.00284956
     atom   64 type  1   force =    -0.02863908   -0.11538606    0.06020292

     Total force =     1.118641     Total SCF correction =     0.000710


     Computing stress (Cartesian axis) and pressure

          total   stress  (Ry/bohr**3)                   (kbar)     P=       29.37
   0.00025897  -0.00002807  -0.00024061           38.10       -4.13      -35.39
  -0.00002807   0.00004556  -0.00014061           -4.13        6.70      -20.68
  -0.00024061  -0.00014061   0.00029446          -35.39      -20.68       43.32

 
     init_run     :      1.36s CPU      5.06s WALL (       1 calls)
     electrons    :      1.93s CPU      2.05s WALL (       1 calls)
     forces       :      0.04s CPU      0.05s WALL (       1 calls)
     stress       :      0.14s CPU      0.14s WALL (       1 calls)

     Called by init_run:
     wfcinit      :      0.72s CPU      4.24s WALL (       1 calls)
                                        4.24s GPU  (       1 calls)
     potinit      :      0.20s CPU      0.30s WALL (       1 calls)
     hinit0       :      0.41s CPU      0.44s WALL (       1 calls)

     Called by electrons:
     c_bands      :      1.33s CPU      1.38s WALL (      15 calls)
     sum_band     :      0.30s CPU      0.33s WALL (      15 calls)
     v_of_rho     :      0.15s CPU      0.26s WALL (      15 calls)
     mix_rho      :      0.14s CPU      0.15s WALL (      15 calls)

     Called by c_bands:
     init_us_2    :      0.06s CPU      0.06s WALL (      31 calls)
     init_us_2:gp :      0.06s CPU      0.06s WALL (      31 calls)
     regterg      :      1.19s CPU      1.24s WALL (      15 calls)

     Called by *egterg:
     rdiaghg      :      0.58s CPU      1.31s WALL (     149 calls)
                                        1.28s GPU  (     149 calls)
     h_psi        :      1.14s CPU      3.95s WALL (     151 calls)
                                        3.95s GPU  (     151 calls)
     g_psi        :      0.00s CPU      0.00s WALL (     135 calls)
                                        0.00s GPU  (     135 calls)

     Called by h_psi:
     h_psi:calbec :      0.68s CPU      3.42s WALL (     151 calls)
                                        3.42s GPU  (     151 calls)
     vloc_psi     :      0.36s CPU      0.44s WALL (     151 calls)
                                        0.43s GPU  (     151 calls)
     add_vuspsi   :      0.07s CPU      0.09s WALL (     151 calls)
                                        0.09s GPU  (     151 calls)

     General routines
     calbec       :      0.68s CPU      3.42s WALL (     156 calls)
     fft          :      0.50s CPU      0.63s WALL (     127 calls)
                                        0.13s GPU  (      81 calls)
     ffts         :      0.04s CPU      0.05s WALL (      15 calls)
     fftw         :      0.40s CPU      0.54s WALL (    1504 calls)
                                        0.48s GPU  (    1504 calls)
 
     Parallel routines
 
     PWSCF        :      3.53s CPU      7.38s WALL

 
   This run was terminated on:  15:49:12   8May2023            

=------------------------------------------------------------------------------=
   JOB DONE.
=------------------------------------------------------------------------------=
