An instance of this daemon is already running

     Program PWSCF v.7.1 starts on  8May2023 at 15:48:55 

     This program is part of the open-source Quantum ESPRESSO suite
     for quantum simulation of materials; please cite
         "P. Giannozzi et al., J. Phys.:Condens. Matter 21 395502 (2009);
         "P. Giannozzi et al., J. Phys.:Condens. Matter 29 465901 (2017);
         "P. Giannozzi et al., J. Chem. Phys. 152 154105 (2020);
          URL http://www.quantum-espresso.org", 
     in publications or presentations arising from this work. More details at
     http://www.quantum-espresso.org/quote

     Parallel version (MPI & OpenMP), running on       4 processor cores
     Number of MPI processes:                 4
     Threads/MPI process:                     1

     MPI processes distributed on     1 nodes
     615040 MiB available memory on the printing compute node when the environment starts
 
     Reading input from pw-si-83.in
Warning: card &CELL ignored
Warning: card / ignored

     Current dimensions of program PWSCF are:
     Max number of different atomic species (ntypx) = 10
     Max number of k-points (npk) =  40000
     Max angular momentum in pseudopotentials (lmaxx) =  4

     IMPORTANT: XC functional enforced from input :
     Exchange-correlation= PBE
                           (   1   4   3   4   0   0   0)
     Any further DFT definition will be discarded
     Please, verify this is what you really want


     gamma-point specific algorithms are used
 
     K-points division:     npool     =       2
     R & G space division:  proc/nbgrp/npool/nimage =       2
     Subspace diagonalization in iterative solution of the eigenvalue problem:
     a serial algorithm will be used

     Message from routine divide_et_impera:
     suboptimal parallelization: some nodes have no k-points
 
     Parallelization info
     --------------------
     sticks:   dense  smooth     PW     G-vecs:    dense   smooth      PW
     Min        1981    1981    521                96560    96560   13093
     Max        1984    1984    524                96565    96565   13096
     Sum        3965    3965   1045               193125   193125   26189
 
     Using Slab Decomposition
 


     bravais-lattice index     =            0
     lattice parameter (alat)  =      20.4615  a.u.
     unit-cell volume          =    8698.9129 (a.u.)^3
     number of atoms/cell      =           64
     number of atomic types    =            1
     number of electrons       =       256.00
     number of Kohn-Sham states=          128
     kinetic-energy cutoff     =      30.0000  Ry
     charge density cutoff     =     120.0000  Ry
     scf convergence threshold =      1.0E-06
     mixing beta               =       0.5000
     number of iterations used =            8  plain     mixing
     Exchange-correlation= PBE
                           (   1   4   3   4   0   0   0)

     GPU acceleration is ACTIVE.
     GPU-aware MPI enabled

     Message from routine print_cuda_info:
     High GPU oversubscription detected. Are you sure this is what you want?

     celldm(1)=  20.461522  celldm(2)=   0.000000  celldm(3)=   0.000000
     celldm(4)=   0.000000  celldm(5)=   0.000000  celldm(6)=   0.000000

     crystal axes: (cart. coord. in units of alat)
               a(1) = (   1.000000   0.000000   0.000000 )  
               a(2) = (   0.000000   0.990519   0.000000 )  
               a(3) = (   0.000000   0.000000   1.025153 )  

     reciprocal axes: (cart. coord. in units 2 pi/alat)
               b(1) = (  1.000000  0.000000  0.000000 )  
               b(2) = (  0.000000  1.009572  0.000000 )  
               b(3) = (  0.000000  0.000000  0.975465 )  


     PseudoPot. # 1 for Si read from file:
     /home/ppiaggi/pseudos/Si_ONCV_PBE_sr.upf
     MD5 check sum: 8553c464762ac42b85b1eed164b4d029
     Pseudo is Norm-conserving, Zval =  4.0
     Generated using ONCVPSP code by D. R. Hamann
     Using radial grid of 1510 points,  4 beta functions with: 
                l(1) =   0
                l(2) =   0
                l(3) =   1
                l(4) =   1

     atomic species   valence    mass     pseudopotential
        Si             4.00    28.08500     Si( 1.00)

     No symmetry found



   Cartesian axes

     site n.     atom                  positions (alat units)
         1           Si  tau(   1) = (   0.0084552  -0.0137246  -0.0179722  )
         2           Si  tau(   2) = (   0.0030350   0.2686918   0.2886040  )
         3           Si  tau(   3) = (   0.2549689   0.0074578   0.2754494  )
         4           Si  tau(   4) = (   0.2401258   0.2609661   0.0041840  )
         5           Si  tau(   5) = (   0.1195699   0.1423424   0.1248045  )
         6           Si  tau(   6) = (   0.4825929   0.0181820  -0.0038521  )
         7           Si  tau(   7) = (   0.4960545   0.2643218   0.2527649  )
         8           Si  tau(   8) = (   0.5953803   0.1083110   0.1328418  )
         9           Si  tau(   9) = (   0.7311738  -0.0099960   0.2557067  )
        10           Si  tau(  10) = (   0.7475834   0.2588052   0.0005816  )
        11           Si  tau(  11) = (   0.0117100   0.5101696   0.0184906  )
        12           Si  tau(  12) = (   0.2592734   0.5053994   0.2673524  )
        13           Si  tau(  13) = (   0.1123327   0.6421287   0.1165705  )
        14           Si  tau(  14) = (   0.3476053   0.3670671   0.1529666  )
        15           Si  tau(  15) = (   0.4752655   0.4936453   0.0003012  )
        16           Si  tau(  16) = (   0.6109401   0.6262900   0.1428335  )
        17           Si  tau(  17) = (   0.8617916   0.3722295   0.1210077  )
        18           Si  tau(  18) = (   0.7241333   0.5153187   0.2662512  )
        19           Si  tau(  19) = (   0.0171936   0.7417433   0.2763301  )
        20           Si  tau(  20) = (   0.2465124   0.7653194   0.0109932  )
        21           Si  tau(  21) = (   0.3804619   0.8823068   0.1158836  )
        22           Si  tau(  22) = (   0.4689250   0.7409278   0.2644074  )
        23           Si  tau(  23) = (   0.7321595   0.7572161  -0.0118234  )
        24           Si  tau(  24) = (   0.8567669   0.8797395   0.1319346  )
        25           Si  tau(  25) = (   0.0150450   0.0108120   0.5542898  )
        26           Si  tau(  26) = (   0.2450365   0.2682570   0.5410564  )
        27           Si  tau(  27) = (   0.1253818   0.1138163   0.6827254  )
        28           Si  tau(  28) = (   0.3810731   0.1411188   0.4124232  )
        29           Si  tau(  29) = (   0.4978740  -0.0082132   0.5467993  )
        30           Si  tau(  30) = (   0.6088125   0.1367121   0.6877748  )
        31           Si  tau(  31) = (   0.8392206   0.1282588   0.4081687  )
        32           Si  tau(  32) = (   0.7280112   0.2451480   0.5433224  )
        33           Si  tau(  33) = (   0.1278807   0.3782127   0.4078596  )
        34           Si  tau(  34) = (   0.0162737   0.4869087   0.5228661  )
        35           Si  tau(  35) = (   0.1321862   0.6443178   0.6640327  )
        36           Si  tau(  36) = (   0.6000007   0.3913528   0.4198055  )
        37           Si  tau(  37) = (   0.3734369   0.6124743   0.3893393  )
        38           Si  tau(  38) = (   0.3787631   0.3898604   0.6817862  )
        39           Si  tau(  39) = (   0.4971059   0.4907563   0.5509902  )
        40           Si  tau(  40) = (   0.6129838   0.6272534   0.6541343  )
        41           Si  tau(  41) = (   0.8355749   0.6270833   0.4218286  )
        42           Si  tau(  42) = (   0.8665738   0.3615708   0.6579363  )
        43           Si  tau(  43) = (   0.1075712   0.8856650   0.4175492  )
        44           Si  tau(  44) = (   0.2538648   0.7482481   0.5192876  )
        45           Si  tau(  45) = (   0.6237819   0.8746654   0.4015470  )
        46           Si  tau(  46) = (   0.3715351   0.8791206   0.6787423  )
        47           Si  tau(  47) = (   0.7283456   0.7435758   0.5216174  )
        48           Si  tau(  48) = (   0.8418072   0.8712975   0.6831745  )
        49           Si  tau(  49) = (   0.0160446   0.2411403   0.8220262  )
        50           Si  tau(  50) = (   0.2543344  -0.0166753   0.8067436  )
        51           Si  tau(  51) = (   0.3646148   0.1387622   0.9523354  )
        52           Si  tau(  52) = (   0.4879177   0.2522178   0.8197638  )
        53           Si  tau(  53) = (   0.7420435  -0.0027228   0.8240490  )
        54           Si  tau(  54) = (   0.8521971   0.1422640   0.9405429  )
        55           Si  tau(  55) = (   0.1137310   0.3873524   0.9508487  )
        56           Si  tau(  56) = (   0.2326297   0.5202935   0.8153977  )
        57           Si  tau(  57) = (   0.5932724   0.3833842   0.9414220  )
        58           Si  tau(  58) = (   0.3743734   0.6286885   0.9342197  )
        59           Si  tau(  59) = (   0.7163466   0.5200611   0.8204804  )
        60           Si  tau(  60) = (   0.8616587   0.6396439   0.9244722  )
        61           Si  tau(  61) = (   0.0050440   0.7420548   0.8256464  )
        62           Si  tau(  62) = (   0.1232552   0.8717432   0.9505863  )
        63           Si  tau(  63) = (   0.4808343   0.7371433   0.8101987  )
        64           Si  tau(  64) = (   0.6101506   0.8786256   0.9315806  )

     number of k points=     1
                       cart. coord. in units 2pi/alat
        k(    1) = (   0.0000000   0.0000000   0.0000000), wk =   2.0000000

     Dense  grid:    96563 G-vectors     FFT dimensions: (  72,  72,  75)

     Estimated max dynamical RAM per process >     141.92 MB

     Estimated total dynamical RAM >     544.11 MB

     Initial potential from superposition of free atoms

     starting charge     255.9608, renormalised to     256.0000
     Starting wfcs are  256 randomized atomic wfcs

     total cpu time spent up to now is        5.1 secs

     Self-consistent Calculation

     iteration #  1     ecut=    30.00 Ry     beta= 0.50
     Davidson diagonalization with overlap
     ethr =  1.00E-02,  avg # of iterations =  3.0

     Threshold (ethr) on eigenvalues was too large:
     Diagonalizing with lowered threshold

     Davidson diagonalization with overlap
     ethr =  7.70E-04,  avg # of iterations =  3.0

     total cpu time spent up to now is        5.3 secs

     total energy              =    -501.43744393 Ry
     estimated scf accuracy    <       2.30022397 Ry

     iteration #  2     ecut=    30.00 Ry     beta= 0.50
     Davidson diagonalization with overlap
     ethr =  8.99E-04,  avg # of iterations = 11.0

     total cpu time spent up to now is        5.5 secs

     total energy              =    -501.28700911 Ry
     estimated scf accuracy    <       1.53314732 Ry

     iteration #  3     ecut=    30.00 Ry     beta= 0.50
     Davidson diagonalization with overlap
     ethr =  5.99E-04,  avg # of iterations = 10.0

     total cpu time spent up to now is        5.6 secs

     total energy              =    -501.40896625 Ry
     estimated scf accuracy    <       2.18615143 Ry

     iteration #  4     ecut=    30.00 Ry     beta= 0.50
     Davidson diagonalization with overlap
     ethr =  5.99E-04,  avg # of iterations =  6.0

     total cpu time spent up to now is        5.7 secs

     total energy              =    -501.65794522 Ry
     estimated scf accuracy    <       0.09441718 Ry

     iteration #  5     ecut=    30.00 Ry     beta= 0.50
     Davidson diagonalization with overlap
     ethr =  3.69E-05,  avg # of iterations = 17.0

     total cpu time spent up to now is        5.9 secs

     total energy              =    -501.69257183 Ry
     estimated scf accuracy    <       0.12275316 Ry

     iteration #  6     ecut=    30.00 Ry     beta= 0.50
     Davidson diagonalization with overlap
     ethr =  3.69E-05,  avg # of iterations =  8.0

     total cpu time spent up to now is        6.0 secs

     total energy              =    -501.69015174 Ry
     estimated scf accuracy    <       0.04150701 Ry

     iteration #  7     ecut=    30.00 Ry     beta= 0.50
     Davidson diagonalization with overlap
     ethr =  1.62E-05,  avg # of iterations = 14.0

     total cpu time spent up to now is        6.2 secs

     total energy              =    -501.69827709 Ry
     estimated scf accuracy    <       0.00903135 Ry

     iteration #  8     ecut=    30.00 Ry     beta= 0.50
     Davidson diagonalization with overlap
     ethr =  3.53E-06,  avg # of iterations =  9.0

     total cpu time spent up to now is        6.3 secs

     total energy              =    -501.69862828 Ry
     estimated scf accuracy    <       0.01031272 Ry

     iteration #  9     ecut=    30.00 Ry     beta= 0.50
     Davidson diagonalization with overlap
     ethr =  3.53E-06,  avg # of iterations =  3.0

     total cpu time spent up to now is        6.4 secs

     total energy              =    -501.69807112 Ry
     estimated scf accuracy    <       0.00448719 Ry

     iteration # 10     ecut=    30.00 Ry     beta= 0.50
     Davidson diagonalization with overlap
     ethr =  1.75E-06,  avg # of iterations =  8.0

     total cpu time spent up to now is        6.5 secs

     total energy              =    -501.69888393 Ry
     estimated scf accuracy    <       0.00041809 Ry

     iteration # 11     ecut=    30.00 Ry     beta= 0.50
     Davidson diagonalization with overlap
     ethr =  1.63E-07,  avg # of iterations = 14.0

     total cpu time spent up to now is        6.7 secs

     total energy              =    -501.69890122 Ry
     estimated scf accuracy    <       0.00076978 Ry

     iteration # 12     ecut=    30.00 Ry     beta= 0.50
     Davidson diagonalization with overlap
     ethr =  1.63E-07,  avg # of iterations =  3.0

     total cpu time spent up to now is        6.8 secs

     total energy              =    -501.69888187 Ry
     estimated scf accuracy    <       0.00028239 Ry

     iteration # 13     ecut=    30.00 Ry     beta= 0.50
     Davidson diagonalization with overlap
     ethr =  1.10E-07,  avg # of iterations = 18.0

     total cpu time spent up to now is        7.0 secs

     total energy              =    -501.69892661 Ry
     estimated scf accuracy    <       0.00002285 Ry

     iteration # 14     ecut=    30.00 Ry     beta= 0.50
     Davidson diagonalization with overlap
     ethr =  8.93E-09,  avg # of iterations = 10.0

     total cpu time spent up to now is        7.1 secs

     total energy              =    -501.69892998 Ry
     estimated scf accuracy    <       0.00002185 Ry

     iteration # 15     ecut=    30.00 Ry     beta= 0.50
     Davidson diagonalization with overlap
     ethr =  8.54E-09,  avg # of iterations = 14.0

     total cpu time spent up to now is        7.2 secs

     total energy              =    -501.69893052 Ry
     estimated scf accuracy    <       0.00000688 Ry

     iteration # 16     ecut=    30.00 Ry     beta= 0.50
     Davidson diagonalization with overlap
     ethr =  2.69E-09,  avg # of iterations = 14.0

     total cpu time spent up to now is        7.4 secs

     End of self-consistent calculation

          k = 0.0000 0.0000 0.0000 ( 12067 PWs)   bands (ev):

    -6.3710  -5.5117  -5.3821  -5.2975  -5.0787  -5.0037  -4.7794  -4.6029
    -4.4927  -4.3556  -4.2232  -4.1266  -4.0343  -3.9768  -3.8060  -3.7171
    -3.6818  -3.6026  -3.4300  -3.3606  -3.3357  -3.2332  -2.7432  -2.6743
    -2.3661  -2.1967  -2.0507  -1.9694  -1.8647  -1.7871  -1.6577  -1.5936
    -1.5600  -1.5043  -1.4447  -1.3865  -1.3623  -1.2856  -1.2346  -1.1191
    -0.9514  -0.8834  -0.7509  -0.6080  -0.4354   0.1324   0.1385   0.2996
     0.4063   0.4391   0.4973   0.5287   0.6288   0.6826   0.7176   0.8542
     1.0000   1.5822   1.6692   1.7951   1.8286   1.8879   1.9402   1.9547
     2.0213   2.0790   2.1278   2.1590   2.1845   2.2907   2.3182   2.3708
     2.3758   2.4466   2.4652   2.5849   2.5980   2.6494   2.6740   2.7942
     2.8347   2.8438   2.9091   2.9478   3.0004   3.0352   3.1085   3.1374
     3.1809   3.2103   3.2597   3.3914   3.4854   3.5412   3.8311   4.0176
     4.0319   4.0926   4.1657   4.2251   4.2368   4.2986   4.4578   4.4772
     4.5536   4.5978   4.6291   4.6749   4.6935   4.7787   4.8341   4.8556
     4.9960   5.0517   5.0936   5.1503   5.2149   5.2781   5.3446   5.4333
     5.4759   5.6155   5.6575   5.7938   5.9707   6.0899   6.1361   6.3118

     highest occupied level (ev):     6.3118

!    total energy              =    -501.69893109 Ry
     estimated scf accuracy    <       0.00000093 Ry

     The total energy is the sum of the following terms:
     one-electron contribution =     127.36073262 Ry
     hartree contribution      =      46.67282910 Ry
     xc contribution           =    -154.02392963 Ry
     ewald contribution        =    -521.70856318 Ry

     convergence has been achieved in  16 iterations

     Forces acting on atoms (cartesian axes, Ry/au):

     atom    1 type  1   force =    -0.41381978    0.39199739    0.26690040
     atom    2 type  1   force =    -0.09674143   -0.09203523   -0.08021688
     atom    3 type  1   force =    -0.02126675    0.03110564   -0.00984182
     atom    4 type  1   force =    -0.01752474    0.03067852    0.11646357
     atom    5 type  1   force =    -0.03426132   -0.05442895    0.08081897
     atom    6 type  1   force =     0.11839539   -0.12995282    0.06143885
     atom    7 type  1   force =     0.02441096   -0.04772891    0.08128621
     atom    8 type  1   force =     0.08988743    0.10648724    0.05578594
     atom    9 type  1   force =    -0.00125326    0.07942533    0.04998944
     atom   10 type  1   force =    -0.22952758    0.10397290    0.14965086
     atom   11 type  1   force =    -0.23943512    0.03698924    0.04483864
     atom   12 type  1   force =    -0.14703043   -0.00282037   -0.01974718
     atom   13 type  1   force =     0.10174750    0.03608823    0.12839236
     atom   14 type  1   force =     0.04836297    0.00898733   -0.07525436
     atom   15 type  1   force =    -0.06918240    0.05565390    0.25423388
     atom   16 type  1   force =    -0.05441274    0.04651106   -0.07932865
     atom   17 type  1   force =     0.07139395    0.08429870    0.12172613
     atom   18 type  1   force =     0.06207529   -0.08051567    0.06392068
     atom   19 type  1   force =    -0.10491018    0.03659787    0.03135586
     atom   20 type  1   force =     0.12983015   -0.13968198    0.08980579
     atom   21 type  1   force =    -0.05623249   -0.02257905    0.13270036
     atom   22 type  1   force =     0.09914118    0.07200137   -0.02765213
     atom   23 type  1   force =     0.03129432   -0.04564268    0.19134211
     atom   24 type  1   force =     0.09640136   -0.06841096   -0.03355920
     atom   25 type  1   force =    -0.17390346   -0.02009701   -0.02359348
     atom   26 type  1   force =     0.04622226   -0.06526963    0.05182701
     atom   27 type  1   force =     0.07553717    0.08269934    0.03895237
     atom   28 type  1   force =    -0.02196639   -0.01662642   -0.00455840
     atom   29 type  1   force =     0.02010203    0.07639643   -0.02612194
     atom   30 type  1   force =     0.02229064   -0.05818208   -0.01151342
     atom   31 type  1   force =     0.08702117   -0.00771733   -0.03471737
     atom   32 type  1   force =    -0.01873244    0.02656016   -0.00626352
     atom   33 type  1   force =     0.08997170    0.00575267   -0.07547245
     atom   34 type  1   force =    -0.14813174    0.11266317    0.11918194
     atom   35 type  1   force =    -0.04646428   -0.04286515    0.00278800
     atom   36 type  1   force =     0.09878844   -0.09121124   -0.13237093
     atom   37 type  1   force =     0.01196120    0.02769469    0.12554763
     atom   38 type  1   force =    -0.09594587   -0.03765983    0.04840776
     atom   39 type  1   force =    -0.05886135    0.09154902   -0.00799670
     atom   40 type  1   force =    -0.01214093    0.01290882    0.07589034
     atom   41 type  1   force =     0.19134109   -0.13882091   -0.13178393
     atom   42 type  1   force =     0.04794706    0.04482580    0.05121832
     atom   43 type  1   force =     0.08418139   -0.05121410   -0.07759169
     atom   44 type  1   force =    -0.00079694    0.02420236    0.02530091
     atom   45 type  1   force =    -0.08571872   -0.02337542   -0.01827937
     atom   46 type  1   force =     0.02934006   -0.10658441   -0.06924607
     atom   47 type  1   force =    -0.03775160    0.11721274    0.13779635
     atom   48 type  1   force =     0.09205753   -0.02392866   -0.04249572
     atom   49 type  1   force =    -0.06983149    0.02036025   -0.03955540
     atom   50 type  1   force =    -0.05408651    0.10422804    0.05937827
     atom   51 type  1   force =    -0.08487366    0.03292410   -0.21611757
     atom   52 type  1   force =    -0.01913379    0.00018940   -0.05508442
     atom   53 type  1   force =    -0.00026273    0.08151615   -0.06856477
     atom   54 type  1   force =     0.20932740   -0.20806059   -0.16680784
     atom   55 type  1   force =     0.05704040   -0.05223234   -0.20763331
     atom   56 type  1   force =     0.02165405   -0.03692869   -0.04691135
     atom   57 type  1   force =     0.18605334   -0.10760770   -0.12530638
     atom   58 type  1   force =    -0.13578253    0.03395708   -0.02013280
     atom   59 type  1   force =     0.03200479   -0.04134270   -0.07354877
     atom   60 type  1   force =     0.04336421   -0.10813938   -0.00835332
     atom   61 type  1   force =     0.00663087    0.03681583   -0.11939267
     atom   62 type  1   force =     0.22606307   -0.20815984   -0.32071639
     atom   63 type  1   force =     0.09930254    0.07663074   -0.11076747
     atom   64 type  1   force =    -0.10116027   -0.00006145   -0.09044131

     Total force =     1.421620     Total SCF correction =     0.001807


     Computing stress (Cartesian axis) and pressure

          total   stress  (Ry/bohr**3)                   (kbar)     P=       73.80
   0.00062503  -0.00041951  -0.00019995           91.94      -61.71      -29.41
  -0.00041951   0.00065472   0.00026415          -61.71       96.31       38.86
  -0.00019995   0.00026415   0.00022537          -29.41       38.86       33.15

 
     init_run     :      1.36s CPU      5.02s WALL (       1 calls)
     electrons    :      2.16s CPU      2.29s WALL (       1 calls)
     forces       :      0.04s CPU      0.04s WALL (       1 calls)
     stress       :      0.14s CPU      0.14s WALL (       1 calls)

     Called by init_run:
     wfcinit      :      0.70s CPU      4.19s WALL (       1 calls)
                                        4.19s GPU  (       1 calls)
     potinit      :      0.20s CPU      0.29s WALL (       1 calls)
     hinit0       :      0.43s CPU      0.46s WALL (       1 calls)

     Called by electrons:
     c_bands      :      1.50s CPU      1.55s WALL (      17 calls)
     sum_band     :      0.33s CPU      0.37s WALL (      17 calls)
     v_of_rho     :      0.17s CPU      0.27s WALL (      17 calls)
     mix_rho      :      0.15s CPU      0.17s WALL (      17 calls)

     Called by c_bands:
     init_us_2    :      0.06s CPU      0.07s WALL (      35 calls)
     init_us_2:gp :      0.06s CPU      0.06s WALL (      35 calls)
     regterg      :      1.35s CPU      1.39s WALL (      17 calls)

     Called by *egterg:
     rdiaghg      :      0.67s CPU      1.40s WALL (     181 calls)
                                        1.37s GPU  (     181 calls)
     h_psi        :      1.15s CPU      3.95s WALL (     183 calls)
                                        3.94s GPU  (     183 calls)
     g_psi        :      0.00s CPU      0.00s WALL (     165 calls)
                                        0.00s GPU  (     165 calls)

     Called by h_psi:
     h_psi:calbec :      0.67s CPU      3.39s WALL (     183 calls)
                                        3.39s GPU  (     183 calls)
     vloc_psi     :      0.37s CPU      0.44s WALL (     183 calls)
                                        0.44s GPU  (     183 calls)
     add_vuspsi   :      0.08s CPU      0.10s WALL (     183 calls)
                                        0.10s GPU  (     183 calls)

     General routines
     calbec       :      0.67s CPU      3.39s WALL (     188 calls)
     fft          :      0.53s CPU      0.66s WALL (     143 calls)
                                        0.13s GPU  (      91 calls)
     ffts         :      0.05s CPU      0.05s WALL (      17 calls)
     fftw         :      0.42s CPU      0.56s WALL (    1716 calls)
                                        0.49s GPU  (    1716 calls)
 
     Parallel routines
 
     PWSCF        :      3.74s CPU      7.59s WALL

 
   This run was terminated on:  15:49: 2   8May2023            

=------------------------------------------------------------------------------=
   JOB DONE.
=------------------------------------------------------------------------------=
