10.96274408774164 0.0 0.0 0.0 11.115422224651619 0.0 0.0 0.0 10.658506013818634
11.058070599231655 0.0 0.0 0.0 10.741035715151684 0.0 0.0 0.0 10.960361487416845
11.12277150896542 0.0 0.0 0.0 10.783282276968777 0.0 0.0 0.0 11.141680220530661
11.022388180072376 0.0 0.0 0.0 11.075075195573122 0.0 0.0 0.0 11.084708762842507
10.725729320360548 0.0 0.0 0.0 11.179770893950051 0.0 0.0 0.0 11.094201025432215
11.100729690705869 0.0 0.0 0.0 10.887606781374007 0.0 0.0 0.0 10.798601130713926
11.053949896310206 0.0 0.0 0.0 11.140789726695619 0.0 0.0 0.0 10.998801740277514
11.271666100079853 0.0 0.0 0.0 10.66550971221586 0.0 0.0 0.0 10.865378895502475
11.20130934434321 0.0 0.0 0.0 11.15305410368778 0.0 0.0 0.0 10.757233435386723
11.146960728336468 0.0 0.0 0.0 11.18876183106773 0.0 0.0 0.0 10.85734039469283
11.121017815696936 0.0 0.0 0.0 10.755937042843238 0.0 0.0 0.0 11.137198896618775
10.878856799964604 0.0 0.0 0.0 10.9417801076956 0.0 0.0 0.0 11.07082510705678
10.929952034494388 0.0 0.0 0.0 11.229727828944467 0.0 0.0 0.0 11.028015564147871
10.785684568889796 0.0 0.0 0.0 11.252391925870226 0.0 0.0 0.0 11.265032748184964
10.784428302197163 0.0 0.0 0.0 10.818075718500019 0.0 0.0 0.0 11.12220738105028
10.808998529158227 0.0 0.0 0.0 10.839350197028104 0.0 0.0 0.0 11.292009437432192
10.853817192819731 0.0 0.0 0.0 10.899262125406066 0.0 0.0 0.0 11.067724222055823
11.062318833860317 0.0 0.0 0.0 10.85519903833395 0.0 0.0 0.0 10.69799242538596
11.305917624067746 0.0 0.0 0.0 10.970211012056303 0.0 0.0 0.0 11.04155135226417
11.248958576892194 0.0 0.0 0.0 10.703665309877344 0.0 0.0 0.0 10.876944267795793
11.063054390179929 0.0 0.0 0.0 10.881454352365125 0.0 0.0 0.0 10.955421934017869
11.24779068279336 0.0 0.0 0.0 11.234563280950395 0.0 0.0 0.0 11.126202065512365
10.92218688813901 0.0 0.0 0.0 11.30214792560359 0.0 0.0 0.0 10.688899898395247
10.880457031842665 0.0 0.0 0.0 11.08568421237728 0.0 0.0 0.0 11.269237522504469
11.266224041669147 0.0 0.0 0.0 11.181310511067087 0.0 0.0 0.0 11.242125588444017
11.052225836965391 0.0 0.0 0.0 11.090952836298117 0.0 0.0 0.0 11.304758145114212
11.075708075586078 0.0 0.0 0.0 11.0737476752567 0.0 0.0 0.0 11.265889058951968
10.840290894197006 0.0 0.0 0.0 10.866535238451856 0.0 0.0 0.0 11.032716897859897
11.011669695717176 0.0 0.0 0.0 11.175578399137926 0.0 0.0 0.0 11.226121963041267
10.803815238402406 0.0 0.0 0.0 10.755738260591515 0.0 0.0 0.0 11.103642718898548
11.172711549649367 0.0 0.0 0.0 10.912621997485079 0.0 0.0 0.0 11.020628600035542
11.173493673563314 0.0 0.0 0.0 10.796656425928717 0.0 0.0 0.0 11.106799089825815
11.051183887042143 0.0 0.0 0.0 11.096891583598948 0.0 0.0 0.0 10.840183633086847
10.737741642990173 0.0 0.0 0.0 11.242361811502494 0.0 0.0 0.0 11.108698403530555
10.916225706886905 0.0 0.0 0.0 10.69340370775793 0.0 0.0 0.0 10.828262760140811
10.903079886676988 0.0 0.0 0.0 10.971398585246908 0.0 0.0 0.0 11.068283353119918
11.223372329691093 0.0 0.0 0.0 10.662495520887111 0.0 0.0 0.0 10.702237482306547
10.99303630785663 0.0 0.0 0.0 10.804516728213198 0.0 0.0 0.0 11.140881653160996
11.27796648392251 0.0 0.0 0.0 11.157833584935767 0.0 0.0 0.0 10.773390263431818
11.303006091067385 0.0 0.0 0.0 11.162498422349326 0.0 0.0 0.0 11.291499630866678
11.271334305970216 0.0 0.0 0.0 11.201643645956402 0.0 0.0 0.0 10.892031363905707
11.136603142837362 0.0 0.0 0.0 10.703055182486704 0.0 0.0 0.0 10.783673052637702
10.672982523763492 0.0 0.0 0.0 10.781772234628212 0.0 0.0 0.0 11.308964206389511
10.973099027354703 0.0 0.0 0.0 10.885391046829056 0.0 0.0 0.0 11.243871218953707
10.863786362247904 0.0 0.0 0.0 11.199966231227664 0.0 0.0 0.0 10.813465303817972
10.655301125700776 0.0 0.0 0.0 11.176835494599326 0.0 0.0 0.0 11.037528087681913
11.2159358023821 0.0 0.0 0.0 11.29847387395183 0.0 0.0 0.0 11.185013467374933
10.85028493495397 0.0 0.0 0.0 10.689483712217951 0.0 0.0 0.0 10.815781028860817
11.041701560645656 0.0 0.0 0.0 11.192906621817139 0.0 0.0 0.0 11.054907435712188
10.84165828810339 0.0 0.0 0.0 11.127108309170865 0.0 0.0 0.0 10.751618316020693
10.917798421550133 0.0 0.0 0.0 11.169377250577911 0.0 0.0 0.0 11.189968218400956
11.275220054211157 0.0 0.0 0.0 10.668861270135789 0.0 0.0 0.0 10.965602511522519
10.736272117882574 0.0 0.0 0.0 11.306475530063318 0.0 0.0 0.0 10.74106049524715
10.697854910910525 0.0 0.0 0.0 10.837633083176483 0.0 0.0 0.0 10.675100573515019
11.209145929621716 0.0 0.0 0.0 10.673102152975346 0.0 0.0 0.0 10.752193886654757
10.703794395897084 0.0 0.0 0.0 10.954359518910639 0.0 0.0 0.0 10.873470944660845
11.214260427340452 0.0 0.0 0.0 10.952261660976497 0.0 0.0 0.0 10.668653014769058
11.24958723941572 0.0 0.0 0.0 11.290456989856516 0.0 0.0 0.0 11.285315928488105
10.874775785333782 0.0 0.0 0.0 10.988754310339864 0.0 0.0 0.0 10.7538265290493
10.902634319467554 0.0 0.0 0.0 11.044859184165007 0.0 0.0 0.0 11.176617519915775
10.870611160704039 0.0 0.0 0.0 10.836140452713446 0.0 0.0 0.0 11.135712755080128
11.124330465021227 0.0 0.0 0.0 11.263106487572367 0.0 0.0 0.0 11.199542063295237
11.293238538155595 0.0 0.0 0.0 11.024188423222578 0.0 0.0 0.0 10.669512973693262
10.76548904991019 0.0 0.0 0.0 10.810682572941712 0.0 0.0 0.0 11.193449536111268
11.211703443069688 0.0 0.0 0.0 11.0722298522379 0.0 0.0 0.0 11.240102687890982
11.110775061652044 0.0 0.0 0.0 10.672577203995548 0.0 0.0 0.0 11.111575037456484
10.654016812616101 0.0 0.0 0.0 11.03229833356485 0.0 0.0 0.0 11.19818137533728
11.081546487725845 0.0 0.0 0.0 11.247160199984908 0.0 0.0 0.0 10.931845876223157
10.806916216843355 0.0 0.0 0.0 10.756415497362045 0.0 0.0 0.0 11.217470963921233
11.08122898140083 0.0 0.0 0.0 10.727449664940627 0.0 0.0 0.0 10.81922440336459
10.802664277974236 0.0 0.0 0.0 10.821093623232459 0.0 0.0 0.0 11.098614068533617
10.713016896284271 0.0 0.0 0.0 10.677953191982732 0.0 0.0 0.0 10.799535220738663
11.086431322536155 0.0 0.0 0.0 11.292516994390779 0.0 0.0 0.0 11.285942740616514
11.274690877002802 0.0 0.0 0.0 10.690729537719319 0.0 0.0 0.0 11.144118681956234
11.142405041749752 0.0 0.0 0.0 10.762426745016002 0.0 0.0 0.0 11.062447143170157
11.008710007590853 0.0 0.0 0.0 11.192093098897303 0.0 0.0 0.0 11.033369518007857
11.20067274416156 0.0 0.0 0.0 10.709982471912586 0.0 0.0 0.0 11.15357391527236
10.73886138196305 0.0 0.0 0.0 10.85484108488825 0.0 0.0 0.0 10.699020206235966
10.944806567910081 0.0 0.0 0.0 11.131940870608208 0.0 0.0 0.0 10.823089374068353
11.14337925699033 0.0 0.0 0.0 10.741459853949204 0.0 0.0 0.0 11.290215565459691
10.931747532762332 0.0 0.0 0.0 10.943794318543436 0.0 0.0 0.0 10.983564016067625
11.295333021546258 0.0 0.0 0.0 10.990776957286306 0.0 0.0 0.0 11.040284401919742
11.210911793965991 0.0 0.0 0.0 10.908732877471431 0.0 0.0 0.0 11.143556635907844
11.006752051919946 0.0 0.0 0.0 11.2406785532794 0.0 0.0 0.0 10.700247027530132
11.172720016484702 0.0 0.0 0.0 10.66864040750096 0.0 0.0 0.0 10.753050307225504
10.745715285165645 0.0 0.0 0.0 11.24007191685969 0.0 0.0 0.0 10.996821159949397
11.0690325051027 0.0 0.0 0.0 10.777916950218499 0.0 0.0 0.0 11.240657854094318
10.838898099784618 0.0 0.0 0.0 11.149020652215656 0.0 0.0 0.0 10.84028547874139
10.826510061337062 0.0 0.0 0.0 10.814059574766524 0.0 0.0 0.0 11.276503125526474
10.731905876736452 0.0 0.0 0.0 10.98738962803804 0.0 0.0 0.0 10.691543178734046
11.246547116353728 0.0 0.0 0.0 11.05626678569214 0.0 0.0 0.0 10.743736487875786
11.13500661519976 0.0 0.0 0.0 10.837278808322548 0.0 0.0 0.0 10.95581095374135
11.022129412417492 0.0 0.0 0.0 10.870145269949667 0.0 0.0 0.0 10.816302167770008
10.866120033736742 0.0 0.0 0.0 10.801977327177594 0.0 0.0 0.0 10.983604523541503
10.750276792701651 0.0 0.0 0.0 10.970044701174851 0.0 0.0 0.0 10.695181624139055
11.195385205495691 0.0 0.0 0.0 11.299491092521595 0.0 0.0 0.0 10.821862373499533
11.081538020890509 0.0 0.0 0.0 10.73236983939027 0.0 0.0 0.0 11.306570813480734
10.672956064903074 0.0 0.0 0.0 11.271612843539552 0.0 0.0 0.0 10.717099411187512
11.039899183074004 0.0 0.0 0.0 11.210564984545144 0.0 0.0 0.0 10.6966907972706
10.863186804470839 0.0 0.0 0.0 10.88233860280712 0.0 0.0 0.0 10.72367089634102
