An instance of this daemon is already running

     Program PWSCF v.7.1 starts on 10May2023 at 11:17:37 

     This program is part of the open-source Quantum ESPRESSO suite
     for quantum simulation of materials; please cite
         "P. Giannozzi et al., J. Phys.:Condens. Matter 21 395502 (2009);
         "P. Giannozzi et al., J. Phys.:Condens. Matter 29 465901 (2017);
         "P. Giannozzi et al., J. Chem. Phys. 152 154105 (2020);
          URL http://www.quantum-espresso.org", 
     in publications or presentations arising from this work. More details at
     http://www.quantum-espresso.org/quote

     Parallel version (MPI & OpenMP), running on       4 processor cores
     Number of MPI processes:                 4
     Threads/MPI process:                     1

     MPI processes distributed on     1 nodes
     753562 MiB available memory on the printing compute node when the environment starts
 
     Reading input from pw-si-45.in
Warning: card &CELL ignored
Warning: card / ignored

     Current dimensions of program PWSCF are:
     Max number of different atomic species (ntypx) = 10
     Max number of k-points (npk) =  40000
     Max angular momentum in pseudopotentials (lmaxx) =  4

     IMPORTANT: XC functional enforced from input :
     Exchange-correlation= PBE
                           (   1   4   3   4   0   0   0)
     Any further DFT definition will be discarded
     Please, verify this is what you really want


     gamma-point specific algorithms are used
 
     K-points division:     npool     =       2
     R & G space division:  proc/nbgrp/npool/nimage =       2
     Subspace diagonalization in iterative solution of the eigenvalue problem:
     a serial algorithm will be used

     Message from routine divide_et_impera:
     suboptimal parallelization: some nodes have no k-points
 
     Parallelization info
     --------------------
     sticks:   dense  smooth     PW     G-vecs:    dense   smooth      PW
     Min        2026    2026    534                98474    98474   13355
     Max        2029    2029    535                98477    98477   13358
     Sum        4055    4055   1069               196951   196951   26713
 
     Using Slab Decomposition
 


     bravais-lattice index     =            0
     lattice parameter (alat)  =      20.1356  a.u.
     unit-cell volume          =    8870.6023 (a.u.)^3
     number of atoms/cell      =           64
     number of atomic types    =            1
     number of electrons       =       256.00
     number of Kohn-Sham states=          154
     kinetic-energy cutoff     =      30.0000  Ry
     charge density cutoff     =     120.0000  Ry
     scf convergence threshold =      1.0E-06
     mixing beta               =       0.5000
     number of iterations used =            8  plain     mixing
     Exchange-correlation= PBE
                           (   1   4   3   4   0   0   0)

     GPU acceleration is ACTIVE.
     GPU-aware MPI enabled

     Message from routine print_cuda_info:
     High GPU oversubscription detected. Are you sure this is what you want?

     celldm(1)=  20.135601  celldm(2)=   0.000000  celldm(3)=   0.000000
     celldm(4)=   0.000000  celldm(5)=   0.000000  celldm(6)=   0.000000

     crystal axes: (cart. coord. in units of alat)
               a(1) = (   1.000000   0.000000   0.000000 )  
               a(2) = (   0.000000   1.048946   0.000000 )  
               a(3) = (   0.000000   0.000000   1.035872 )  

     reciprocal axes: (cart. coord. in units 2 pi/alat)
               b(1) = (  1.000000  0.000000  0.000000 )  
               b(2) = (  0.000000  0.953338  0.000000 )  
               b(3) = (  0.000000  0.000000  0.965370 )  


     PseudoPot. # 1 for Si read from file:
     /home/ppiaggi/pseudos/Si_ONCV_PBE_sr.upf
     MD5 check sum: 8553c464762ac42b85b1eed164b4d029
     Pseudo is Norm-conserving, Zval =  4.0
     Generated using ONCVPSP code by D. R. Hamann
     Using radial grid of 1510 points,  4 beta functions with: 
                l(1) =   0
                l(2) =   0
                l(3) =   1
                l(4) =   1

     atomic species   valence    mass     pseudopotential
        Si             4.00    28.08500     Si( 1.00)

     No symmetry found



   Cartesian axes

     site n.     atom                  positions (alat units)
         1           Si  tau(   1) = (  -0.0067780   0.0090316   0.0003499  )
         2           Si  tau(   2) = (   0.0007562   0.2555624   0.2719031  )
         3           Si  tau(   3) = (   0.2587991  -0.0074468   0.2583592  )
         4           Si  tau(   4) = (   0.2443332   0.2533763   0.0024498  )
         5           Si  tau(   5) = (   0.1308109   0.1231732   0.1318711  )
         6           Si  tau(   6) = (   0.4991243   0.0081388   0.0072322  )
         7           Si  tau(   7) = (   0.4970434   0.2539393   0.2539317  )
         8           Si  tau(   8) = (   0.6299288   0.1338291   0.1241103  )
         9           Si  tau(   9) = (   0.7662991  -0.0028196   0.2679126  )
        10           Si  tau(  10) = (   0.7570817   0.2479970  -0.0007585  )
        11           Si  tau(  11) = (  -0.0067408   0.5181334   0.0069400  )
        12           Si  tau(  12) = (   0.2474387   0.5157073   0.2562505  )
        13           Si  tau(  13) = (   0.1227977   0.6382055   0.1299748  )
        14           Si  tau(  14) = (   0.3828082   0.3946000   0.1313837  )
        15           Si  tau(  15) = (   0.5046918   0.5143837   0.0010142  )
        16           Si  tau(  16) = (   0.6382848   0.6467086   0.1368692  )
        17           Si  tau(  17) = (   0.8783206   0.3900622   0.1410286  )
        18           Si  tau(  18) = (   0.7495248   0.5208326   0.2663992  )
        19           Si  tau(  19) = (  -0.0049464   0.7662678   0.2693383  )
        20           Si  tau(  20) = (   0.2497166   0.7718184   0.0081191  )
        21           Si  tau(  21) = (   0.3853782   0.9028875   0.1370212  )
        22           Si  tau(  22) = (   0.5139242   0.7770478   0.2597406  )
        23           Si  tau(  23) = (   0.7490435   0.7780060  -0.0020962  )
        24           Si  tau(  24) = (   0.8835494   0.9053070   0.1392296  )
        25           Si  tau(  25) = (   0.0082628  -0.0035385   0.5220306  )
        26           Si  tau(  26) = (   0.2611555   0.2592867   0.5341923  )
        27           Si  tau(  27) = (   0.1176546   0.1350968   0.6565158  )
        28           Si  tau(  28) = (   0.3802511   0.1254777   0.3912846  )
        29           Si  tau(  29) = (   0.5105407  -0.0018834   0.5290851  )
        30           Si  tau(  30) = (   0.6324644   0.1369351   0.6613667  )
        31           Si  tau(  31) = (   0.8804416   0.1364721   0.4036881  )
        32           Si  tau(  32) = (   0.7603359   0.2577577   0.5321621  )
        33           Si  tau(  33) = (   0.1233294   0.3932257   0.3853613  )
        34           Si  tau(  34) = (   0.0032833   0.5096570   0.5280491  )
        35           Si  tau(  35) = (   0.1311988   0.6392362   0.6659888  )
        36           Si  tau(  36) = (   0.6328434   0.3877729   0.3892056  )
        37           Si  tau(  37) = (   0.3727335   0.6373593   0.3918939  )
        38           Si  tau(  38) = (   0.3816853   0.3815083   0.6560550  )
        39           Si  tau(  39) = (   0.5026606   0.5091985   0.5247493  )
        40           Si  tau(  40) = (   0.6405119   0.6470764   0.6486966  )
        41           Si  tau(  41) = (   0.8784009   0.6395697   0.3962721  )
        42           Si  tau(  42) = (   0.8890308   0.3865950   0.6488509  )
        43           Si  tau(  43) = (   0.1188159   0.8943417   0.3986625  )
        44           Si  tau(  44) = (   0.2485256   0.7763202   0.5305594  )
        45           Si  tau(  45) = (   0.6409123   0.9025465   0.3867676  )
        46           Si  tau(  46) = (   0.3720272   0.8939941   0.6581951  )
        47           Si  tau(  47) = (   0.7641169   0.7641687   0.5266877  )
        48           Si  tau(  48) = (   0.8913725   0.9080984   0.6506507  )
        49           Si  tau(  49) = (   0.0002631   0.2598102   0.7946143  )
        50           Si  tau(  50) = (   0.2592481   0.0036698   0.7934582  )
        51           Si  tau(  51) = (   0.3723629   0.1266383   0.9173106  )
        52           Si  tau(  52) = (   0.5088559   0.2656248   0.7848048  )
        53           Si  tau(  53) = (   0.7503018  -0.0093368   0.7945637  )
        54           Si  tau(  54) = (   0.8888167   0.1253761   0.9194206  )
        55           Si  tau(  55) = (   0.1256522   0.3905243   0.9117452  )
        56           Si  tau(  56) = (   0.2527435   0.5122227   0.7800685  )
        57           Si  tau(  57) = (   0.6268887   0.3763647   0.9165499  )
        58           Si  tau(  58) = (   0.3834842   0.6394520   0.9299829  )
        59           Si  tau(  59) = (   0.7613538   0.5121662   0.7941659  )
        60           Si  tau(  60) = (   0.8807702   0.6494442   0.9283503  )
        61           Si  tau(  61) = (  -0.0028282   0.7656267   0.7944692  )
        62           Si  tau(  62) = (   0.1237991   0.9008857   0.9265308  )
        63           Si  tau(  63) = (   0.5080539   0.7654143   0.7830389  )
        64           Si  tau(  64) = (   0.6330642   0.8945044   0.9141032  )

     number of k points=     1  Fermi-Dirac smearing, width (Ry)=  0.0100
                       cart. coord. in units 2pi/alat
        k(    1) = (   0.0000000   0.0000000   0.0000000), wk =   2.0000000

     Dense  grid:    98476 G-vectors     FFT dimensions: (  72,  75,  75)

     Estimated max dynamical RAM per process >     157.95 MB

     Estimated total dynamical RAM >     607.76 MB

     Initial potential from superposition of free atoms

     starting charge     255.9608, renormalised to     256.0000
     Starting wfcs are  256 randomized atomic wfcs

     total cpu time spent up to now is        5.0 secs

     Self-consistent Calculation

     iteration #  1     ecut=    30.00 Ry     beta= 0.50
     Davidson diagonalization with overlap
     ethr =  1.00E-02,  avg # of iterations =  3.0

     Threshold (ethr) on eigenvalues was too large:
     Diagonalizing with lowered threshold

     Davidson diagonalization with overlap
     ethr =  6.58E-04,  avg # of iterations =  4.0

     total cpu time spent up to now is        5.3 secs

     total energy              =    -503.49800082 Ry
     estimated scf accuracy    <       1.86655819 Ry

     iteration #  2     ecut=    30.00 Ry     beta= 0.50
     Davidson diagonalization with overlap
     ethr =  7.29E-04,  avg # of iterations =  1.0

     total cpu time spent up to now is        5.4 secs

     total energy              =    -503.48808828 Ry
     estimated scf accuracy    <       0.35292458 Ry

     iteration #  3     ecut=    30.00 Ry     beta= 0.50
     Davidson diagonalization with overlap
     ethr =  1.38E-04,  avg # of iterations = 16.0

     total cpu time spent up to now is        5.6 secs

     total energy              =    -503.47527934 Ry
     estimated scf accuracy    <       0.27875145 Ry

     iteration #  4     ecut=    30.00 Ry     beta= 0.50
     Davidson diagonalization with overlap
     ethr =  1.09E-04,  avg # of iterations =  3.0

     total cpu time spent up to now is        5.8 secs

     total energy              =    -503.52358073 Ry
     estimated scf accuracy    <       0.02236180 Ry

     iteration #  5     ecut=    30.00 Ry     beta= 0.50
     Davidson diagonalization with overlap
     c_bands:  1 eigenvalues not converged
     ethr =  8.74E-06,  avg # of iterations = 20.0

     total cpu time spent up to now is        6.0 secs

     total energy              =    -503.52571369 Ry
     estimated scf accuracy    <       0.00547168 Ry

     iteration #  6     ecut=    30.00 Ry     beta= 0.50
     Davidson diagonalization with overlap
     ethr =  2.14E-06,  avg # of iterations =  8.0

     total cpu time spent up to now is        6.2 secs

     total energy              =    -503.52660391 Ry
     estimated scf accuracy    <       0.00137424 Ry

     iteration #  7     ecut=    30.00 Ry     beta= 0.50
     Davidson diagonalization with overlap
     ethr =  5.37E-07,  avg # of iterations =  4.0

     total cpu time spent up to now is        6.3 secs

     total energy              =    -503.52683633 Ry
     estimated scf accuracy    <       0.00049530 Ry

     iteration #  8     ecut=    30.00 Ry     beta= 0.50
     Davidson diagonalization with overlap
     ethr =  1.93E-07,  avg # of iterations =  3.0

     total cpu time spent up to now is        6.4 secs

     total energy              =    -503.52689357 Ry
     estimated scf accuracy    <       0.00003523 Ry

     iteration #  9     ecut=    30.00 Ry     beta= 0.50
     Davidson diagonalization with overlap
     ethr =  1.38E-08,  avg # of iterations =  5.0

     total cpu time spent up to now is        6.5 secs

     total energy              =    -503.52690199 Ry
     estimated scf accuracy    <       0.00000919 Ry

     iteration # 10     ecut=    30.00 Ry     beta= 0.50
     Davidson diagonalization with overlap
     ethr =  3.59E-09,  avg # of iterations =  4.0

     total cpu time spent up to now is        6.7 secs

     total energy              =    -503.52690363 Ry
     estimated scf accuracy    <       0.00000343 Ry

     iteration # 11     ecut=    30.00 Ry     beta= 0.50
     Davidson diagonalization with overlap
     ethr =  1.34E-09,  avg # of iterations =  3.0

     total cpu time spent up to now is        6.8 secs

     End of self-consistent calculation

          k = 0.0000 0.0000 0.0000 ( 12322 PWs)   bands (ev):

    -5.9272  -5.0573  -4.9559  -4.8832  -4.8105  -4.7489  -4.6874  -4.2021
    -4.1203  -4.0582  -4.0174  -3.9635  -3.8940  -3.8566  -3.8109  -3.7914
    -3.7423  -3.6778  -3.6262  -3.5605  -3.5053  -3.4141  -3.2330  -2.1951
    -2.0125  -1.9798  -1.9630  -1.8682  -1.8173  -1.7354  -1.7176  -1.6940
    -1.6306  -1.6138  -1.5501  -1.5262  -1.5107  -1.4360  -1.4221  -1.3242
    -1.2793  -0.9838  -0.9254  -0.8389  -0.7570   0.3282   0.3576   0.3936
     0.4338   0.4933   0.5145   0.5412   0.5515   0.6100   0.6181   0.6742
     0.7867   1.9352   1.9770   1.9811   2.0098   2.0372   2.0498   2.0626
     2.0870   2.1135   2.1659   2.1734   2.1958   2.2119   2.2314   2.2922
     2.3103   2.3269   2.3369   2.3589   2.3902   2.4109   2.4448   2.4685
     2.4912   2.5210   2.5922   2.6173   2.7211   2.7951   2.8160   2.9834
     3.0378   3.2452   3.2851   3.3102   3.3460   3.8686   3.9438   3.9550
     3.9690   4.0546   4.0934   4.1607   4.1619   4.2157   4.2512   4.2580
     4.2946   4.3913   4.4547   4.4875   4.5523   4.5698   4.5957   4.6575
     4.6771   4.7076   4.7440   4.7807   4.7971   4.8556   4.8967   4.9316
     4.9835   5.0234   5.0854   5.1653   5.5879   5.9164   6.0432   6.2544
     6.3348   6.4238   6.6410   6.7533   6.7966   6.8140   6.8358   6.9295
     7.1377   7.1700   7.2200   7.2493   7.2574   7.2748   7.3754   7.3903
     7.9432   8.0623   8.0848   8.1206   8.2105   8.2994   8.3206   8.3514
     8.3706   8.4409

     the Fermi energy is     6.2597 ev

!    total energy              =    -503.52690396 Ry
     estimated scf accuracy    <       0.00000054 Ry
     smearing contrib. (-TS)   =      -0.06690285 Ry
     internal energy E=F+TS    =    -503.46000110 Ry

     The total energy is F=E-TS. E is the sum of the following terms:
     one-electron contribution =     141.76647525 Ry
     hartree contribution      =      38.37628312 Ry
     xc contribution           =    -153.43030736 Ry
     ewald contribution        =    -530.17245212 Ry

     convergence has been achieved in  11 iterations

     Forces acting on atoms (cartesian axes, Ry/au):

     atom    1 type  1   force =     0.10229465   -0.13767111    0.10994098
     atom    2 type  1   force =     0.02040537    0.00086619   -0.04334943
     atom    3 type  1   force =    -0.02396091   -0.03459370    0.03168106
     atom    4 type  1   force =     0.02870891    0.04622875    0.01935272
     atom    5 type  1   force =    -0.02981675    0.00158664    0.02735427
     atom    6 type  1   force =     0.02023633   -0.08614403   -0.00190878
     atom    7 type  1   force =     0.03384502    0.01979466    0.02892877
     atom    8 type  1   force =     0.00935417   -0.04524868    0.05848828
     atom    9 type  1   force =    -0.03120571    0.00895097   -0.01530101
     atom   10 type  1   force =     0.01699838    0.05378391    0.03323543
     atom   11 type  1   force =     0.04517240   -0.04176532    0.01627717
     atom   12 type  1   force =     0.02029048    0.00330433    0.01084558
     atom   13 type  1   force =    -0.00318809    0.03826639    0.02069846
     atom   14 type  1   force =    -0.04263839   -0.04459929   -0.00666555
     atom   15 type  1   force =     0.06778852   -0.01725657    0.06023900
     atom   16 type  1   force =    -0.03884755    0.00327830   -0.04388495
     atom   17 type  1   force =    -0.02181522   -0.03599488   -0.01254995
     atom   18 type  1   force =     0.03221513   -0.02102089    0.00176414
     atom   19 type  1   force =     0.03122893    0.01027224   -0.02880250
     atom   20 type  1   force =     0.02387406    0.00768991    0.03135499
     atom   21 type  1   force =    -0.01408004    0.03026802   -0.02495368
     atom   22 type  1   force =    -0.03049108   -0.02121253    0.03200606
     atom   23 type  1   force =     0.05096498   -0.01037925    0.09834122
     atom   24 type  1   force =    -0.02073901    0.02471446   -0.03035931
     atom   25 type  1   force =    -0.00587848   -0.00413860    0.00199057
     atom   26 type  1   force =    -0.05652620   -0.02353895   -0.06785047
     atom   27 type  1   force =     0.05703193   -0.02750874    0.01290550
     atom   28 type  1   force =    -0.00126206   -0.00933055    0.02472611
     atom   29 type  1   force =    -0.01107540   -0.03661646   -0.01588981
     atom   30 type  1   force =     0.00230048   -0.05311554    0.00049420
     atom   31 type  1   force =     0.00192104   -0.05912906   -0.01218394
     atom   32 type  1   force =    -0.03307385    0.02644032   -0.02093273
     atom   33 type  1   force =     0.03720507   -0.03591007    0.05248051
     atom   34 type  1   force =     0.04287326    0.05551862   -0.03243507
     atom   35 type  1   force =    -0.03842169    0.03248114   -0.04338024
     atom   36 type  1   force =    -0.03135474   -0.04387229    0.02178884
     atom   37 type  1   force =     0.02020145    0.03901661    0.00913360
     atom   38 type  1   force =     0.01008558    0.03562562    0.01237493
     atom   39 type  1   force =     0.01857736    0.02759979   -0.01245123
     atom   40 type  1   force =    -0.04144382   -0.05869765    0.04460898
     atom   41 type  1   force =     0.00611391   -0.02251433    0.01362518
     atom   42 type  1   force =    -0.04470997   -0.02196073    0.07485522
     atom   43 type  1   force =     0.03200673    0.05254836   -0.02188775
     atom   44 type  1   force =    -0.00757709   -0.04224949   -0.02479538
     atom   45 type  1   force =    -0.00017180    0.02581522    0.04926723
     atom   46 type  1   force =     0.04414338    0.07722734    0.02170181
     atom   47 type  1   force =     0.00426234    0.08586722   -0.02299706
     atom   48 type  1   force =    -0.03996715   -0.00416307    0.03278700
     atom   49 type  1   force =     0.00317128    0.00386688   -0.04638794
     atom   50 type  1   force =    -0.06833767   -0.07858826   -0.05497275
     atom   51 type  1   force =     0.04557121    0.04807960   -0.01345712
     atom   52 type  1   force =    -0.04706604   -0.05740712    0.00640080
     atom   53 type  1   force =     0.03634795    0.00196402   -0.03729128
     atom   54 type  1   force =    -0.10321702    0.03820458   -0.09924196
     atom   55 type  1   force =    -0.00473388    0.00065385    0.01696637
     atom   56 type  1   force =     0.04677491   -0.00545222    0.05206898
     atom   57 type  1   force =     0.04014119    0.04739421    0.00139875
     atom   58 type  1   force =    -0.04909270    0.04094479   -0.10320836
     atom   59 type  1   force =    -0.00954512    0.01087350   -0.03047837
     atom   60 type  1   force =    -0.04547030   -0.01557867   -0.05362228
     atom   61 type  1   force =     0.04226419    0.04856024   -0.03186586
     atom   62 type  1   force =    -0.00578634    0.05369232   -0.04782000
     atom   63 type  1   force =    -0.01588571    0.00491896    0.00828917
     atom   64 type  1   force =    -0.07699082    0.08936006   -0.03744715

     Total force =     0.565795     Total SCF correction =     0.001262


     Computing stress (Cartesian axis) and pressure

          total   stress  (Ry/bohr**3)                   (kbar)     P=       14.49
   0.00019792  -0.00001934   0.00004425           29.12       -2.84        6.51
  -0.00001934   0.00001529  -0.00008475           -2.84        2.25      -12.47
   0.00004425  -0.00008475   0.00008231            6.51      -12.47       12.11

 
     init_run     :      1.15s CPU      4.98s WALL (       1 calls)
     electrons    :      1.60s CPU      1.72s WALL (       1 calls)
     forces       :      0.04s CPU      0.05s WALL (       1 calls)
     stress       :      0.16s CPU      0.17s WALL (       1 calls)

     Called by init_run:
     wfcinit      :      0.60s CPU      4.24s WALL (       1 calls)
                                        4.24s GPU  (       1 calls)
     potinit      :      0.21s CPU      0.31s WALL (       1 calls)
     hinit0       :      0.32s CPU      0.35s WALL (       1 calls)

     Called by electrons:
     c_bands      :      1.06s CPU      1.12s WALL (      12 calls)
     sum_band     :      0.28s CPU      0.31s WALL (      12 calls)
     v_of_rho     :      0.14s CPU      0.25s WALL (      12 calls)
     mix_rho      :      0.10s CPU      0.11s WALL (      12 calls)

     Called by c_bands:
     init_us_2    :      0.05s CPU      0.05s WALL (      25 calls)
     init_us_2:gp :      0.04s CPU      0.05s WALL (      25 calls)
     regterg      :      0.96s CPU      1.01s WALL (      12 calls)

     Called by *egterg:
     rdiaghg      :      0.44s CPU      1.19s WALL (      85 calls)
                                        1.17s GPU  (      85 calls)
     h_psi        :      0.96s CPU      3.88s WALL (      87 calls)
                                        3.88s GPU  (      87 calls)
     g_psi        :      0.00s CPU      0.00s WALL (      74 calls)
                                        0.00s GPU  (      74 calls)

     Called by h_psi:
     h_psi:calbec :      0.53s CPU      3.38s WALL (      87 calls)
                                        3.38s GPU  (      87 calls)
     vloc_psi     :      0.37s CPU      0.44s WALL (      87 calls)
                                        0.44s GPU  (      87 calls)
     add_vuspsi   :      0.03s CPU      0.05s WALL (      87 calls)
                                        0.05s GPU  (      87 calls)

     General routines
     calbec       :      0.54s CPU      3.39s WALL (      92 calls)
     fft          :      0.40s CPU      0.54s WALL (     103 calls)
                                        0.14s GPU  (      66 calls)
     ffts         :      0.04s CPU      0.04s WALL (      12 calls)
     fftw         :      0.41s CPU      0.55s WALL (    1338 calls)
                                        0.49s GPU  (    1338 calls)
 
     Parallel routines
 
     PWSCF        :      2.99s CPU      6.99s WALL

 
   This run was terminated on:  11:17:44  10May2023            

=------------------------------------------------------------------------------=
   JOB DONE.
=------------------------------------------------------------------------------=
