An instance of this daemon is already running

     Program PWSCF v.7.1 starts on 10May2023 at 11:11:59 

     This program is part of the open-source Quantum ESPRESSO suite
     for quantum simulation of materials; please cite
         "P. Giannozzi et al., J. Phys.:Condens. Matter 21 395502 (2009);
         "P. Giannozzi et al., J. Phys.:Condens. Matter 29 465901 (2017);
         "P. Giannozzi et al., J. Chem. Phys. 152 154105 (2020);
          URL http://www.quantum-espresso.org", 
     in publications or presentations arising from this work. More details at
     http://www.quantum-espresso.org/quote

     Parallel version (MPI & OpenMP), running on       4 processor cores
     Number of MPI processes:                 4
     Threads/MPI process:                     1

     MPI processes distributed on     1 nodes
     753566 MiB available memory on the printing compute node when the environment starts
 
     Reading input from pw-si-9.in
Warning: card &CELL ignored
Warning: card / ignored

     Current dimensions of program PWSCF are:
     Max number of different atomic species (ntypx) = 10
     Max number of k-points (npk) =  40000
     Max angular momentum in pseudopotentials (lmaxx) =  4

     IMPORTANT: XC functional enforced from input :
     Exchange-correlation= PBE
                           (   1   4   3   4   0   0   0)
     Any further DFT definition will be discarded
     Please, verify this is what you really want


     gamma-point specific algorithms are used
 
     K-points division:     npool     =       2
     R & G space division:  proc/nbgrp/npool/nimage =       2
     Subspace diagonalization in iterative solution of the eigenvalue problem:
     a serial algorithm will be used

     Message from routine divide_et_impera:
     suboptimal parallelization: some nodes have no k-points
 
     Parallelization info
     --------------------
     sticks:   dense  smooth     PW     G-vecs:    dense   smooth      PW
     Min        2124    2124    558               101435   101435   13786
     Max        2125    2125    559               101436   101436   13787
     Sum        4249    4249   1117               202871   202871   27573
 
     Using Slab Decomposition
 


     bravais-lattice index     =            0
     lattice parameter (alat)  =      21.0647  a.u.
     unit-cell volume          =    9138.1592 (a.u.)^3
     number of atoms/cell      =           64
     number of atomic types    =            1
     number of electrons       =       256.00
     number of Kohn-Sham states=          154
     kinetic-energy cutoff     =      30.0000  Ry
     charge density cutoff     =     120.0000  Ry
     scf convergence threshold =      1.0E-06
     mixing beta               =       0.5000
     number of iterations used =            8  plain     mixing
     Exchange-correlation= PBE
                           (   1   4   3   4   0   0   0)

     GPU acceleration is ACTIVE.
     GPU-aware MPI enabled

     Message from routine print_cuda_info:
     High GPU oversubscription detected. Are you sure this is what you want?

     celldm(1)=  21.064703  celldm(2)=   0.000000  celldm(3)=   0.000000
     celldm(4)=   0.000000  celldm(5)=   0.000000  celldm(6)=   0.000000

     crystal axes: (cart. coord. in units of alat)
               a(1) = (   1.000000   0.000000   0.000000 )  
               a(2) = (   0.000000   1.003750   0.000000 )  
               a(3) = (   0.000000   0.000000   0.974018 )  

     reciprocal axes: (cart. coord. in units 2 pi/alat)
               b(1) = (  1.000000  0.000000  0.000000 )  
               b(2) = (  0.000000  0.996264  0.000000 )  
               b(3) = (  0.000000  0.000000  1.026675 )  


     PseudoPot. # 1 for Si read from file:
     /home/ppiaggi/pseudos/Si_ONCV_PBE_sr.upf
     MD5 check sum: 8553c464762ac42b85b1eed164b4d029
     Pseudo is Norm-conserving, Zval =  4.0
     Generated using ONCVPSP code by D. R. Hamann
     Using radial grid of 1510 points,  4 beta functions with: 
                l(1) =   0
                l(2) =   0
                l(3) =   1
                l(4) =   1

     atomic species   valence    mass     pseudopotential
        Si             4.00    28.08500     Si( 1.00)

     No symmetry found



   Cartesian axes

     site n.     atom                  positions (alat units)
         1           Si  tau(   1) = (  -0.0025928  -0.0045980  -0.0056933  )
         2           Si  tau(   2) = (   0.0088747   0.2500741   0.2565287  )
         3           Si  tau(   3) = (   0.2502185   0.0059268   0.2493620  )
         4           Si  tau(   4) = (   0.2380538   0.2548843  -0.0029926  )
         5           Si  tau(   5) = (   0.1148706   0.1210060   0.1260215  )
         6           Si  tau(   6) = (   0.4959156   0.0065663  -0.0019890  )
         7           Si  tau(   7) = (   0.4981377   0.2440624   0.2447177  )
         8           Si  tau(   8) = (   0.6182541   0.1185698   0.1157840  )
         9           Si  tau(   9) = (   0.7274628   0.0089059   0.2552412  )
        10           Si  tau(  10) = (   0.7436851   0.2470027   0.0087206  )
        11           Si  tau(  11) = (   0.0033273   0.4908538   0.0069656  )
        12           Si  tau(  12) = (   0.2399235   0.4896335   0.2401322  )
        13           Si  tau(  13) = (   0.1146907   0.6261187   0.1238033  )
        14           Si  tau(  14) = (   0.3695755   0.3684262   0.1260791  )
        15           Si  tau(  15) = (   0.4962239   0.4884123   0.0041159  )
        16           Si  tau(  16) = (   0.6211848   0.6088580   0.1290651  )
        17           Si  tau(  17) = (   0.8653908   0.3774041   0.1305523  )
        18           Si  tau(  18) = (   0.7330931   0.5007791   0.2478995  )
        19           Si  tau(  19) = (   0.0060190   0.7323599   0.2530507  )
        20           Si  tau(  20) = (   0.2528471   0.7372123   0.0048287  )
        21           Si  tau(  21) = (   0.3674836   0.8677274   0.1308893  )
        22           Si  tau(  22) = (   0.4867480   0.7442418   0.2534227  )
        23           Si  tau(  23) = (   0.7334392   0.7380155  -0.0080646  )
        24           Si  tau(  24) = (   0.8584699   0.8724124   0.1214731  )
        25           Si  tau(  25) = (   0.0075966  -0.0017946   0.4946404  )
        26           Si  tau(  26) = (   0.2370164   0.2420525   0.4934531  )
        27           Si  tau(  27) = (   0.1216550   0.1265659   0.6257422  )
        28           Si  tau(  28) = (   0.3719770   0.1219894   0.3727538  )
        29           Si  tau(  29) = (   0.4987574   0.0068508   0.5014287  )
        30           Si  tau(  30) = (   0.6183320   0.1236770   0.6195985  )
        31           Si  tau(  31) = (   0.8573304   0.1189225   0.3638908  )
        32           Si  tau(  32) = (   0.7425651   0.2383720   0.4903696  )
        33           Si  tau(  33) = (   0.1209682   0.3754458   0.3796956  )
        34           Si  tau(  34) = (   0.0071854   0.4932654   0.4995197  )
        35           Si  tau(  35) = (   0.1178209   0.6253459   0.6211347  )
        36           Si  tau(  36) = (   0.6136743   0.3782716   0.3782218  )
        37           Si  tau(  37) = (   0.3744714   0.6170271   0.3645280  )
        38           Si  tau(  38) = (   0.3641316   0.3762098   0.6298949  )
        39           Si  tau(  39) = (   0.4836706   0.4895183   0.4885501  )
        40           Si  tau(  40) = (   0.6139204   0.6130256   0.6276758  )
        41           Si  tau(  41) = (   0.8516662   0.6141507   0.3803495  )
        42           Si  tau(  42) = (   0.8592317   0.3621738   0.6210699  )
        43           Si  tau(  43) = (   0.1226826   0.8672952   0.3651525  )
        44           Si  tau(  44) = (   0.2444018   0.7330082   0.5044017  )
        45           Si  tau(  45) = (   0.6051289   0.8664684   0.3773613  )
        46           Si  tau(  46) = (   0.3710087   0.8664180   0.6230219  )
        47           Si  tau(  47) = (   0.7405788   0.7406068   0.4881426  )
        48           Si  tau(  48) = (   0.8572483   0.8735530   0.6290334  )
        49           Si  tau(  49) = (  -0.0033722   0.2491389   0.7494234  )
        50           Si  tau(  50) = (   0.2448793   0.0007715   0.7375675  )
        51           Si  tau(  51) = (   0.3651568   0.1293921   0.8714112  )
        52           Si  tau(  52) = (   0.4917508   0.2431976   0.7445721  )
        53           Si  tau(  53) = (   0.7334318  -0.0023889   0.7405478  )
        54           Si  tau(  54) = (   0.8665843   0.1224820   0.8703359  )
        55           Si  tau(  55) = (   0.1203090   0.3779678   0.8653500  )
        56           Si  tau(  56) = (   0.2463362   0.5007003   0.7454193  )
        57           Si  tau(  57) = (   0.6064199   0.3764666   0.8639316  )
        58           Si  tau(  58) = (   0.3646860   0.6101931   0.8712727  )
        59           Si  tau(  59) = (   0.7316994   0.4861215   0.7479314  )
        60           Si  tau(  60) = (   0.8498113   0.6210901   0.8661891  )
        61           Si  tau(  61) = (  -0.0015963   0.7359483   0.7407130  )
        62           Si  tau(  62) = (   0.1137949   0.8625421   0.8749007  )
        63           Si  tau(  63) = (   0.4967938   0.7344910   0.7383262  )
        64           Si  tau(  64) = (   0.6049231   0.8590769   0.8753610  )

     number of k points=     1  Fermi-Dirac smearing, width (Ry)=  0.0100
                       cart. coord. in units 2pi/alat
        k(    1) = (   0.0000000   0.0000000   0.0000000), wk =   2.0000000

     Dense  grid:   101436 G-vectors     FFT dimensions: (  75,  75,  72)

     Estimated max dynamical RAM per process >     162.02 MB

     Estimated total dynamical RAM >     623.31 MB

     Initial potential from superposition of free atoms

     starting charge     255.9608, renormalised to     256.0000
     Starting wfcs are  256 randomized atomic wfcs

     total cpu time spent up to now is        5.0 secs

     Self-consistent Calculation

     iteration #  1     ecut=    30.00 Ry     beta= 0.50
     Davidson diagonalization with overlap
     ethr =  1.00E-02,  avg # of iterations =  3.0

     Threshold (ethr) on eigenvalues was too large:
     Diagonalizing with lowered threshold

     Davidson diagonalization with overlap
     ethr =  6.15E-04,  avg # of iterations =  4.0

     total cpu time spent up to now is        5.3 secs

     total energy              =    -503.41613185 Ry
     estimated scf accuracy    <       1.75259615 Ry

     iteration #  2     ecut=    30.00 Ry     beta= 0.50
     Davidson diagonalization with overlap
     ethr =  6.85E-04,  avg # of iterations =  1.0

     total cpu time spent up to now is        5.4 secs

     total energy              =    -503.39586276 Ry
     estimated scf accuracy    <       0.35703151 Ry

     iteration #  3     ecut=    30.00 Ry     beta= 0.50
     Davidson diagonalization with overlap
     ethr =  1.39E-04,  avg # of iterations = 10.0

     total cpu time spent up to now is        5.6 secs

     total energy              =    -503.35360678 Ry
     estimated scf accuracy    <       0.56771049 Ry

     iteration #  4     ecut=    30.00 Ry     beta= 0.50
     Davidson diagonalization with overlap
     ethr =  1.39E-04,  avg # of iterations =  3.0

     total cpu time spent up to now is        5.7 secs

     total energy              =    -503.44015225 Ry
     estimated scf accuracy    <       0.01915645 Ry

     iteration #  5     ecut=    30.00 Ry     beta= 0.50
     Davidson diagonalization with overlap
     c_bands:  2 eigenvalues not converged
     ethr =  7.48E-06,  avg # of iterations = 20.0

     total cpu time spent up to now is        5.9 secs

     total energy              =    -503.44196032 Ry
     estimated scf accuracy    <       0.00668631 Ry

     iteration #  6     ecut=    30.00 Ry     beta= 0.50
     Davidson diagonalization with overlap
     ethr =  2.61E-06,  avg # of iterations =  6.0

     total cpu time spent up to now is        6.0 secs

     total energy              =    -503.44283784 Ry
     estimated scf accuracy    <       0.00156539 Ry

     iteration #  7     ecut=    30.00 Ry     beta= 0.50
     Davidson diagonalization with overlap
     ethr =  6.11E-07,  avg # of iterations =  4.0

     total cpu time spent up to now is        6.2 secs

     total energy              =    -503.44312830 Ry
     estimated scf accuracy    <       0.00041393 Ry

     iteration #  8     ecut=    30.00 Ry     beta= 0.50
     Davidson diagonalization with overlap
     ethr =  1.62E-07,  avg # of iterations =  3.0

     total cpu time spent up to now is        6.3 secs

     total energy              =    -503.44317692 Ry
     estimated scf accuracy    <       0.00006117 Ry

     iteration #  9     ecut=    30.00 Ry     beta= 0.50
     Davidson diagonalization with overlap
     ethr =  2.39E-08,  avg # of iterations =  4.0

     total cpu time spent up to now is        6.4 secs

     total energy              =    -503.44318423 Ry
     estimated scf accuracy    <       0.00001460 Ry

     iteration # 10     ecut=    30.00 Ry     beta= 0.50
     Davidson diagonalization with overlap
     ethr =  5.70E-09,  avg # of iterations =  4.0

     total cpu time spent up to now is        6.5 secs

     total energy              =    -503.44318646 Ry
     estimated scf accuracy    <       0.00000328 Ry

     iteration # 11     ecut=    30.00 Ry     beta= 0.50
     Davidson diagonalization with overlap
     ethr =  1.28E-09,  avg # of iterations =  4.0

     total cpu time spent up to now is        6.7 secs

     End of self-consistent calculation

          k = 0.0000 0.0000 0.0000 ( 12682 PWs)   bands (ev):

    -6.0514  -5.1782  -5.1234  -5.0473  -4.8984  -4.8749  -4.8586  -4.3663
    -4.3253  -4.3040  -4.2113  -4.1169  -4.0747  -4.0395  -4.0014  -3.9769
    -3.9271  -3.8399  -3.7818  -3.7307  -3.7001  -3.6156  -3.3256  -2.4253
    -2.2523  -2.1731  -2.1380  -2.1057  -2.0469  -2.0307  -1.9703  -1.9139
    -1.8904  -1.8710  -1.8299  -1.7873  -1.7476  -1.6557  -1.6134  -1.5160
    -1.3461  -1.2770  -1.0761  -0.9755  -0.8194  -0.0539   0.0280   0.0677
     0.1572   0.1874   0.2347   0.2720   0.3364   0.4010   0.4326   0.5480
     0.5739   1.6586   1.7059   1.7238   1.7852   1.8052   1.8139   1.8423
     1.8896   1.9122   1.9293   1.9461   1.9855   1.9996   2.0326   2.0493
     2.0681   2.1018   2.1342   2.1381   2.1764   2.2075   2.2364   2.2741
     2.2938   2.3815   2.4143   2.4583   2.5266   2.5500   2.6343   2.7335
     2.8647   2.9527   3.0364   3.0616   3.0885   3.5693   3.6289   3.7044
     3.7161   3.7365   3.8109   3.8524   3.9229   3.9561   3.9848   4.0595
     4.1094   4.1836   4.2188   4.2486   4.2977   4.3342   4.3387   4.3719
     4.3967   4.4112   4.4509   4.5361   4.5498   4.5749   4.6398   4.6704
     4.7154   4.7508   4.8838   5.1327   5.3103   5.5064   5.8028   5.9544
     6.0868   6.2148   6.3843   6.4386   6.5058   6.5790   6.6156   6.6758
     6.7430   6.7914   6.8338   6.8870   6.9286   6.9781   7.0195   7.0466
     7.5942   7.7514   7.7590   7.7859   7.8053   7.8522   7.9560   8.0112
     8.0420   8.0840

     the Fermi energy is     5.9945 ev

!    total energy              =    -503.44318713 Ry
     estimated scf accuracy    <       0.00000033 Ry
     smearing contrib. (-TS)   =      -0.06375717 Ry
     internal energy E=F+TS    =    -503.37942996 Ry

     The total energy is F=E-TS. E is the sum of the following terms:
     one-electron contribution =     134.41477255 Ry
     hartree contribution      =      39.28736751 Ry
     xc contribution           =    -152.42349874 Ry
     ewald contribution        =    -524.65807128 Ry

     convergence has been achieved in  11 iterations

     Forces acting on atoms (cartesian axes, Ry/au):

     atom    1 type  1   force =    -0.03317256   -0.00299614    0.07668465
     atom    2 type  1   force =    -0.07867362   -0.01021446   -0.02233018
     atom    3 type  1   force =    -0.02427071   -0.05154091   -0.01539348
     atom    4 type  1   force =     0.01537776   -0.02999187    0.07784327
     atom    5 type  1   force =     0.02525596    0.00859634   -0.01060640
     atom    6 type  1   force =    -0.02962717   -0.06746850    0.03379501
     atom    7 type  1   force =    -0.00104485    0.00650626    0.01294924
     atom    8 type  1   force =    -0.00105794    0.03160791    0.04513506
     atom    9 type  1   force =     0.00305858   -0.09136151   -0.03754476
     atom   10 type  1   force =    -0.00726847    0.03025625   -0.00166160
     atom   11 type  1   force =    -0.08218568    0.05798216    0.02453813
     atom   12 type  1   force =     0.00966248    0.03294773    0.02320403
     atom   13 type  1   force =     0.04592585   -0.05138983   -0.01239469
     atom   14 type  1   force =    -0.01205369   -0.01479985   -0.00319452
     atom   15 type  1   force =    -0.04027693    0.04714817    0.06991342
     atom   16 type  1   force =    -0.06354134    0.08013528   -0.04254415
     atom   17 type  1   force =     0.02891236   -0.02430226    0.01544865
     atom   18 type  1   force =     0.05412869   -0.05374962    0.05008968
     atom   19 type  1   force =    -0.09623473    0.05221858    0.01676322
     atom   20 type  1   force =    -0.04239232    0.05058508    0.04140514
     atom   21 type  1   force =     0.00541007    0.04237471   -0.01573025
     atom   22 type  1   force =     0.04463708    0.00153388   -0.03880502
     atom   23 type  1   force =    -0.00150916    0.03607225    0.12484734
     atom   24 type  1   force =     0.01738884   -0.00209382    0.02248098
     atom   25 type  1   force =    -0.05926777   -0.01860507   -0.00456693
     atom   26 type  1   force =     0.04486894    0.02540437    0.02398267
     atom   27 type  1   force =    -0.02288174   -0.01001174   -0.01703871
     atom   28 type  1   force =     0.00380418    0.01889197    0.01146262
     atom   29 type  1   force =    -0.03735662   -0.06719828   -0.01893274
     atom   30 type  1   force =     0.00152441    0.01683905    0.01115384
     atom   31 type  1   force =     0.08439823    0.01698652    0.03625336
     atom   32 type  1   force =    -0.01087181    0.03476043    0.00639632
     atom   33 type  1   force =     0.02860746   -0.01578805   -0.02992881
     atom   34 type  1   force =    -0.09533716    0.01645930    0.01953742
     atom   35 type  1   force =     0.01548244   -0.05276925    0.00517211
     atom   36 type  1   force =     0.02047747   -0.05747190   -0.03429388
     atom   37 type  1   force =    -0.07452629   -0.02241170    0.03007549
     atom   38 type  1   force =     0.00334182   -0.04550885   -0.05209641
     atom   39 type  1   force =     0.01302055    0.03001589    0.05958275
     atom   40 type  1   force =     0.01818037   -0.01950789   -0.07600307
     atom   41 type  1   force =     0.09825374   -0.02035412   -0.03470241
     atom   42 type  1   force =     0.03912515    0.01551521    0.00079264
     atom   43 type  1   force =     0.02201089    0.01385878    0.04069110
     atom   44 type  1   force =     0.03423880    0.05756302   -0.06527778
     atom   45 type  1   force =     0.02899921    0.03865023    0.00129835
     atom   46 type  1   force =    -0.00583862    0.02263004   -0.01189633
     atom   47 type  1   force =    -0.03566100    0.04538275    0.07577601
     atom   48 type  1   force =     0.04914596   -0.01960979   -0.04917262
     atom   49 type  1   force =    -0.02407971   -0.00596323   -0.01808362
     atom   50 type  1   force =     0.00864480   -0.04204178    0.04381896
     atom   51 type  1   force =    -0.01119644   -0.02867631   -0.06423724
     atom   52 type  1   force =    -0.00225972    0.01782117   -0.00925149
     atom   53 type  1   force =     0.01091729   -0.01846082    0.04935126
     atom   54 type  1   force =    -0.00587667   -0.00583799   -0.05437962
     atom   55 type  1   force =    -0.00433214   -0.00838436   -0.06171593
     atom   56 type  1   force =    -0.03960432    0.00058664   -0.01174937
     atom   57 type  1   force =     0.05160174   -0.09596277   -0.02159554
     atom   58 type  1   force =     0.05130212    0.01571712   -0.04551874
     atom   59 type  1   force =     0.03925426    0.02693356   -0.03290644
     atom   60 type  1   force =     0.10700613   -0.07700709   -0.06610212
     atom   61 type  1   force =    -0.07152146    0.05247912    0.04192721
     atom   62 type  1   force =     0.04590068   -0.00395575   -0.07399167
     atom   63 type  1   force =    -0.04484927    0.03310633    0.04745313
     atom   64 type  1   force =    -0.01109443    0.05786936   -0.08617651

     Total force =     0.585672     Total SCF correction =     0.000798


     Computing stress (Cartesian axis) and pressure

          total   stress  (Ry/bohr**3)                   (kbar)     P=       -9.75
  -0.00008068  -0.00013939  -0.00002754          -11.87      -20.50       -4.05
  -0.00013939  -0.00010813   0.00010451          -20.50      -15.91       15.37
  -0.00002754   0.00010451  -0.00001001           -4.05       15.37       -1.47

 
     init_run     :      1.07s CPU      4.92s WALL (       1 calls)
     electrons    :      1.55s CPU      1.67s WALL (       1 calls)
     forces       :      0.05s CPU      0.05s WALL (       1 calls)
     stress       :      0.17s CPU      0.17s WALL (       1 calls)

     Called by init_run:
     wfcinit      :      0.56s CPU      4.24s WALL (       1 calls)
                                        4.24s GPU  (       1 calls)
     potinit      :      0.21s CPU      0.30s WALL (       1 calls)
     hinit0       :      0.28s CPU      0.31s WALL (       1 calls)

     Called by electrons:
     c_bands      :      1.01s CPU      1.06s WALL (      12 calls)
     sum_band     :      0.29s CPU      0.32s WALL (      12 calls)
     v_of_rho     :      0.14s CPU      0.24s WALL (      12 calls)
     mix_rho      :      0.10s CPU      0.12s WALL (      12 calls)

     Called by c_bands:
     init_us_2    :      0.05s CPU      0.05s WALL (      25 calls)
     init_us_2:gp :      0.05s CPU      0.05s WALL (      25 calls)
     regterg      :      0.90s CPU      0.95s WALL (      12 calls)

     Called by *egterg:
     rdiaghg      :      0.35s CPU      1.11s WALL (      77 calls)
                                        1.09s GPU  (      77 calls)
     h_psi        :      0.96s CPU      3.91s WALL (      79 calls)
                                        3.91s GPU  (      79 calls)
     g_psi        :      0.00s CPU      0.00s WALL (      66 calls)
                                        0.00s GPU  (      66 calls)

     Called by h_psi:
     h_psi:calbec :      0.50s CPU      3.38s WALL (      79 calls)
                                        3.38s GPU  (      79 calls)
     vloc_psi     :      0.41s CPU      0.48s WALL (      79 calls)
                                        0.48s GPU  (      79 calls)
     add_vuspsi   :      0.03s CPU      0.04s WALL (      79 calls)
                                        0.04s GPU  (      79 calls)

     General routines
     calbec       :      0.51s CPU      3.38s WALL (      84 calls)
     fft          :      0.37s CPU      0.49s WALL (     103 calls)
                                        0.13s GPU  (      66 calls)
     ffts         :      0.04s CPU      0.04s WALL (      12 calls)
     fftw         :      0.44s CPU      0.60s WALL (    1324 calls)
                                        0.54s GPU  (    1324 calls)
 
     Parallel routines
 
     PWSCF        :      2.89s CPU      6.90s WALL

 
   This run was terminated on:  11:12: 6  10May2023            

=------------------------------------------------------------------------------=
   JOB DONE.
=------------------------------------------------------------------------------=
