An instance of this daemon is already running
An instance of this daemon is already running

     Program PWSCF v.7.1 starts on 10May2023 at 11:24:46 

     This program is part of the open-source Quantum ESPRESSO suite
     for quantum simulation of materials; please cite
         "P. Giannozzi et al., J. Phys.:Condens. Matter 21 395502 (2009);
         "P. Giannozzi et al., J. Phys.:Condens. Matter 29 465901 (2017);
         "P. Giannozzi et al., J. Chem. Phys. 152 154105 (2020);
          URL http://www.quantum-espresso.org", 
     in publications or presentations arising from this work. More details at
     http://www.quantum-espresso.org/quote

     Parallel version (MPI & OpenMP), running on       4 processor cores
     Number of MPI processes:                 4
     Threads/MPI process:                     1

     MPI processes distributed on     1 nodes
     753559 MiB available memory on the printing compute node when the environment starts
 
     Reading input from pw-si-91.in
Warning: card &CELL ignored
Warning: card / ignored

     Current dimensions of program PWSCF are:
     Max number of different atomic species (ntypx) = 10
     Max number of k-points (npk) =  40000
     Max angular momentum in pseudopotentials (lmaxx) =  4

     IMPORTANT: XC functional enforced from input :
     Exchange-correlation= PBE
                           (   1   4   3   4   0   0   0)
     Any further DFT definition will be discarded
     Please, verify this is what you really want


     gamma-point specific algorithms are used
 
     K-points division:     npool     =       2
     R & G space division:  proc/nbgrp/npool/nimage =       2
     Subspace diagonalization in iterative solution of the eigenvalue problem:
     a serial algorithm will be used

     Message from routine divide_et_impera:
     suboptimal parallelization: some nodes have no k-points
 
     Parallelization info
     --------------------
     sticks:   dense  smooth     PW     G-vecs:    dense   smooth      PW
     Min        2061    2061    544                99005    99005   13460
     Max        2062    2062    545                99006    99006   13461
     Sum        4123    4123   1089               198011   198011   26921
 
     Using Slab Decomposition
 


     bravais-lattice index     =            0
     lattice parameter (alat)  =      21.0421  a.u.
     unit-cell volume          =    8921.7945 (a.u.)^3
     number of atoms/cell      =           64
     number of atomic types    =            1
     number of electrons       =       256.00
     number of Kohn-Sham states=          154
     kinetic-energy cutoff     =      30.0000  Ry
     charge density cutoff     =     120.0000  Ry
     scf convergence threshold =      1.0E-06
     mixing beta               =       0.5000
     number of iterations used =            8  plain     mixing
     Exchange-correlation= PBE
                           (   1   4   3   4   0   0   0)

     GPU acceleration is ACTIVE.
     GPU-aware MPI enabled

     Message from routine print_cuda_info:
     High GPU oversubscription detected. Are you sure this is what you want?

     celldm(1)=  21.042113  celldm(2)=   0.000000  celldm(3)=   0.000000
     celldm(4)=   0.000000  celldm(5)=   0.000000  celldm(6)=   0.000000

     crystal axes: (cart. coord. in units of alat)
               a(1) = (   1.000000   0.000000   0.000000 )  
               a(2) = (   0.000000   0.973262   0.000000 )  
               a(3) = (   0.000000   0.000000   0.983907 )  

     reciprocal axes: (cart. coord. in units 2 pi/alat)
               b(1) = (  1.000000  0.000000  0.000000 )  
               b(2) = (  0.000000  1.027472  0.000000 )  
               b(3) = (  0.000000  0.000000  1.016356 )  


     PseudoPot. # 1 for Si read from file:
     /home/ppiaggi/pseudos/Si_ONCV_PBE_sr.upf
     MD5 check sum: 8553c464762ac42b85b1eed164b4d029
     Pseudo is Norm-conserving, Zval =  4.0
     Generated using ONCVPSP code by D. R. Hamann
     Using radial grid of 1510 points,  4 beta functions with: 
                l(1) =   0
                l(2) =   0
                l(3) =   1
                l(4) =   1

     atomic species   valence    mass     pseudopotential
        Si             4.00    28.08500     Si( 1.00)

     No symmetry found



   Cartesian axes

     site n.     atom                  positions (alat units)
         1           Si  tau(   1) = (  -0.0073753   0.0050787  -0.0050496  )
         2           Si  tau(   2) = (  -0.0010509   0.2384104   0.2563702  )
         3           Si  tau(   3) = (   0.2421703  -0.0024368   0.2445395  )
         4           Si  tau(   4) = (   0.2424520   0.2389808  -0.0062609  )
         5           Si  tau(   5) = (   0.1286196   0.1210893   0.1264257  )
         6           Si  tau(   6) = (   0.4964784  -0.0087124  -0.0057666  )
         7           Si  tau(   7) = (   0.4872237   0.2386401   0.2436170  )
         8           Si  tau(   8) = (   0.6097038   0.1124434   0.1328639  )
         9           Si  tau(   9) = (   0.7333557  -0.0060311   0.2571203  )
        10           Si  tau(  10) = (   0.7260422   0.2408232  -0.0088826  )
        11           Si  tau(  11) = (  -0.0047838   0.4821815  -0.0069598  )
        12           Si  tau(  12) = (   0.2416755   0.4908741   0.2495715  )
        13           Si  tau(  13) = (   0.1261996   0.6009734   0.1201914  )
        14           Si  tau(  14) = (   0.3711046   0.3663811   0.1268972  )
        15           Si  tau(  15) = (   0.4965352   0.4783326   0.0019505  )
        16           Si  tau(  16) = (   0.6189592   0.6025168   0.1271573  )
        17           Si  tau(  17) = (   0.8465329   0.3618381   0.1207964  )
        18           Si  tau(  18) = (   0.7410170   0.4843655   0.2519522  )
        19           Si  tau(  19) = (  -0.0051036   0.7196525   0.2514898  )
        20           Si  tau(  20) = (   0.2455717   0.7252557   0.0004578  )
        21           Si  tau(  21) = (   0.3679537   0.8479457   0.1265118  )
        22           Si  tau(  22) = (   0.4934477   0.7298540   0.2437376  )
        23           Si  tau(  23) = (   0.7297611   0.7308765   0.0007622  )
        24           Si  tau(  24) = (   0.8464469   0.8437914   0.1327615  )
        25           Si  tau(  25) = (   0.0028741   0.0004749   0.4991004  )
        26           Si  tau(  26) = (   0.2428624   0.2350705   0.5060485  )
        27           Si  tau(  27) = (   0.1162822   0.1190676   0.6304908  )
        28           Si  tau(  28) = (   0.3636668   0.1181257   0.3841570  )
        29           Si  tau(  29) = (   0.4913447   0.0054003   0.5069423  )
        30           Si  tau(  30) = (   0.6110592   0.1296266   0.6313635  )
        31           Si  tau(  31) = (   0.8631180   0.1235667   0.3742931  )
        32           Si  tau(  32) = (   0.7256206   0.2439675   0.5067045  )
        33           Si  tau(  33) = (   0.1201416   0.3706448   0.3712003  )
        34           Si  tau(  34) = (  -0.0023299   0.4780744   0.5068580  )
        35           Si  tau(  35) = (   0.1137126   0.6115609   0.6213161  )
        36           Si  tau(  36) = (   0.6149451   0.3688233   0.3692550  )
        37           Si  tau(  37) = (   0.3599850   0.5959235   0.3734452  )
        38           Si  tau(  38) = (   0.3608400   0.3635228   0.6207000  )
        39           Si  tau(  39) = (   0.4842716   0.4917486   0.5108721  )
        40           Si  tau(  40) = (   0.6128405   0.6105702   0.6332716  )
        41           Si  tau(  41) = (   0.8609330   0.6034315   0.3766429  )
        42           Si  tau(  42) = (   0.8496859   0.3665348   0.6333003  )
        43           Si  tau(  43) = (   0.1202484   0.8500323   0.3693600  )
        44           Si  tau(  44) = (   0.2463893   0.7216565   0.4997794  )
        45           Si  tau(  45) = (   0.6142743   0.8430553   0.3686770  )
        46           Si  tau(  46) = (   0.3634015   0.8519771   0.6234383  )
        47           Si  tau(  47) = (   0.7338050   0.7174320   0.5084876  )
        48           Si  tau(  48) = (   0.8521211   0.8512078   0.6205606  )
        49           Si  tau(  49) = (   0.0078732   0.2335506   0.7618332  )
        50           Si  tau(  50) = (   0.2467085   0.0031477   0.7458698  )
        51           Si  tau(  51) = (   0.3576649   0.1178670   0.8877794  )
        52           Si  tau(  52) = (   0.4950194   0.2370016   0.7562991  )
        53           Si  tau(  53) = (   0.7268647   0.0051792   0.7503224  )
        54           Si  tau(  54) = (   0.8556584   0.1287910   0.8867722  )
        55           Si  tau(  55) = (   0.1224561   0.3608062   0.8806707  )
        56           Si  tau(  56) = (   0.2496639   0.4747243   0.7462779  )
        57           Si  tau(  57) = (   0.6049193   0.3540624   0.8745911  )
        58           Si  tau(  58) = (   0.3697523   0.5957460   0.8844792  )
        59           Si  tau(  59) = (   0.7241799   0.4890519   0.7539180  )
        60           Si  tau(  60) = (   0.8456084   0.6099334   0.8732514  )
        61           Si  tau(  61) = (  -0.0039718   0.7301758   0.7473368  )
        62           Si  tau(  62) = (   0.1248121   0.8375445   0.8814731  )
        63           Si  tau(  63) = (   0.4912731   0.7318043   0.7618975  )
        64           Si  tau(  64) = (   0.6185377   0.8456441   0.8840953  )

     number of k points=     1  Fermi-Dirac smearing, width (Ry)=  0.0100
                       cart. coord. in units 2pi/alat
        k(    1) = (   0.0000000   0.0000000   0.0000000), wk =   2.0000000

     Dense  grid:    99006 G-vectors     FFT dimensions: (  75,  72,  75)

     Estimated max dynamical RAM per process >     158.77 MB

     Estimated total dynamical RAM >     610.89 MB

     Initial potential from superposition of free atoms

     starting charge     255.9608, renormalised to     256.0000
     Starting wfcs are  256 randomized atomic wfcs

     total cpu time spent up to now is        5.3 secs

     Self-consistent Calculation

     iteration #  1     ecut=    30.00 Ry     beta= 0.50
     Davidson diagonalization with overlap
     ethr =  1.00E-02,  avg # of iterations =  3.0

     Threshold (ethr) on eigenvalues was too large:
     Diagonalizing with lowered threshold

     Davidson diagonalization with overlap
     ethr =  6.47E-04,  avg # of iterations =  4.0

     total cpu time spent up to now is        5.6 secs

     total energy              =    -503.37844748 Ry
     estimated scf accuracy    <       1.84223655 Ry

     iteration #  2     ecut=    30.00 Ry     beta= 0.50
     Davidson diagonalization with overlap
     ethr =  7.20E-04,  avg # of iterations =  2.0

     total cpu time spent up to now is        5.7 secs

     total energy              =    -503.34773126 Ry
     estimated scf accuracy    <       0.40043558 Ry

     iteration #  3     ecut=    30.00 Ry     beta= 0.50
     Davidson diagonalization with overlap
     ethr =  1.56E-04,  avg # of iterations = 19.0

     total cpu time spent up to now is        5.9 secs

     total energy              =    -503.25943452 Ry
     estimated scf accuracy    <       1.02078782 Ry

     iteration #  4     ecut=    30.00 Ry     beta= 0.50
     Davidson diagonalization with overlap
     ethr =  1.56E-04,  avg # of iterations =  6.0

     total cpu time spent up to now is        6.1 secs

     total energy              =    -503.41230743 Ry
     estimated scf accuracy    <       0.03136714 Ry

     iteration #  5     ecut=    30.00 Ry     beta= 0.50
     Davidson diagonalization with overlap
     c_bands:  1 eigenvalues not converged
     ethr =  1.23E-05,  avg # of iterations = 20.0

     total cpu time spent up to now is        6.3 secs

     total energy              =    -503.41456745 Ry
     estimated scf accuracy    <       0.01172447 Ry

     iteration #  6     ecut=    30.00 Ry     beta= 0.50
     Davidson diagonalization with overlap
     ethr =  4.58E-06,  avg # of iterations =  5.0

     total cpu time spent up to now is        6.5 secs

     total energy              =    -503.41594172 Ry
     estimated scf accuracy    <       0.00220119 Ry

     iteration #  7     ecut=    30.00 Ry     beta= 0.50
     Davidson diagonalization with overlap
     ethr =  8.60E-07,  avg # of iterations =  4.0

     total cpu time spent up to now is        6.6 secs

     total energy              =    -503.41639342 Ry
     estimated scf accuracy    <       0.00050639 Ry

     iteration #  8     ecut=    30.00 Ry     beta= 0.50
     Davidson diagonalization with overlap
     ethr =  1.98E-07,  avg # of iterations =  3.0

     total cpu time spent up to now is        6.7 secs

     total energy              =    -503.41643068 Ry
     estimated scf accuracy    <       0.00014672 Ry

     iteration #  9     ecut=    30.00 Ry     beta= 0.50
     Davidson diagonalization with overlap
     ethr =  5.73E-08,  avg # of iterations =  4.0

     total cpu time spent up to now is        6.8 secs

     total energy              =    -503.41644257 Ry
     estimated scf accuracy    <       0.00003505 Ry

     iteration # 10     ecut=    30.00 Ry     beta= 0.50
     Davidson diagonalization with overlap
     ethr =  1.37E-08,  avg # of iterations =  4.0

     total cpu time spent up to now is        7.0 secs

     total energy              =    -503.41644777 Ry
     estimated scf accuracy    <       0.00000422 Ry

     iteration # 11     ecut=    30.00 Ry     beta= 0.50
     Davidson diagonalization with overlap
     ethr =  1.65E-09,  avg # of iterations =  4.0

     total cpu time spent up to now is        7.1 secs

     End of self-consistent calculation

          k = 0.0000 0.0000 0.0000 ( 12378 PWs)   bands (ev):

    -6.0089  -5.1780  -5.0479  -4.9469  -4.8978  -4.7399  -4.6852  -4.4070
    -4.2130  -4.1400  -4.0887  -4.0087  -3.9433  -3.8862  -3.8289  -3.7994
    -3.7341  -3.6906  -3.6312  -3.5809  -3.5215  -3.4767  -3.2026  -2.2535
    -2.1646  -2.0118  -1.9361  -1.9068  -1.8740  -1.8095  -1.7690  -1.7074
    -1.6927  -1.6410  -1.6093  -1.5971  -1.5647  -1.4719  -1.4251  -1.3504
    -1.3271  -1.1662  -0.9305  -0.8758  -0.7600   0.2159   0.2698   0.3424
     0.3820   0.4134   0.4282   0.4492   0.4708   0.5729   0.5958   0.6510
     0.6913   1.7464   1.7809   1.8093   1.8598   1.9771   2.0127   2.0525
     2.0603   2.1078   2.1450   2.1652   2.1762   2.1926   2.2243   2.2476
     2.2581   2.2699   2.3044   2.3270   2.3586   2.4000   2.4133   2.4296
     2.4550   2.5553   2.5623   2.6275   2.6892   2.7351   2.8002   2.9009
     3.0547   3.1631   3.1883   3.2290   3.2548   3.7419   3.8474   3.8597
     3.9245   3.9595   3.9868   4.0366   4.1057   4.1353   4.2022   4.2430
     4.2919   4.3970   4.5024   4.5067   4.5195   4.5486   4.5905   4.6206
     4.6777   4.6824   4.6937   4.7672   4.7812   4.8067   4.8174   4.8830
     4.9277   4.9962   5.0409   5.1016   5.6342   5.8142   5.9503   6.1648
     6.2735   6.3625   6.5548   6.6763   6.7049   6.7817   6.8855   6.9133
     7.0474   7.0725   7.1013   7.1488   7.1754   7.2087   7.3022   7.3255
     7.8503   7.9620   8.0234   8.0793   8.1229   8.1826   8.2165   8.2475
     8.3008   8.3123

     the Fermi energy is     6.1848 ev

!    total energy              =    -503.41644858 Ry
     estimated scf accuracy    <       0.00000064 Ry
     smearing contrib. (-TS)   =      -0.06498791 Ry
     internal energy E=F+TS    =    -503.35146067 Ry

     The total energy is F=E-TS. E is the sum of the following terms:
     one-electron contribution =     139.03956139 Ry
     hartree contribution      =      39.13458032 Ry
     xc contribution           =    -153.22612716 Ry
     ewald contribution        =    -528.29947521 Ry

     convergence has been achieved in  11 iterations

     Forces acting on atoms (cartesian axes, Ry/au):

     atom    1 type  1   force =     0.00683035   -0.04004443    0.07587359
     atom    2 type  1   force =    -0.02855132    0.01990705   -0.04088700
     atom    3 type  1   force =     0.02855368   -0.00551186    0.03551858
     atom    4 type  1   force =    -0.00796312    0.05400023    0.13494948
     atom    5 type  1   force =    -0.05852285    0.00630372   -0.01258587
     atom    6 type  1   force =    -0.05074473    0.04564519    0.10084003
     atom    7 type  1   force =     0.00360609    0.00899701    0.05470753
     atom    8 type  1   force =     0.00944031    0.00358769   -0.03780976
     atom    9 type  1   force =     0.03007328    0.02789661   -0.00736531
     atom   10 type  1   force =     0.00146000   -0.00309271    0.14096713
     atom   11 type  1   force =    -0.06241085    0.03329662    0.06171329
     atom   12 type  1   force =     0.00474683   -0.05060254   -0.02382417
     atom   13 type  1   force =    -0.05791437    0.01722515    0.00436805
     atom   14 type  1   force =    -0.04069179   -0.01614629   -0.00810804
     atom   15 type  1   force =     0.00325578    0.01834439    0.07540651
     atom   16 type  1   force =    -0.01892596    0.00476940   -0.00197933
     atom   17 type  1   force =     0.07240313   -0.01315048    0.00043894
     atom   18 type  1   force =     0.00352396    0.01141442   -0.00624202
     atom   19 type  1   force =    -0.01910899    0.01501864   -0.01552967
     atom   20 type  1   force =     0.04145376   -0.03129936    0.07359061
     atom   21 type  1   force =    -0.00325151    0.01008840   -0.02123400
     atom   22 type  1   force =    -0.02040414   -0.04574149    0.02028831
     atom   23 type  1   force =     0.06349046   -0.05656651    0.10246177
     atom   24 type  1   force =     0.07557881    0.01151901   -0.01066371
     atom   25 type  1   force =    -0.05849624   -0.01256881   -0.01183017
     atom   26 type  1   force =    -0.02862088    0.03377407   -0.03024116
     atom   27 type  1   force =     0.00991092   -0.00948163   -0.01406884
     atom   28 type  1   force =     0.00515063   -0.00320979   -0.04355742
     atom   29 type  1   force =     0.01494755   -0.04011157   -0.02639721
     atom   30 type  1   force =    -0.00768509   -0.04309102   -0.01617721
     atom   31 type  1   force =    -0.00056609   -0.01200602    0.03557793
     atom   32 type  1   force =     0.05639039    0.02016965   -0.04479402
     atom   33 type  1   force =    -0.00268414   -0.04098378    0.03480235
     atom   34 type  1   force =    -0.04856595    0.01543594   -0.01592957
     atom   35 type  1   force =     0.02576191   -0.03655817    0.02537473
     atom   36 type  1   force =    -0.04309244   -0.01958945    0.03947842
     atom   37 type  1   force =     0.05018333    0.06161856    0.02194258
     atom   38 type  1   force =     0.04421385   -0.04382172    0.01685012
     atom   39 type  1   force =     0.03105025   -0.02114649   -0.04974265
     atom   40 type  1   force =    -0.05069623    0.00094104    0.00486078
     atom   41 type  1   force =     0.03542556   -0.00945977    0.02845399
     atom   42 type  1   force =     0.05321365   -0.02035811   -0.00021672
     atom   43 type  1   force =    -0.00102354   -0.01777496    0.01897553
     atom   44 type  1   force =    -0.01799316    0.02967771   -0.02139246
     atom   45 type  1   force =    -0.01525952    0.01035968    0.07761109
     atom   46 type  1   force =     0.02384315   -0.01308230    0.01511608
     atom   47 type  1   force =     0.01852353    0.03366428   -0.05825616
     atom   48 type  1   force =     0.04679167    0.02016028    0.02154562
     atom   49 type  1   force =    -0.08789143    0.03058400   -0.00823762
     atom   50 type  1   force =    -0.01923474   -0.03176644    0.03400665
     atom   51 type  1   force =     0.08295659   -0.05937358   -0.11884507
     atom   52 type  1   force =    -0.09601541    0.00557400   -0.01922340
     atom   53 type  1   force =     0.05418303   -0.02151233    0.01707274
     atom   54 type  1   force =     0.06062355   -0.06419279   -0.11467718
     atom   55 type  1   force =    -0.00429357    0.01866415   -0.08716805
     atom   56 type  1   force =    -0.04918383    0.06006670    0.02962520
     atom   57 type  1   force =     0.01425454    0.05857527   -0.06517408
     atom   58 type  1   force =    -0.01769031    0.02199706   -0.08681404
     atom   59 type  1   force =     0.02396185   -0.03349268    0.00706831
     atom   60 type  1   force =     0.08602623   -0.01857074   -0.04065249
     atom   61 type  1   force =    -0.05140532    0.00299514    0.00916853
     atom   62 type  1   force =    -0.06241630    0.08687322   -0.09313197
     atom   63 type  1   force =    -0.02035097   -0.01310606   -0.02782872
     atom   64 type  1   force =    -0.03017380    0.04826959   -0.13806939

     Total force =     0.613249     Total SCF correction =     0.001347


     Computing stress (Cartesian axis) and pressure

          total   stress  (Ry/bohr**3)                   (kbar)     P=       11.69
   0.00003876  -0.00016205  -0.00000323            5.70      -23.84       -0.48
  -0.00016205   0.00015902   0.00007092          -23.84       23.39       10.43
  -0.00000323   0.00007092   0.00004052           -0.48       10.43        5.96

 
     init_run     :      1.24s CPU      5.25s WALL (       1 calls)
     electrons    :      1.64s CPU      1.75s WALL (       1 calls)
     forces       :      0.04s CPU      0.05s WALL (       1 calls)
     stress       :      0.17s CPU      0.18s WALL (       1 calls)

     Called by init_run:
     wfcinit      :      0.59s CPU      4.43s WALL (       1 calls)
                                        4.43s GPU  (       1 calls)
     potinit      :      0.21s CPU      0.30s WALL (       1 calls)
     hinit0       :      0.42s CPU      0.45s WALL (       1 calls)

     Called by electrons:
     c_bands      :      1.08s CPU      1.13s WALL (      12 calls)
     sum_band     :      0.30s CPU      0.33s WALL (      12 calls)
     v_of_rho     :      0.15s CPU      0.25s WALL (      12 calls)
     mix_rho      :      0.10s CPU      0.11s WALL (      12 calls)

     Called by c_bands:
     init_us_2    :      0.05s CPU      0.05s WALL (      25 calls)
     init_us_2:gp :      0.04s CPU      0.05s WALL (      25 calls)
     regterg      :      0.97s CPU      1.01s WALL (      12 calls)

     Called by *egterg:
     rdiaghg      :      0.41s CPU      1.18s WALL (      89 calls)
                                        1.16s GPU  (      89 calls)
     h_psi        :      0.98s CPU      4.08s WALL (      91 calls)
                                        4.08s GPU  (      91 calls)
     g_psi        :      0.00s CPU      0.00s WALL (      78 calls)
                                        0.00s GPU  (      78 calls)

     Called by h_psi:
     h_psi:calbec :      0.53s CPU      3.56s WALL (      91 calls)
                                        3.56s GPU  (      91 calls)
     vloc_psi     :      0.39s CPU      0.46s WALL (      91 calls)
                                        0.46s GPU  (      91 calls)
     add_vuspsi   :      0.04s CPU      0.05s WALL (      91 calls)
                                        0.05s GPU  (      91 calls)

     General routines
     calbec       :      0.54s CPU      3.57s WALL (      96 calls)
     fft          :      0.51s CPU      0.63s WALL (     103 calls)
                                        0.13s GPU  (      66 calls)
     ffts         :      0.04s CPU      0.05s WALL (      12 calls)
     fftw         :      0.43s CPU      0.58s WALL (    1350 calls)
                                        0.52s GPU  (    1350 calls)
 
     Parallel routines
 
     PWSCF        :      3.13s CPU      7.31s WALL

 
   This run was terminated on:  11:24:54  10May2023            

=------------------------------------------------------------------------------=
   JOB DONE.
=------------------------------------------------------------------------------=
