An instance of this daemon is already running

     Program PWSCF v.7.1 starts on 10May2023 at 11:20:16 

     This program is part of the open-source Quantum ESPRESSO suite
     for quantum simulation of materials; please cite
         "P. Giannozzi et al., J. Phys.:Condens. Matter 21 395502 (2009);
         "P. Giannozzi et al., J. Phys.:Condens. Matter 29 465901 (2017);
         "P. Giannozzi et al., J. Chem. Phys. 152 154105 (2020);
          URL http://www.quantum-espresso.org", 
     in publications or presentations arising from this work. More details at
     http://www.quantum-espresso.org/quote

     Parallel version (MPI & OpenMP), running on       4 processor cores
     Number of MPI processes:                 4
     Threads/MPI process:                     1

     MPI processes distributed on     1 nodes
     753559 MiB available memory on the printing compute node when the environment starts
 
     Reading input from pw-si-62.in
Warning: card &CELL ignored
Warning: card / ignored

     Current dimensions of program PWSCF are:
     Max number of different atomic species (ntypx) = 10
     Max number of k-points (npk) =  40000
     Max angular momentum in pseudopotentials (lmaxx) =  4

     IMPORTANT: XC functional enforced from input :
     Exchange-correlation= PBE
                           (   1   4   3   4   0   0   0)
     Any further DFT definition will be discarded
     Please, verify this is what you really want


     gamma-point specific algorithms are used
 
     K-points division:     npool     =       2
     R & G space division:  proc/nbgrp/npool/nimage =       2
     Subspace diagonalization in iterative solution of the eigenvalue problem:
     a serial algorithm will be used

     Message from routine divide_et_impera:
     suboptimal parallelization: some nodes have no k-points
 
     Parallelization info
     --------------------
     sticks:   dense  smooth     PW     G-vecs:    dense   smooth      PW
     Min        2119    2119    561                99473    99473   13505
     Max        2120    2120    562                99476    99476   13506
     Sum        4239    4239   1123               198949   198949   27011
 
     Using Slab Decomposition
 


     bravais-lattice index     =            0
     lattice parameter (alat)  =      21.3411  a.u.
     unit-cell volume          =    8964.0961 (a.u.)^3
     number of atoms/cell      =           64
     number of atomic types    =            1
     number of electrons       =       256.00
     number of Kohn-Sham states=          154
     kinetic-energy cutoff     =      30.0000  Ry
     charge density cutoff     =     120.0000  Ry
     scf convergence threshold =      1.0E-06
     mixing beta               =       0.5000
     number of iterations used =            8  plain     mixing
     Exchange-correlation= PBE
                           (   1   4   3   4   0   0   0)

     GPU acceleration is ACTIVE.
     GPU-aware MPI enabled

     Message from routine print_cuda_info:
     High GPU oversubscription detected. Are you sure this is what you want?

     celldm(1)=  21.341128  celldm(2)=   0.000000  celldm(3)=   0.000000
     celldm(4)=   0.000000  celldm(5)=   0.000000  celldm(6)=   0.000000

     crystal axes: (cart. coord. in units of alat)
               a(1) = (   1.000000   0.000000   0.000000 )  
               a(2) = (   0.000000   0.976176   0.000000 )  
               a(3) = (   0.000000   0.000000   0.944770 )  

     reciprocal axes: (cart. coord. in units 2 pi/alat)
               b(1) = (  1.000000  0.000000  0.000000 )  
               b(2) = (  0.000000  1.024405  0.000000 )  
               b(3) = (  0.000000  0.000000  1.058459 )  


     PseudoPot. # 1 for Si read from file:
     /home/ppiaggi/pseudos/Si_ONCV_PBE_sr.upf
     MD5 check sum: 8553c464762ac42b85b1eed164b4d029
     Pseudo is Norm-conserving, Zval =  4.0
     Generated using ONCVPSP code by D. R. Hamann
     Using radial grid of 1510 points,  4 beta functions with: 
                l(1) =   0
                l(2) =   0
                l(3) =   1
                l(4) =   1

     atomic species   valence    mass     pseudopotential
        Si             4.00    28.08500     Si( 1.00)

     No symmetry found



   Cartesian axes

     site n.     atom                  positions (alat units)
         1           Si  tau(   1) = (   0.0051335  -0.0014700  -0.0016928  )
         2           Si  tau(   2) = (   0.0040985   0.2295747   0.2294683  )
         3           Si  tau(   3) = (   0.2397892   0.0006914   0.2327099  )
         4           Si  tau(   4) = (   0.2412142   0.2461346   0.0058970  )
         5           Si  tau(   5) = (   0.1155431   0.1198987   0.1173937  )
         6           Si  tau(   6) = (   0.4963919  -0.0051400  -0.0054232  )
         7           Si  tau(   7) = (   0.4939900   0.2299949   0.2280523  )
         8           Si  tau(   8) = (   0.6132251   0.1178405   0.1134731  )
         9           Si  tau(   9) = (   0.7446746   0.0032660   0.2353254  )
        10           Si  tau(  10) = (   0.7362546   0.2417998   0.0059946  )
        11           Si  tau(  11) = (   0.0004596   0.4732701   0.0024998  )
        12           Si  tau(  12) = (   0.2429367   0.4757080   0.2353515  )
        13           Si  tau(  13) = (   0.1152896   0.5918880   0.1178602  )
        14           Si  tau(  14) = (   0.3651592   0.3620325   0.1195885  )
        15           Si  tau(  15) = (   0.4882645   0.4777871  -0.0020099  )
        16           Si  tau(  16) = (   0.6254693   0.6026247   0.1228750  )
        17           Si  tau(  17) = (   0.8695554   0.3606547   0.1092720  )
        18           Si  tau(  18) = (   0.7482917   0.4710904   0.2248211  )
        19           Si  tau(  19) = (   0.0086865   0.7146379   0.2267403  )
        20           Si  tau(  20) = (   0.2484684   0.7093031  -0.0051250  )
        21           Si  tau(  21) = (   0.3645248   0.8386478   0.1131660  )
        22           Si  tau(  22) = (   0.4884220   0.7194374   0.2311725  )
        23           Si  tau(  23) = (   0.7388925   0.7179142   0.0069939  )
        24           Si  tau(  24) = (   0.8627389   0.8319555   0.1076269  )
        25           Si  tau(  25) = (  -0.0006124   0.0077260   0.4560481  )
        26           Si  tau(  26) = (   0.2399447   0.2427658   0.4572648  )
        27           Si  tau(  27) = (   0.1232118   0.1221371   0.5858402  )
        28           Si  tau(  28) = (   0.3691305   0.1222381   0.3434636  )
        29           Si  tau(  29) = (   0.4876184   0.0039206   0.4642169  )
        30           Si  tau(  30) = (   0.6141727   0.1174995   0.5852428  )
        31           Si  tau(  31) = (   0.8641615   0.1251362   0.3517266  )
        32           Si  tau(  32) = (   0.7354798   0.2376901   0.4677148  )
        33           Si  tau(  33) = (   0.1313994   0.3650221   0.3417792  )
        34           Si  tau(  34) = (  -0.0019289   0.4819658   0.4612070  )
        35           Si  tau(  35) = (   0.1282020   0.5864589   0.5750927  )
        36           Si  tau(  36) = (   0.6225876   0.3531571   0.3466119  )
        37           Si  tau(  37) = (   0.3674910   0.6004004   0.3489091  )
        38           Si  tau(  38) = (   0.3789800   0.3576077   0.5856595  )
        39           Si  tau(  39) = (   0.4942050   0.4687245   0.4627050  )
        40           Si  tau(  40) = (   0.6131897   0.5865180   0.5769023  )
        41           Si  tau(  41) = (   0.8597022   0.5862689   0.3545663  )
        42           Si  tau(  42) = (   0.8685390   0.3655416   0.5714396  )
        43           Si  tau(  43) = (   0.1294768   0.8334288   0.3540260  )
        44           Si  tau(  44) = (   0.2421015   0.7098077   0.4669111  )
        45           Si  tau(  45) = (   0.6120656   0.8381553   0.3453005  )
        46           Si  tau(  46) = (   0.3668091   0.8288756   0.5755249  )
        47           Si  tau(  47) = (   0.7493644   0.7061094   0.4607215  )
        48           Si  tau(  48) = (   0.8689589   0.8285711   0.5751955  )
        49           Si  tau(  49) = (  -0.0024067   0.2374960   0.7010660  )
        50           Si  tau(  50) = (   0.2528497   0.0044053   0.6979090  )
        51           Si  tau(  51) = (   0.3649141   0.1204994   0.8030797  )
        52           Si  tau(  52) = (   0.4869531   0.2444158   0.6996960  )
        53           Si  tau(  53) = (   0.7398939   0.0072851   0.6994720  )
        54           Si  tau(  54) = (   0.8567039   0.1109588   0.8188071  )
        55           Si  tau(  55) = (   0.1179173   0.3644735   0.8032204  )
        56           Si  tau(  56) = (   0.2459524   0.4752163   0.7005446  )
        57           Si  tau(  57) = (   0.6198519   0.3563963   0.8072289  )
        58           Si  tau(  58) = (   0.3681069   0.5910095   0.8113087  )
        59           Si  tau(  59) = (   0.7429964   0.4815907   0.6878780  )
        60           Si  tau(  60) = (   0.8565377   0.6003293   0.8183917  )
        61           Si  tau(  61) = (  -0.0087675   0.7215851   0.6927214  )
        62           Si  tau(  62) = (   0.1253162   0.8335417   0.8174950  )
        63           Si  tau(  63) = (   0.4859733   0.7124129   0.7009211  )
        64           Si  tau(  64) = (   0.6089722   0.8245528   0.8169801  )

     number of k points=     1  Fermi-Dirac smearing, width (Ry)=  0.0100
                       cart. coord. in units 2pi/alat
        k(    1) = (   0.0000000   0.0000000   0.0000000), wk =   2.0000000

     Dense  grid:    99475 G-vectors     FFT dimensions: (  75,  75,  72)

     Estimated max dynamical RAM per process >     159.24 MB

     Estimated total dynamical RAM >     612.69 MB

     Initial potential from superposition of free atoms

     starting charge     255.9608, renormalised to     256.0000
     Starting wfcs are  256 randomized atomic wfcs

     total cpu time spent up to now is        5.0 secs

     Self-consistent Calculation

     iteration #  1     ecut=    30.00 Ry     beta= 0.50
     Davidson diagonalization with overlap
     ethr =  1.00E-02,  avg # of iterations =  3.0

     Threshold (ethr) on eigenvalues was too large:
     Diagonalizing with lowered threshold

     Davidson diagonalization with overlap
     ethr =  6.37E-04,  avg # of iterations =  4.0

     total cpu time spent up to now is        5.3 secs

     total energy              =    -503.36671226 Ry
     estimated scf accuracy    <       1.81764772 Ry

     iteration #  2     ecut=    30.00 Ry     beta= 0.50
     Davidson diagonalization with overlap
     ethr =  7.10E-04,  avg # of iterations =  1.0

     total cpu time spent up to now is        5.4 secs

     total energy              =    -503.34020687 Ry
     estimated scf accuracy    <       0.38417372 Ry

     iteration #  3     ecut=    30.00 Ry     beta= 0.50
     Davidson diagonalization with overlap
     ethr =  1.50E-04,  avg # of iterations =  9.0

     total cpu time spent up to now is        5.6 secs

     total energy              =    -503.24963969 Ry
     estimated scf accuracy    <       0.97248556 Ry

     iteration #  4     ecut=    30.00 Ry     beta= 0.50
     Davidson diagonalization with overlap
     ethr =  1.50E-04,  avg # of iterations =  5.0

     total cpu time spent up to now is        5.7 secs

     total energy              =    -503.39767560 Ry
     estimated scf accuracy    <       0.03781856 Ry

     iteration #  5     ecut=    30.00 Ry     beta= 0.50
     Davidson diagonalization with overlap
     ethr =  1.48E-05,  avg # of iterations = 16.0

     total cpu time spent up to now is        5.9 secs

     total energy              =    -503.39952229 Ry
     estimated scf accuracy    <       0.01661628 Ry

     iteration #  6     ecut=    30.00 Ry     beta= 0.50
     Davidson diagonalization with overlap
     ethr =  6.49E-06,  avg # of iterations =  5.0

     total cpu time spent up to now is        6.1 secs

     total energy              =    -503.40136073 Ry
     estimated scf accuracy    <       0.00333768 Ry

     iteration #  7     ecut=    30.00 Ry     beta= 0.50
     Davidson diagonalization with overlap
     ethr =  1.30E-06,  avg # of iterations =  9.0

     total cpu time spent up to now is        6.2 secs

     total energy              =    -503.40200153 Ry
     estimated scf accuracy    <       0.00042563 Ry

     iteration #  8     ecut=    30.00 Ry     beta= 0.50
     Davidson diagonalization with overlap
     ethr =  1.66E-07,  avg # of iterations =  3.0

     total cpu time spent up to now is        6.4 secs

     total energy              =    -503.40203916 Ry
     estimated scf accuracy    <       0.00012878 Ry

     iteration #  9     ecut=    30.00 Ry     beta= 0.50
     Davidson diagonalization with overlap
     ethr =  5.03E-08,  avg # of iterations =  3.0

     total cpu time spent up to now is        6.5 secs

     total energy              =    -503.40204911 Ry
     estimated scf accuracy    <       0.00003358 Ry

     iteration # 10     ecut=    30.00 Ry     beta= 0.50
     Davidson diagonalization with overlap
     ethr =  1.31E-08,  avg # of iterations =  4.0

     total cpu time spent up to now is        6.6 secs

     total energy              =    -503.40205360 Ry
     estimated scf accuracy    <       0.00000603 Ry

     iteration # 11     ecut=    30.00 Ry     beta= 0.50
     Davidson diagonalization with overlap
     ethr =  2.36E-09,  avg # of iterations =  4.0

     total cpu time spent up to now is        6.7 secs

     End of self-consistent calculation

          k = 0.0000 0.0000 0.0000 ( 12452 PWs)   bands (ev):

    -6.0079  -5.1172  -5.0736  -5.0275  -4.8695  -4.7899  -4.7299  -4.2616
    -4.2386  -4.1661  -4.1299  -4.0563  -4.0134  -3.9187  -3.9142  -3.8794
    -3.7764  -3.7717  -3.7367  -3.6258  -3.5613  -3.4995  -3.1643  -2.2682
    -2.1816  -2.1487  -1.9980  -1.9716  -1.9119  -1.8653  -1.8270  -1.7708
    -1.7468  -1.7007  -1.6205  -1.6168  -1.5725  -1.5469  -1.4502  -1.3721
    -1.3285  -1.1568  -0.9448  -0.9045  -0.8249   0.1888   0.2246   0.2545
     0.2653   0.3838   0.4056   0.4634   0.4856   0.5852   0.5929   0.6138
     0.6731   1.7797   1.7973   1.8463   1.8546   1.9155   1.9521   1.9728
     1.9993   2.0373   2.0629   2.0734   2.0872   2.1249   2.1451   2.1549
     2.1731   2.2160   2.2406   2.2558   2.3079   2.3520   2.4071   2.4337
     2.4785   2.5157   2.5742   2.5992   2.7167   2.7508   2.8153   2.8997
     2.9396   3.0681   3.0942   3.3439   3.3515   3.7316   3.7799   3.8155
     3.8660   3.8848   4.0039   4.0564   4.0907   4.1208   4.1544   4.2003
     4.2252   4.2884   4.2910   4.3092   4.3788   4.4221   4.4879   4.4962
     4.5471   4.5813   4.6171   4.7171   4.7997   4.8142   4.8233   4.8797
     4.8983   4.9542   5.0689   5.3456   5.6106   5.6833   6.0151   6.1907
     6.2323   6.2892   6.4368   6.5377   6.6567   6.7563   6.8257   6.8463
     6.9410   7.0314   7.0675   7.0867   7.1375   7.1669   7.1854   7.2822
     7.7871   7.8221   7.9196   8.0025   8.0923   8.1043   8.1491   8.1686
     8.2042   8.2717

     the Fermi energy is     6.1574 ev

!    total energy              =    -503.40205465 Ry
     estimated scf accuracy    <       0.00000046 Ry
     smearing contrib. (-TS)   =      -0.07320455 Ry
     internal energy E=F+TS    =    -503.32885011 Ry

     The total energy is F=E-TS. E is the sum of the following terms:
     one-electron contribution =     137.56124894 Ry
     hartree contribution      =      39.40398436 Ry
     xc contribution           =    -153.03786943 Ry
     ewald contribution        =    -527.25621397 Ry

     convergence has been achieved in  11 iterations

     Forces acting on atoms (cartesian axes, Ry/au):

     atom    1 type  1   force =    -0.06059120   -0.06072557   -0.04877051
     atom    2 type  1   force =    -0.07497435    0.08580185    0.04738489
     atom    3 type  1   force =     0.02280116   -0.05356866    0.00130626
     atom    4 type  1   force =    -0.00894857   -0.01913789   -0.07651942
     atom    5 type  1   force =     0.05444169   -0.03595429   -0.03900076
     atom    6 type  1   force =    -0.03292324   -0.03323616   -0.04115106
     atom    7 type  1   force =    -0.00462767    0.05912314    0.00980318
     atom    8 type  1   force =     0.02943336   -0.03533964   -0.00402285
     atom    9 type  1   force =    -0.01464547   -0.06140113   -0.02401450
     atom   10 type  1   force =     0.01266465   -0.00786066   -0.07063689
     atom   11 type  1   force =    -0.03369046    0.02189841   -0.08456949
     atom   12 type  1   force =     0.05092850    0.07575790   -0.04361038
     atom   13 type  1   force =     0.06275110   -0.00555147   -0.03161411
     atom   14 type  1   force =     0.02992754   -0.02315663   -0.00702151
     atom   15 type  1   force =     0.04747364    0.01024285   -0.02183812
     atom   16 type  1   force =    -0.05781356   -0.04193762   -0.00797199
     atom   17 type  1   force =     0.03138610   -0.05528885    0.01383328
     atom   18 type  1   force =    -0.02214581    0.01588385    0.03668048
     atom   19 type  1   force =    -0.08883865    0.03769704    0.04736963
     atom   20 type  1   force =    -0.01869262    0.01051356   -0.00689594
     atom   21 type  1   force =     0.00163575    0.03962359   -0.00820411
     atom   22 type  1   force =     0.00915047    0.00697232   -0.00423762
     atom   23 type  1   force =    -0.01458213   -0.00557209   -0.08882115
     atom   24 type  1   force =     0.07441109    0.08556398    0.05953822
     atom   25 type  1   force =    -0.00162911   -0.06994111    0.03588892
     atom   26 type  1   force =     0.04667472   -0.01066604    0.05150053
     atom   27 type  1   force =    -0.00732927   -0.01390735   -0.03007545
     atom   28 type  1   force =    -0.03286424   -0.02058377    0.01633070
     atom   29 type  1   force =     0.01343845   -0.06992640    0.00202713
     atom   30 type  1   force =    -0.02149115    0.01295494   -0.00613617
     atom   31 type  1   force =     0.02095498   -0.01040693   -0.01688943
     atom   32 type  1   force =     0.02948035    0.00460632    0.01477356
     atom   33 type  1   force =    -0.10490801   -0.06025420    0.03447653
     atom   34 type  1   force =     0.00531783   -0.03029375   -0.01603833
     atom   35 type  1   force =    -0.04741661    0.03260585    0.04938411
     atom   36 type  1   force =    -0.02469019   -0.00334766   -0.03468967
     atom   37 type  1   force =     0.01116767   -0.03161853   -0.00054470
     atom   38 type  1   force =    -0.08960691    0.00896767   -0.04955214
     atom   39 type  1   force =    -0.00324988    0.02954171   -0.03061780
     atom   40 type  1   force =    -0.00139031    0.05780443    0.00017082
     atom   41 type  1   force =     0.06882446    0.00915791   -0.07297169
     atom   42 type  1   force =     0.01477231   -0.04478664    0.02984137
     atom   43 type  1   force =    -0.04281407    0.06325806   -0.03751375
     atom   44 type  1   force =     0.02259448    0.01878806   -0.00411768
     atom   45 type  1   force =     0.03283937    0.04173792    0.02373417
     atom   46 type  1   force =     0.01164781    0.07781850    0.02437170
     atom   47 type  1   force =    -0.08086082    0.05642928    0.02642825
     atom   48 type  1   force =    -0.00720024    0.09834348   -0.01026169
     atom   49 type  1   force =    -0.06157864   -0.00320759   -0.01376481
     atom   50 type  1   force =    -0.05449485   -0.11011537   -0.03904756
     atom   51 type  1   force =     0.03515817    0.02559947    0.12694525
     atom   52 type  1   force =     0.05988018   -0.04777131    0.01548210
     atom   53 type  1   force =    -0.01672525   -0.12464341   -0.01890967
     atom   54 type  1   force =     0.06927494    0.05044607    0.05961578
     atom   55 type  1   force =    -0.00874251   -0.03395838    0.10207293
     atom   56 type  1   force =     0.02747832    0.00260459   -0.04038169
     atom   57 type  1   force =     0.00262461    0.01629761    0.05927006
     atom   58 type  1   force =    -0.00511240    0.00842769    0.05794846
     atom   59 type  1   force =     0.01115605   -0.01683374    0.04380513
     atom   60 type  1   force =     0.04561508   -0.00233805    0.01598266
     atom   61 type  1   force =     0.03252838   -0.04194343    0.03638521
     atom   62 type  1   force =    -0.00363498    0.04795777    0.00068066
     atom   63 type  1   force =     0.02204651   -0.00732245   -0.04307526
     atom   64 type  1   force =     0.03773343    0.08017094    0.03045594

     Total force =     0.606930     Total SCF correction =     0.000944


     Computing stress (Cartesian axis) and pressure

          total   stress  (Ry/bohr**3)                   (kbar)     P=        7.17
  -0.00005861   0.00006720   0.00005802           -8.62        9.89        8.54
   0.00006720   0.00005299   0.00003197            9.89        7.79        4.70
   0.00005802   0.00003197   0.00015184            8.54        4.70       22.34

 
     init_run     :      1.08s CPU      4.93s WALL (       1 calls)
     electrons    :      1.61s CPU      1.73s WALL (       1 calls)
     forces       :      0.04s CPU      0.05s WALL (       1 calls)
     stress       :      0.17s CPU      0.17s WALL (       1 calls)

     Called by init_run:
     wfcinit      :      0.56s CPU      4.24s WALL (       1 calls)
                                        4.24s GPU  (       1 calls)
     potinit      :      0.21s CPU      0.31s WALL (       1 calls)
     hinit0       :      0.28s CPU      0.31s WALL (       1 calls)

     Called by electrons:
     c_bands      :      1.06s CPU      1.11s WALL (      12 calls)
     sum_band     :      0.29s CPU      0.32s WALL (      12 calls)
     v_of_rho     :      0.15s CPU      0.25s WALL (      12 calls)
     mix_rho      :      0.10s CPU      0.12s WALL (      12 calls)

     Called by c_bands:
     init_us_2    :      0.05s CPU      0.05s WALL (      25 calls)
     init_us_2:gp :      0.05s CPU      0.05s WALL (      25 calls)
     regterg      :      0.95s CPU      1.00s WALL (      12 calls)

     Called by *egterg:
     rdiaghg      :      0.39s CPU      1.15s WALL (      77 calls)
                                        1.13s GPU  (      77 calls)
     h_psi        :      0.97s CPU      3.92s WALL (      79 calls)
                                        3.92s GPU  (      79 calls)
     g_psi        :      0.00s CPU      0.00s WALL (      66 calls)
                                        0.00s GPU  (      66 calls)

     Called by h_psi:
     h_psi:calbec :      0.51s CPU      3.38s WALL (      79 calls)
                                        3.38s GPU  (      79 calls)
     vloc_psi     :      0.42s CPU      0.49s WALL (      79 calls)
                                        0.49s GPU  (      79 calls)
     add_vuspsi   :      0.03s CPU      0.05s WALL (      79 calls)
                                        0.05s GPU  (      79 calls)

     General routines
     calbec       :      0.51s CPU      3.38s WALL (      84 calls)
     fft          :      0.36s CPU      0.50s WALL (     103 calls)
                                        0.13s GPU  (      66 calls)
     ffts         :      0.04s CPU      0.05s WALL (      12 calls)
     fftw         :      0.45s CPU      0.61s WALL (    1324 calls)
                                        0.55s GPU  (    1324 calls)
 
     Parallel routines
 
     PWSCF        :      2.93s CPU      6.96s WALL

 
   This run was terminated on:  11:20:23  10May2023            

=------------------------------------------------------------------------------=
   JOB DONE.
=------------------------------------------------------------------------------=
