An instance of this daemon is already running

     Program PWSCF v.7.1 starts on 10May2023 at 11:22:36 

     This program is part of the open-source Quantum ESPRESSO suite
     for quantum simulation of materials; please cite
         "P. Giannozzi et al., J. Phys.:Condens. Matter 21 395502 (2009);
         "P. Giannozzi et al., J. Phys.:Condens. Matter 29 465901 (2017);
         "P. Giannozzi et al., J. Chem. Phys. 152 154105 (2020);
          URL http://www.quantum-espresso.org", 
     in publications or presentations arising from this work. More details at
     http://www.quantum-espresso.org/quote

     Parallel version (MPI & OpenMP), running on       4 processor cores
     Number of MPI processes:                 4
     Threads/MPI process:                     1

     MPI processes distributed on     1 nodes
     753557 MiB available memory on the printing compute node when the environment starts
 
     Reading input from pw-si-77.in
Warning: card &CELL ignored
Warning: card / ignored

     Current dimensions of program PWSCF are:
     Max number of different atomic species (ntypx) = 10
     Max number of k-points (npk) =  40000
     Max angular momentum in pseudopotentials (lmaxx) =  4

     IMPORTANT: XC functional enforced from input :
     Exchange-correlation= PBE
                           (   1   4   3   4   0   0   0)
     Any further DFT definition will be discarded
     Please, verify this is what you really want


     gamma-point specific algorithms are used
 
     K-points division:     npool     =       2
     R & G space division:  proc/nbgrp/npool/nimage =       2
     Subspace diagonalization in iterative solution of the eigenvalue problem:
     a serial algorithm will be used

     Message from routine divide_et_impera:
     suboptimal parallelization: some nodes have no k-points
 
     Parallelization info
     --------------------
     sticks:   dense  smooth     PW     G-vecs:    dense   smooth      PW
     Min        1987    1987    521                93433    93433   12713
     Max        1990    1990    524                93434    93434   12716
     Sum        3977    3977   1045               186867   186867   25429
 
     Using Slab Decomposition
 


     bravais-lattice index     =            0
     lattice parameter (alat)  =      20.2935  a.u.
     unit-cell volume          =    8416.3146 (a.u.)^3
     number of atoms/cell      =           64
     number of atomic types    =            1
     number of electrons       =       256.00
     number of Kohn-Sham states=          154
     kinetic-energy cutoff     =      30.0000  Ry
     charge density cutoff     =     120.0000  Ry
     scf convergence threshold =      1.0E-06
     mixing beta               =       0.5000
     number of iterations used =            8  plain     mixing
     Exchange-correlation= PBE
                           (   1   4   3   4   0   0   0)

     GPU acceleration is ACTIVE.
     GPU-aware MPI enabled

     Message from routine print_cuda_info:
     High GPU oversubscription detected. Are you sure this is what you want?

     celldm(1)=  20.293507  celldm(2)=   0.000000  celldm(3)=   0.000000
     celldm(4)=   0.000000  celldm(5)=   0.000000  celldm(6)=   0.000000

     crystal axes: (cart. coord. in units of alat)
               a(1) = (   1.000000   0.000000   0.000000 )  
               a(2) = (   0.000000   1.010800   0.000000 )  
               a(3) = (   0.000000   0.000000   0.996290 )  

     reciprocal axes: (cart. coord. in units 2 pi/alat)
               b(1) = (  1.000000  0.000000  0.000000 )  
               b(2) = (  0.000000  0.989316  0.000000 )  
               b(3) = (  0.000000  0.000000  1.003724 )  


     PseudoPot. # 1 for Si read from file:
     /home/ppiaggi/pseudos/Si_ONCV_PBE_sr.upf
     MD5 check sum: 8553c464762ac42b85b1eed164b4d029
     Pseudo is Norm-conserving, Zval =  4.0
     Generated using ONCVPSP code by D. R. Hamann
     Using radial grid of 1510 points,  4 beta functions with: 
                l(1) =   0
                l(2) =   0
                l(3) =   1
                l(4) =   1

     atomic species   valence    mass     pseudopotential
        Si             4.00    28.08500     Si( 1.00)

     No symmetry found



   Cartesian axes

     site n.     atom                  positions (alat units)
         1           Si  tau(   1) = (  -0.0032787   0.0054701   0.0042905  )
         2           Si  tau(   2) = (  -0.0086143   0.2671097   0.2486939  )
         3           Si  tau(   3) = (   0.2434540  -0.0001536   0.2499934  )
         4           Si  tau(   4) = (   0.2376565   0.2554779  -0.0074015  )
         5           Si  tau(   5) = (   0.1252261   0.1327171   0.1152577  )
         6           Si  tau(   6) = (   0.4890669   0.0016224   0.0088476  )
         7           Si  tau(   7) = (   0.4891202   0.2592983   0.2437940  )
         8           Si  tau(   8) = (   0.6147515   0.1346731   0.1206979  )
         9           Si  tau(   9) = (   0.7296026   0.0030142   0.2401347  )
        10           Si  tau(  10) = (   0.7331506   0.2552870  -0.0043284  )
        11           Si  tau(  11) = (  -0.0005865   0.5244807  -0.0012421  )
        12           Si  tau(  12) = (   0.2490540   0.5146274   0.2481467  )
        13           Si  tau(  13) = (   0.1257612   0.6406497   0.1231992  )
        14           Si  tau(  14) = (   0.3632912   0.3885482   0.1146155  )
        15           Si  tau(  15) = (   0.4964953   0.5174218   0.0017049  )
        16           Si  tau(  16) = (   0.6116128   0.6474425   0.1215383  )
        17           Si  tau(  17) = (   0.8563859   0.3903647   0.1264150  )
        18           Si  tau(  18) = (   0.7386015   0.5265434   0.2431897  )
        19           Si  tau(  19) = (  -0.0038440   0.7794513   0.2468059  )
        20           Si  tau(  20) = (   0.2374801   0.7777955   0.0052377  )
        21           Si  tau(  21) = (   0.3679169   0.9142385   0.1250588  )
        22           Si  tau(  22) = (   0.4881398   0.7690440   0.2379025  )
        23           Si  tau(  23) = (   0.7338513   0.7786450   0.0063169  )
        24           Si  tau(  24) = (   0.8617553   0.8981743   0.1137223  )
        25           Si  tau(  25) = (  -0.0026018  -0.0076906   0.4845912  )
        26           Si  tau(  26) = (   0.2473206   0.2539369   0.4977881  )
        27           Si  tau(  27) = (   0.1207670   0.1317326   0.6172954  )
        28           Si  tau(  28) = (   0.3741374   0.1314118   0.3621880  )
        29           Si  tau(  29) = (   0.4835086   0.0077267   0.4969987  )
        30           Si  tau(  30) = (   0.6155386   0.1251884   0.6182410  )
        31           Si  tau(  31) = (   0.8566149   0.1265483   0.3599722  )
        32           Si  tau(  32) = (   0.7388872   0.2622884   0.4982812  )
        33           Si  tau(  33) = (   0.1258200   0.3954469   0.3594444  )
        34           Si  tau(  34) = (   0.0043965   0.5126175   0.4858923  )
        35           Si  tau(  35) = (   0.1225130   0.6436654   0.6049373  )
        36           Si  tau(  36) = (   0.6199124   0.3979218   0.3760347  )
        37           Si  tau(  37) = (   0.3654003   0.6394527   0.3762940  )
        38           Si  tau(  38) = (   0.3652387   0.3905256   0.6177059  )
        39           Si  tau(  39) = (   0.4878510   0.5198777   0.4982926  )
        40           Si  tau(  40) = (   0.6116766   0.6565415   0.6091689  )
        41           Si  tau(  41) = (   0.8632644   0.6406694   0.3589467  )
        42           Si  tau(  42) = (   0.8566581   0.3833995   0.6096912  )
        43           Si  tau(  43) = (   0.1249281   0.9005979   0.3691644  )
        44           Si  tau(  44) = (   0.2535041   0.7684956   0.4892579  )
        45           Si  tau(  45) = (   0.6119424   0.9153597   0.3739341  )
        46           Si  tau(  46) = (   0.3728535   0.9059133   0.6056693  )
        47           Si  tau(  47) = (   0.7328800   0.7708880   0.4828468  )
        48           Si  tau(  48) = (   0.8649108   0.9024564   0.6084497  )
        49           Si  tau(  49) = (  -0.0039009   0.2575316   0.7272682  )
        50           Si  tau(  50) = (   0.2406409   0.0017887   0.7387203  )
        51           Si  tau(  51) = (   0.3697401   0.1223338   0.8664782  )
        52           Si  tau(  52) = (   0.4889262   0.2570387   0.7351424  )
        53           Si  tau(  53) = (   0.7395839   0.0064729   0.7307936  )
        54           Si  tau(  54) = (   0.8653791   0.1307155   0.8504857  )
        55           Si  tau(  55) = (   0.1284615   0.3882269   0.8606225  )
        56           Si  tau(  56) = (   0.2478684   0.5274598   0.7377725  )
        57           Si  tau(  57) = (   0.6079875   0.3833785   0.8582714  )
        58           Si  tau(  58) = (   0.3626621   0.6515166   0.8503897  )
        59           Si  tau(  59) = (   0.7279810   0.5158653   0.7350323  )
        60           Si  tau(  60) = (   0.8621415   0.6570287   0.8566970  )
        61           Si  tau(  61) = (  -0.0036407   0.7786211   0.7435826  )
        62           Si  tau(  62) = (   0.1241682   0.9058125   0.8616390  )
        63           Si  tau(  63) = (   0.4903303   0.7859921   0.7351287  )
        64           Si  tau(  64) = (   0.6078218   0.9142445   0.8628808  )

     number of k points=     1  Fermi-Dirac smearing, width (Ry)=  0.0100
                       cart. coord. in units 2pi/alat
        k(    1) = (   0.0000000   0.0000000   0.0000000), wk =   2.0000000

     Dense  grid:    93434 G-vectors     FFT dimensions: (  72,  72,  72)

     Estimated max dynamical RAM per process >     149.47 MB

     Estimated total dynamical RAM >     575.05 MB

     Initial potential from superposition of free atoms

     starting charge     255.9608, renormalised to     256.0000
     Starting wfcs are  256 randomized atomic wfcs

     total cpu time spent up to now is        5.2 secs

     Self-consistent Calculation

     iteration #  1     ecut=    30.00 Ry     beta= 0.50
     Davidson diagonalization with overlap
     ethr =  1.00E-02,  avg # of iterations =  3.0

     Threshold (ethr) on eigenvalues was too large:
     Diagonalizing with lowered threshold

     Davidson diagonalization with overlap
     ethr =  7.14E-04,  avg # of iterations =  4.0

     total cpu time spent up to now is        5.5 secs

     total energy              =    -503.34610968 Ry
     estimated scf accuracy    <       2.02544462 Ry

     iteration #  2     ecut=    30.00 Ry     beta= 0.50
     Davidson diagonalization with overlap
     ethr =  7.91E-04,  avg # of iterations =  1.0

     total cpu time spent up to now is        5.6 secs

     total energy              =    -503.33558245 Ry
     estimated scf accuracy    <       0.37360576 Ry

     iteration #  3     ecut=    30.00 Ry     beta= 0.50
     Davidson diagonalization with overlap
     ethr =  1.46E-04,  avg # of iterations =  9.0

     total cpu time spent up to now is        5.7 secs

     total energy              =    -503.31258254 Ry
     estimated scf accuracy    <       0.38897309 Ry

     iteration #  4     ecut=    30.00 Ry     beta= 0.50
     Davidson diagonalization with overlap
     ethr =  1.46E-04,  avg # of iterations =  3.0

     total cpu time spent up to now is        5.8 secs

     total energy              =    -503.37803124 Ry
     estimated scf accuracy    <       0.02781194 Ry

     iteration #  5     ecut=    30.00 Ry     beta= 0.50
     Davidson diagonalization with overlap
     c_bands:  1 eigenvalues not converged
     ethr =  1.09E-05,  avg # of iterations = 20.0

     total cpu time spent up to now is        6.1 secs

     total energy              =    -503.38007838 Ry
     estimated scf accuracy    <       0.00940009 Ry

     iteration #  6     ecut=    30.00 Ry     beta= 0.50
     Davidson diagonalization with overlap
     ethr =  3.67E-06,  avg # of iterations = 18.0

     total cpu time spent up to now is        6.3 secs

     total energy              =    -503.38155014 Ry
     estimated scf accuracy    <       0.00288780 Ry

     iteration #  7     ecut=    30.00 Ry     beta= 0.50
     Davidson diagonalization with overlap
     ethr =  1.13E-06,  avg # of iterations =  3.0

     total cpu time spent up to now is        6.4 secs

     total energy              =    -503.38198304 Ry
     estimated scf accuracy    <       0.00039127 Ry

     iteration #  8     ecut=    30.00 Ry     beta= 0.50
     Davidson diagonalization with overlap
     ethr =  1.53E-07,  avg # of iterations =  3.0

     total cpu time spent up to now is        6.5 secs

     total energy              =    -503.38202811 Ry
     estimated scf accuracy    <       0.00006298 Ry

     iteration #  9     ecut=    30.00 Ry     beta= 0.50
     Davidson diagonalization with overlap
     ethr =  2.46E-08,  avg # of iterations =  5.0

     total cpu time spent up to now is        6.6 secs

     total energy              =    -503.38203795 Ry
     estimated scf accuracy    <       0.00001545 Ry

     iteration # 10     ecut=    30.00 Ry     beta= 0.50
     Davidson diagonalization with overlap
     ethr =  6.04E-09,  avg # of iterations =  3.0

     total cpu time spent up to now is        6.7 secs

     total energy              =    -503.38204091 Ry
     estimated scf accuracy    <       0.00000297 Ry

     iteration # 11     ecut=    30.00 Ry     beta= 0.50
     Davidson diagonalization with overlap
     ethr =  1.16E-09,  avg # of iterations =  4.0

     total cpu time spent up to now is        6.8 secs

     End of self-consistent calculation

          k = 0.0000 0.0000 0.0000 ( 11670 PWs)   bands (ev):

    -5.7870  -4.7912  -4.7805  -4.7177  -4.5774  -4.5376  -4.4416  -3.9650
    -3.8603  -3.8340  -3.7100  -3.6602  -3.5962  -3.5704  -3.5535  -3.4796
    -3.3958  -3.3776  -3.3165  -3.2488  -3.1514  -3.0944  -2.8890  -1.8169
    -1.6720  -1.6321  -1.5053  -1.4445  -1.4371  -1.3760  -1.3494  -1.3356
    -1.2535  -1.2030  -1.1719  -1.1225  -1.0663  -1.0252  -0.9966  -0.9706
    -0.8565  -0.7449  -0.6665  -0.4634  -0.3706   0.7540   0.7807   0.8104
     0.8781   0.9125   0.9383   0.9551   0.9873   1.0292   1.0578   1.1307
     1.2201   2.2267   2.2322   2.2751   2.2944   2.3328   2.4052   2.4190
     2.4536   2.5036   2.5233   2.5365   2.5765   2.5958   2.6366   2.6547
     2.6945   2.7363   2.7612   2.7790   2.7969   2.8201   2.8279   2.8640
     2.8973   3.0111   3.0642   3.0886   3.1184   3.1795   3.2354   3.4636
     3.5148   3.5432   3.5876   3.6540   3.7224   4.3208   4.3923   4.4500
     4.4565   4.5032   4.5210   4.5754   4.6319   4.6566   4.6816   4.7920
     4.7980   4.8703   4.9370   4.9726   5.0192   5.0705   5.0978   5.1293
     5.1940   5.2275   5.2367   5.3184   5.3326   5.3695   5.3861   5.4364
     5.4984   5.5613   5.6282   5.7550   5.8599   6.3897   6.6034   6.7859
     6.8380   6.9285   7.0377   7.0763   7.1991   7.3390   7.4554   7.4781
     7.5890   7.6729   7.7197   7.7975   7.9832   8.0152   8.0516   8.0876
     8.6004   8.6369   8.6765   8.6856   8.7576   8.8420   8.8760   8.9238
     8.9288   8.9827

     the Fermi energy is     6.7594 ev

!    total energy              =    -503.38204143 Ry
     estimated scf accuracy    <       0.00000029 Ry
     smearing contrib. (-TS)   =      -0.07358956 Ry
     internal energy E=F+TS    =    -503.30845187 Ry

     The total energy is F=E-TS. E is the sum of the following terms:
     one-electron contribution =     153.18448662 Ry
     hartree contribution      =      37.53210241 Ry
     xc contribution           =    -155.18224236 Ry
     ewald contribution        =    -538.84279855 Ry

     convergence has been achieved in  11 iterations

     Forces acting on atoms (cartesian axes, Ry/au):

     atom    1 type  1   force =    -0.01815276    0.03583593   -0.07112544
     atom    2 type  1   force =    -0.00365102   -0.03453340   -0.02462350
     atom    3 type  1   force =    -0.00461284    0.11294696   -0.01719395
     atom    4 type  1   force =     0.05362259    0.01727252   -0.03068753
     atom    5 type  1   force =    -0.04504157    0.00390323    0.07104034
     atom    6 type  1   force =     0.05411391    0.09850607   -0.07893127
     atom    7 type  1   force =     0.03478919    0.05707044   -0.00411744
     atom    8 type  1   force =    -0.01983727    0.00455481    0.00049374
     atom    9 type  1   force =     0.04904921    0.03241355   -0.02546069
     atom   10 type  1   force =     0.04449238    0.02616322   -0.04139777
     atom   11 type  1   force =    -0.04968134   -0.04269539   -0.03813126
     atom   12 type  1   force =     0.01792976    0.01880311   -0.03841438
     atom   13 type  1   force =    -0.02441099    0.02943483    0.02383076
     atom   14 type  1   force =     0.01109021   -0.01082754    0.00701206
     atom   15 type  1   force =    -0.03855321   -0.00923405   -0.06958770
     atom   16 type  1   force =     0.01919115   -0.00304702   -0.00982837
     atom   17 type  1   force =     0.03391239    0.00492166   -0.04896451
     atom   18 type  1   force =    -0.02790107   -0.05347380   -0.00802588
     atom   19 type  1   force =    -0.01684733   -0.03908173   -0.02618442
     atom   20 type  1   force =     0.04196440   -0.00184508   -0.04776408
     atom   21 type  1   force =    -0.04313637   -0.15214604    0.01530621
     atom   22 type  1   force =    -0.01598966    0.03866492    0.06604513
     atom   23 type  1   force =    -0.01371930   -0.02659981   -0.09933688
     atom   24 type  1   force =     0.02934501   -0.00189466    0.05827775
     atom   25 type  1   force =    -0.03997477    0.12283782    0.03423124
     atom   26 type  1   force =    -0.00290040    0.03040259   -0.04713095
     atom   27 type  1   force =    -0.01560621   -0.03534951   -0.04003067
     atom   28 type  1   force =    -0.04488682    0.00695213    0.03077247
     atom   29 type  1   force =     0.07469499    0.11060261   -0.06088162
     atom   30 type  1   force =    -0.02316405    0.06396735   -0.03184599
     atom   31 type  1   force =     0.04540669    0.02977368    0.03307022
     atom   32 type  1   force =    -0.03061719   -0.06503621   -0.05804004
     atom   33 type  1   force =    -0.01433959   -0.07314308    0.04908641
     atom   34 type  1   force =    -0.07737797    0.00277914    0.01044548
     atom   35 type  1   force =    -0.02116296    0.02876421    0.04517750
     atom   36 type  1   force =    -0.02273472   -0.01784137   -0.02910595
     atom   37 type  1   force =     0.03909327    0.00316476   -0.06978454
     atom   38 type  1   force =    -0.00132318   -0.00444689   -0.00119066
     atom   39 type  1   force =     0.02232646   -0.01899126    0.00490872
     atom   40 type  1   force =    -0.00662266   -0.03023098    0.03642333
     atom   41 type  1   force =     0.05897936    0.04485768    0.04840326
     atom   42 type  1   force =     0.07716182    0.06790132    0.03479672
     atom   43 type  1   force =     0.00509684   -0.09844098    0.00157535
     atom   44 type  1   force =    -0.04365833    0.03460612    0.01990503
     atom   45 type  1   force =    -0.01963035   -0.11154507   -0.02650634
     atom   46 type  1   force =    -0.10360031   -0.09467396    0.08247630
     atom   47 type  1   force =     0.04851263    0.01819531   -0.00410679
     atom   48 type  1   force =    -0.00022567   -0.08098788    0.00759580
     atom   49 type  1   force =    -0.02436593    0.04416409    0.04957665
     atom   50 type  1   force =     0.05514902    0.05532054   -0.03330763
     atom   51 type  1   force =    -0.01098571    0.03286276    0.00160220
     atom   52 type  1   force =    -0.01248552   -0.01822320    0.01989735
     atom   53 type  1   force =     0.01816780    0.00001994    0.04137139
     atom   54 type  1   force =     0.02295637    0.01882456    0.06112424
     atom   55 type  1   force =    -0.05208669    0.02405228   -0.00377155
     atom   56 type  1   force =    -0.04527435   -0.06403699   -0.02309318
     atom   57 type  1   force =     0.01742226    0.02183651    0.04159333
     atom   58 type  1   force =     0.05004794    0.03933467    0.10175374
     atom   59 type  1   force =     0.03765552    0.01955478    0.00315573
     atom   60 type  1   force =    -0.01131113   -0.04419071    0.04727599
     atom   61 type  1   force =    -0.00321212   -0.01190142   -0.05021252
     atom   62 type  1   force =    -0.05653348   -0.06460520    0.07185465
     atom   63 type  1   force =     0.00850703   -0.02638710    0.01577452
     atom   64 type  1   force =     0.03493667   -0.06585579    0.02292989

     Total force =     0.629529     Total SCF correction =     0.000867


     Computing stress (Cartesian axis) and pressure

          total   stress  (Ry/bohr**3)                   (kbar)     P=       68.36
   0.00049219   0.00015288  -0.00014174           72.40       22.49      -20.85
   0.00015288   0.00040505  -0.00002119           22.49       59.59       -3.12
  -0.00014174  -0.00002119   0.00049685          -20.85       -3.12       73.09

 
     init_run     :      1.25s CPU      5.15s WALL (       1 calls)
     electrons    :      1.46s CPU      1.57s WALL (       1 calls)
     forces       :      0.04s CPU      0.04s WALL (       1 calls)
     stress       :      0.16s CPU      0.16s WALL (       1 calls)

     Called by init_run:
     wfcinit      :      0.53s CPU      4.24s WALL (       1 calls)
                                        4.24s GPU  (       1 calls)
     potinit      :      0.19s CPU      0.29s WALL (       1 calls)
     hinit0       :      0.51s CPU      0.54s WALL (       1 calls)

     Called by electrons:
     c_bands      :      0.97s CPU      1.02s WALL (      12 calls)
     sum_band     :      0.26s CPU      0.29s WALL (      12 calls)
     v_of_rho     :      0.13s CPU      0.23s WALL (      12 calls)
     mix_rho      :      0.09s CPU      0.11s WALL (      12 calls)

     Called by c_bands:
     init_us_2    :      0.04s CPU      0.05s WALL (      25 calls)
     init_us_2:gp :      0.04s CPU      0.05s WALL (      25 calls)
     regterg      :      0.87s CPU      0.91s WALL (      12 calls)

     Called by *egterg:
     rdiaghg      :      0.44s CPU      1.20s WALL (      87 calls)
                                        1.18s GPU  (      87 calls)
     h_psi        :      0.81s CPU      3.79s WALL (      89 calls)
                                        3.78s GPU  (      89 calls)
     g_psi        :      0.00s CPU      0.00s WALL (      76 calls)
                                        0.00s GPU  (      76 calls)

     Called by h_psi:
     h_psi:calbec :      0.49s CPU      3.39s WALL (      89 calls)
                                        3.39s GPU  (      89 calls)
     vloc_psi     :      0.27s CPU      0.33s WALL (      89 calls)
                                        0.33s GPU  (      89 calls)
     add_vuspsi   :      0.04s CPU      0.05s WALL (      89 calls)
                                        0.05s GPU  (      89 calls)

     General routines
     calbec       :      0.49s CPU      3.40s WALL (      94 calls)
     fft          :      0.57s CPU      0.71s WALL (     103 calls)
                                        0.13s GPU  (      66 calls)
     ffts         :      0.03s CPU      0.04s WALL (      12 calls)
     fftw         :      0.33s CPU      0.44s WALL (    1342 calls)
                                        0.39s GPU  (    1342 calls)
 
     Parallel routines
 
     PWSCF        :      2.96s CPU      7.01s WALL

 
   This run was terminated on:  11:22:43  10May2023            

=------------------------------------------------------------------------------=
   JOB DONE.
=------------------------------------------------------------------------------=
