An instance of this daemon is already running
An instance of this daemon is already running

     Program PWSCF v.7.1 starts on 10May2023 at 11:19:11 

     This program is part of the open-source Quantum ESPRESSO suite
     for quantum simulation of materials; please cite
         "P. Giannozzi et al., J. Phys.:Condens. Matter 21 395502 (2009);
         "P. Giannozzi et al., J. Phys.:Condens. Matter 29 465901 (2017);
         "P. Giannozzi et al., J. Chem. Phys. 152 154105 (2020);
          URL http://www.quantum-espresso.org", 
     in publications or presentations arising from this work. More details at
     http://www.quantum-espresso.org/quote

     Parallel version (MPI & OpenMP), running on       4 processor cores
     Number of MPI processes:                 4
     Threads/MPI process:                     1

     MPI processes distributed on     1 nodes
     753577 MiB available memory on the printing compute node when the environment starts
 
     Reading input from pw-si-55.in
Warning: card &CELL ignored
Warning: card / ignored

     Current dimensions of program PWSCF are:
     Max number of different atomic species (ntypx) = 10
     Max number of k-points (npk) =  40000
     Max angular momentum in pseudopotentials (lmaxx) =  4

     IMPORTANT: XC functional enforced from input :
     Exchange-correlation= PBE
                           (   1   4   3   4   0   0   0)
     Any further DFT definition will be discarded
     Please, verify this is what you really want


     gamma-point specific algorithms are used
 
     K-points division:     npool     =       2
     R & G space division:  proc/nbgrp/npool/nimage =       2
     Subspace diagonalization in iterative solution of the eigenvalue problem:
     a serial algorithm will be used

     Message from routine divide_et_impera:
     suboptimal parallelization: some nodes have no k-points
 
     Parallelization info
     --------------------
     sticks:   dense  smooth     PW     G-vecs:    dense   smooth      PW
     Min        2001    2001    528                95471    95471   12968
     Max        2002    2002    529                95478    95478   12969
     Sum        4003    4003   1057               190949   190949   25937
 
     Using Slab Decomposition
 


     bravais-lattice index     =            0
     lattice parameter (alat)  =      20.2272  a.u.
     unit-cell volume          =    8603.7877 (a.u.)^3
     number of atoms/cell      =           64
     number of atomic types    =            1
     number of electrons       =       256.00
     number of Kohn-Sham states=          154
     kinetic-energy cutoff     =      30.0000  Ry
     charge density cutoff     =     120.0000  Ry
     scf convergence threshold =      1.0E-06
     mixing beta               =       0.5000
     number of iterations used =            8  plain     mixing
     Exchange-correlation= PBE
                           (   1   4   3   4   0   0   0)

     GPU acceleration is ACTIVE.
     GPU-aware MPI enabled

     Message from routine print_cuda_info:
     High GPU oversubscription detected. Are you sure this is what you want?

     celldm(1)=  20.227240  celldm(2)=   0.000000  celldm(3)=   0.000000
     celldm(4)=   0.000000  celldm(5)=   0.000000  celldm(6)=   0.000000

     crystal axes: (cart. coord. in units of alat)
               a(1) = (   1.000000   0.000000   0.000000 )  
               a(2) = (   0.000000   1.023409   0.000000 )  
               a(3) = (   0.000000   0.000000   1.015852 )  

     reciprocal axes: (cart. coord. in units 2 pi/alat)
               b(1) = (  1.000000  0.000000  0.000000 )  
               b(2) = (  0.000000  0.977126  0.000000 )  
               b(3) = (  0.000000  0.000000  0.984395 )  


     PseudoPot. # 1 for Si read from file:
     /home/ppiaggi/pseudos/Si_ONCV_PBE_sr.upf
     MD5 check sum: 8553c464762ac42b85b1eed164b4d029
     Pseudo is Norm-conserving, Zval =  4.0
     Generated using ONCVPSP code by D. R. Hamann
     Using radial grid of 1510 points,  4 beta functions with: 
                l(1) =   0
                l(2) =   0
                l(3) =   1
                l(4) =   1

     atomic species   valence    mass     pseudopotential
        Si             4.00    28.08500     Si( 1.00)

     No symmetry found



   Cartesian axes

     site n.     atom                  positions (alat units)
         1           Si  tau(   1) = (  -0.0020005  -0.0089869  -0.0005953  )
         2           Si  tau(   2) = (  -0.0014910   0.2668072   0.2555263  )
         3           Si  tau(   3) = (   0.2392303  -0.0031566   0.2607728  )
         4           Si  tau(   4) = (   0.2532379   0.2566526  -0.0044772  )
         5           Si  tau(   5) = (   0.1204441   0.1360491   0.1288187  )
         6           Si  tau(   6) = (   0.4814463   0.0003807   0.0005836  )
         7           Si  tau(   7) = (   0.4868958   0.2591009   0.2515662  )
         8           Si  tau(   8) = (   0.6080372   0.1245597   0.1252736  )
         9           Si  tau(   9) = (   0.7434022   0.0017471   0.2594408  )
        10           Si  tau(  10) = (   0.7436120   0.2657123   0.0075546  )
        11           Si  tau(  11) = (   0.0073489   0.5294075   0.0038664  )
        12           Si  tau(  12) = (   0.2381781   0.5222426   0.2645895  )
        13           Si  tau(  13) = (   0.1228660   0.6561198   0.1339332  )
        14           Si  tau(  14) = (   0.3651245   0.3960764   0.1257484  )
        15           Si  tau(  15) = (   0.4948890   0.5270882   0.0044937  )
        16           Si  tau(  16) = (   0.6209418   0.6658201   0.1248929  )
        17           Si  tau(  17) = (   0.8579341   0.3985882   0.1354762  )
        18           Si  tau(  18) = (   0.7399733   0.5330323   0.2675704  )
        19           Si  tau(  19) = (   0.0078480   0.7992679   0.2643836  )
        20           Si  tau(  20) = (   0.2385508   0.7920132   0.0076515  )
        21           Si  tau(  21) = (   0.3597541   0.9240891   0.1308579  )
        22           Si  tau(  22) = (   0.4939090   0.7961533   0.2503227  )
        23           Si  tau(  23) = (   0.7429582   0.7922893  -0.0042484  )
        24           Si  tau(  24) = (   0.8589110   0.9172604   0.1286482  )
        25           Si  tau(  25) = (   0.0068893   0.0070586   0.5205047  )
        26           Si  tau(  26) = (   0.2475220   0.2655331   0.5135921  )
        27           Si  tau(  27) = (   0.1209853   0.1261165   0.6409688  )
        28           Si  tau(  28) = (   0.3705871   0.1410720   0.3862159  )
        29           Si  tau(  29) = (   0.4816556   0.0058363   0.5247696  )
        30           Si  tau(  30) = (   0.6135938   0.1326091   0.6408184  )
        31           Si  tau(  31) = (   0.8574059   0.1350928   0.3950355  )
        32           Si  tau(  32) = (   0.7296476   0.2603371   0.5258762  )
        33           Si  tau(  33) = (   0.1299259   0.3862524   0.3876772  )
        34           Si  tau(  34) = (  -0.0085139   0.5226314   0.5137694  )
        35           Si  tau(  35) = (   0.1279297   0.6537212   0.6529112  )
        36           Si  tau(  36) = (   0.6172946   0.3972292   0.3876064  )
        37           Si  tau(  37) = (   0.3663698   0.6516345   0.3983133  )
        38           Si  tau(  38) = (   0.3643380   0.3994841   0.6498354  )
        39           Si  tau(  39) = (   0.4825302   0.5217166   0.5180358  )
        40           Si  tau(  40) = (   0.6184848   0.6618134   0.6479984  )
        41           Si  tau(  41) = (   0.8534927   0.6596476   0.3967587  )
        42           Si  tau(  42) = (   0.8544769   0.3921579   0.6458585  )
        43           Si  tau(  43) = (   0.1210604   0.9285524   0.3923609  )
        44           Si  tau(  44) = (   0.2435152   0.7963512   0.5256137  )
        45           Si  tau(  45) = (   0.6191511   0.9158267   0.3911801  )
        46           Si  tau(  46) = (   0.3622441   0.9257733   0.6498104  )
        47           Si  tau(  47) = (   0.7377829   0.7903326   0.5203022  )
        48           Si  tau(  48) = (   0.8488905   0.9303240   0.6514527  )
        49           Si  tau(  49) = (  -0.0041403   0.2596585   0.7756361  )
        50           Si  tau(  50) = (   0.2508315  -0.0095820   0.7726328  )
        51           Si  tau(  51) = (   0.3611610   0.1305313   0.9147544  )
        52           Si  tau(  52) = (   0.4937743   0.2645311   0.7697661  )
        53           Si  tau(  53) = (   0.7385202   0.0056874   0.7735711  )
        54           Si  tau(  54) = (   0.8629865   0.1261195   0.9121813  )
        55           Si  tau(  55) = (   0.1147043   0.3916145   0.9041901  )
        56           Si  tau(  56) = (   0.2388616   0.5211178   0.7809085  )
        57           Si  tau(  57) = (   0.6099647   0.3903817   0.8985760  )
        58           Si  tau(  58) = (   0.3755907   0.6524263   0.9164834  )
        59           Si  tau(  59) = (   0.7375277   0.5347489   0.7815399  )
        60           Si  tau(  60) = (   0.8512029   0.6613295   0.9037263  )
        61           Si  tau(  61) = (   0.0085968   0.7940898   0.7775771  )
        62           Si  tau(  62) = (   0.1146148   0.9183909   0.8997540  )
        63           Si  tau(  63) = (   0.4837282   0.7900985   0.7781594  )
        64           Si  tau(  64) = (   0.6189472   0.9245066   0.9093719  )

     number of k points=     1  Fermi-Dirac smearing, width (Ry)=  0.0100
                       cart. coord. in units 2pi/alat
        k(    1) = (   0.0000000   0.0000000   0.0000000), wk =   2.0000000

     Dense  grid:    95475 G-vectors     FFT dimensions: (  72,  75,  72)

     Estimated max dynamical RAM per process >     152.97 MB

     Estimated total dynamical RAM >     588.56 MB

     Initial potential from superposition of free atoms

     starting charge     255.9608, renormalised to     256.0000
     Starting wfcs are  256 randomized atomic wfcs

     total cpu time spent up to now is        5.1 secs

     Self-consistent Calculation

     iteration #  1     ecut=    30.00 Ry     beta= 0.50
     Davidson diagonalization with overlap
     ethr =  1.00E-02,  avg # of iterations =  3.0

     Threshold (ethr) on eigenvalues was too large:
     Diagonalizing with lowered threshold

     Davidson diagonalization with overlap
     ethr =  6.87E-04,  avg # of iterations =  4.0

     total cpu time spent up to now is        5.4 secs

     total energy              =    -503.13609696 Ry
     estimated scf accuracy    <       1.96142571 Ry

     iteration #  2     ecut=    30.00 Ry     beta= 0.50
     Davidson diagonalization with overlap
     ethr =  7.66E-04,  avg # of iterations =  2.0

     total cpu time spent up to now is        5.5 secs

     total energy              =    -503.08695679 Ry
     estimated scf accuracy    <       0.46448254 Ry

     iteration #  3     ecut=    30.00 Ry     beta= 0.50
     Davidson diagonalization with overlap
     c_bands:  1 eigenvalues not converged
     ethr =  1.81E-04,  avg # of iterations = 20.0

     total cpu time spent up to now is        5.7 secs

     total energy              =    -502.95559756 Ry
     estimated scf accuracy    <       1.60673168 Ry

     iteration #  4     ecut=    30.00 Ry     beta= 0.50
     Davidson diagonalization with overlap
     ethr =  1.81E-04,  avg # of iterations =  5.0

     total cpu time spent up to now is        5.8 secs

     total energy              =    -503.18158863 Ry
     estimated scf accuracy    <       0.05538239 Ry

     iteration #  5     ecut=    30.00 Ry     beta= 0.50
     Davidson diagonalization with overlap
     ethr =  2.16E-05,  avg # of iterations = 18.0

     total cpu time spent up to now is        6.0 secs

     total energy              =    -503.18500978 Ry
     estimated scf accuracy    <       0.03025745 Ry

     iteration #  6     ecut=    30.00 Ry     beta= 0.50
     Davidson diagonalization with overlap
     ethr =  1.18E-05,  avg # of iterations =  3.0

     total cpu time spent up to now is        6.1 secs

     total energy              =    -503.18798003 Ry
     estimated scf accuracy    <       0.00442436 Ry

     iteration #  7     ecut=    30.00 Ry     beta= 0.50
     Davidson diagonalization with overlap
     ethr =  1.73E-06,  avg # of iterations = 15.0

     total cpu time spent up to now is        6.3 secs

     total energy              =    -503.18889633 Ry
     estimated scf accuracy    <       0.00049856 Ry

     iteration #  8     ecut=    30.00 Ry     beta= 0.50
     Davidson diagonalization with overlap
     ethr =  1.95E-07,  avg # of iterations =  3.0

     total cpu time spent up to now is        6.4 secs

     total energy              =    -503.18891974 Ry
     estimated scf accuracy    <       0.00026276 Ry

     iteration #  9     ecut=    30.00 Ry     beta= 0.50
     Davidson diagonalization with overlap
     ethr =  1.03E-07,  avg # of iterations =  3.0

     total cpu time spent up to now is        6.5 secs

     total energy              =    -503.18893822 Ry
     estimated scf accuracy    <       0.00008041 Ry

     iteration # 10     ecut=    30.00 Ry     beta= 0.50
     Davidson diagonalization with overlap
     ethr =  3.14E-08,  avg # of iterations =  3.0

     total cpu time spent up to now is        6.7 secs

     total energy              =    -503.18894642 Ry
     estimated scf accuracy    <       0.00000645 Ry

     iteration # 11     ecut=    30.00 Ry     beta= 0.50
     Davidson diagonalization with overlap
     ethr =  2.52E-09,  avg # of iterations =  5.0

     total cpu time spent up to now is        6.8 secs

     total energy              =    -503.18894815 Ry
     estimated scf accuracy    <       0.00000114 Ry

     iteration # 12     ecut=    30.00 Ry     beta= 0.50
     Davidson diagonalization with overlap
     ethr =  4.46E-10,  avg # of iterations =  4.0

     total cpu time spent up to now is        6.9 secs

     total energy              =    -503.18894829 Ry
     estimated scf accuracy    <       0.00000109 Ry

     iteration # 13     ecut=    30.00 Ry     beta= 0.50
     Davidson diagonalization with overlap
     ethr =  4.27E-10,  avg # of iterations =  3.0

     total cpu time spent up to now is        7.0 secs

     End of self-consistent calculation

          k = 0.0000 0.0000 0.0000 ( 11919 PWs)   bands (ev):

    -5.9649  -5.0097  -4.9357  -4.8836  -4.7862  -4.7523  -4.5535  -4.1923
    -4.0272  -3.9811  -3.9534  -3.8466  -3.7926  -3.7599  -3.6722  -3.6306
    -3.5303  -3.4188  -3.3872  -3.3157  -3.2179  -3.1667  -3.0266  -2.1818
    -1.9820  -1.8651  -1.7607  -1.6061  -1.5609  -1.5497  -1.5150  -1.4491
    -1.3886  -1.3569  -1.2876  -1.2575  -1.2419  -1.2048  -1.1965  -1.1219
    -1.0124  -0.9229  -0.8029  -0.6147  -0.4880   0.4749   0.5287   0.6396
     0.6501   0.6752   0.6991   0.7464   0.7896   0.8332   0.8729   0.9273
     1.0082   1.9660   1.9926   2.0219   2.0433   2.1347   2.1962   2.2316
     2.2477   2.3181   2.3499   2.3747   2.3961   2.4437   2.4792   2.4873
     2.5472   2.5743   2.6140   2.6268   2.6564   2.7037   2.7233   2.7538
     2.8377   2.8648   2.9032   2.9634   3.0022   3.0351   3.0897   3.2080
     3.2914   3.3233   3.3712   3.4776   3.5284   3.9506   4.1140   4.1420
     4.2338   4.2721   4.2985   4.3531   4.3908   4.4792   4.5000   4.5304
     4.6040   4.6681   4.7234   4.7626   4.8074   4.8636   4.9077   4.9338
     5.0207   5.0863   5.0981   5.1065   5.1976   5.2342   5.2458   5.3282
     5.3609   5.3859   5.4854   5.5556   5.7433   6.1406   6.4350   6.4886
     6.5280   6.7005   6.7518   6.8710   7.0436   7.0755   7.2157   7.3418
     7.3803   7.4311   7.5262   7.5831   7.6346   7.6641   7.6853   7.7255
     8.2219   8.2458   8.3061   8.3559   8.4394   8.5051   8.5567   8.6407
     8.6852   8.7658

     the Fermi energy is     6.5068 ev

!    total energy              =    -503.18894842 Ry
     estimated scf accuracy    <       0.00000008 Ry
     smearing contrib. (-TS)   =      -0.07440102 Ry
     internal energy E=F+TS    =    -503.11454740 Ry

     The total energy is F=E-TS. E is the sum of the following terms:
     one-electron contribution =     145.74976738 Ry
     hartree contribution      =      39.03632020 Ry
     xc contribution           =    -154.41419152 Ry
     ewald contribution        =    -533.48644346 Ry

     convergence has been achieved in  13 iterations

     Forces acting on atoms (cartesian axes, Ry/au):

     atom    1 type  1   force =    -0.09113433    0.14723413    0.12775430
     atom    2 type  1   force =    -0.04027132   -0.00659620    0.01796372
     atom    3 type  1   force =     0.02357280    0.15096478   -0.00541422
     atom    4 type  1   force =    -0.10941065    0.11110966    0.10963044
     atom    5 type  1   force =    -0.00354941   -0.02186388   -0.00439686
     atom    6 type  1   force =     0.02339091    0.05762782    0.05224101
     atom    7 type  1   force =     0.03849858    0.03637521    0.00265409
     atom    8 type  1   force =     0.03179726    0.03196118    0.02371615
     atom    9 type  1   force =    -0.03024984    0.07967446    0.01750062
     atom   10 type  1   force =    -0.03653267   -0.00945765    0.01782374
     atom   11 type  1   force =    -0.09809824    0.00806219    0.03228174
     atom   12 type  1   force =     0.04222752    0.01450144   -0.01810785
     atom   13 type  1   force =    -0.00539628    0.01986974    0.02650186
     atom   14 type  1   force =    -0.00399679    0.00595537    0.02361035
     atom   15 type  1   force =     0.04371845   -0.04646752    0.06295687
     atom   16 type  1   force =    -0.00753000   -0.02445802    0.02708586
     atom   17 type  1   force =     0.05320656    0.02218295    0.00567305
     atom   18 type  1   force =    -0.01552949   -0.00679378   -0.03707334
     atom   19 type  1   force =    -0.07924493   -0.05493348   -0.01673497
     atom   20 type  1   force =     0.02402550   -0.03697518    0.01226445
     atom   21 type  1   force =     0.01334569   -0.09726882    0.00238892
     atom   22 type  1   force =    -0.01082589   -0.03878657    0.03616221
     atom   23 type  1   force =    -0.02488034    0.00953686    0.07970118
     atom   24 type  1   force =     0.06836803   -0.06796887    0.00799059
     atom   25 type  1   force =    -0.14497924    0.04042163    0.01666728
     atom   26 type  1   force =     0.00795541   -0.01974912    0.04393941
     atom   27 type  1   force =     0.05084303    0.06239008    0.05569235
     atom   28 type  1   force =    -0.02600045   -0.03908875    0.00647570
     atom   29 type  1   force =     0.06411047    0.05899347   -0.08055458
     atom   30 type  1   force =    -0.02606881   -0.01656903    0.04569508
     atom   31 type  1   force =     0.04956014    0.00991195   -0.01307372
     atom   32 type  1   force =     0.03399386    0.03642439   -0.05654526
     atom   33 type  1   force =    -0.07294421    0.03293636    0.00462483
     atom   34 type  1   force =     0.00276895   -0.00517968    0.01496224
     atom   35 type  1   force =    -0.04170575    0.01112580   -0.03267230
     atom   36 type  1   force =    -0.03643366   -0.01796583    0.00436319
     atom   37 type  1   force =    -0.02016676    0.05302799   -0.04645275
     atom   38 type  1   force =    -0.01073812   -0.02412053    0.00099572
     atom   39 type  1   force =     0.06628391    0.00603162    0.01442186
     atom   40 type  1   force =    -0.04702392   -0.01505068   -0.00024120
     atom   41 type  1   force =     0.08803881    0.01373845   -0.01021756
     atom   42 type  1   force =     0.04260748    0.02376764    0.02499475
     atom   43 type  1   force =     0.00847950   -0.11964654    0.02237292
     atom   44 type  1   force =    -0.00236960   -0.04643141   -0.02735030
     atom   45 type  1   force =    -0.04288494   -0.02606459    0.00652667
     atom   46 type  1   force =     0.08257591   -0.16226397   -0.06668946
     atom   47 type  1   force =     0.00330982    0.00194313    0.01812845
     atom   48 type  1   force =     0.15282354   -0.12779461   -0.10320113
     atom   49 type  1   force =    -0.03928432   -0.00915025   -0.01652333
     atom   50 type  1   force =    -0.11456438    0.17994793    0.10758796
     atom   51 type  1   force =     0.06895920   -0.05042725   -0.17571315
     atom   52 type  1   force =    -0.03402056   -0.02120856    0.00638599
     atom   53 type  1   force =    -0.06757850    0.12832521    0.07361951
     atom   54 type  1   force =     0.03050690    0.02630972   -0.05480681
     atom   55 type  1   force =     0.02391521   -0.02546933   -0.03352050
     atom   56 type  1   force =     0.03743025    0.01313997    0.01497307
     atom   57 type  1   force =     0.03720296    0.02072996   -0.00410344
     atom   58 type  1   force =    -0.08525819    0.05252248   -0.08386756
     atom   59 type  1   force =    -0.01484329   -0.05630633   -0.04485133
     atom   60 type  1   force =     0.13739699   -0.03182437   -0.03861516
     atom   61 type  1   force =    -0.10895036   -0.06186437   -0.05584498
     atom   62 type  1   force =     0.11604663   -0.08842502   -0.05772536
     atom   63 type  1   force =     0.04176225   -0.01287359   -0.00221799
     atom   64 type  1   force =    -0.01625729   -0.07769978   -0.08181300

     Total force =     0.802840     Total SCF correction =     0.000450


     Computing stress (Cartesian axis) and pressure

          total   stress  (Ry/bohr**3)                   (kbar)     P=       50.28
   0.00040891  -0.00012059  -0.00019696           60.15      -17.74      -28.97
  -0.00012059   0.00025174   0.00013475          -17.74       37.03       19.82
  -0.00019696   0.00013475   0.00036467          -28.97       19.82       53.64

 
     init_run     :      1.19s CPU      5.02s WALL (       1 calls)
     electrons    :      1.79s CPU      1.91s WALL (       1 calls)
     forces       :      0.04s CPU      0.05s WALL (       1 calls)
     stress       :      0.16s CPU      0.16s WALL (       1 calls)

     Called by init_run:
     wfcinit      :      0.56s CPU      4.21s WALL (       1 calls)
                                        4.21s GPU  (       1 calls)
     potinit      :      0.20s CPU      0.29s WALL (       1 calls)
     hinit0       :      0.41s CPU      0.44s WALL (       1 calls)

     Called by electrons:
     c_bands      :      1.19s CPU      1.24s WALL (      14 calls)
     sum_band     :      0.31s CPU      0.34s WALL (      14 calls)
     v_of_rho     :      0.15s CPU      0.25s WALL (      14 calls)
     mix_rho      :      0.12s CPU      0.14s WALL (      14 calls)

     Called by c_bands:
     init_us_2    :      0.05s CPU      0.05s WALL (      29 calls)
     init_us_2:gp :      0.05s CPU      0.05s WALL (      29 calls)
     regterg      :      1.07s CPU      1.12s WALL (      14 calls)

     Called by *egterg:
     rdiaghg      :      0.50s CPU      1.25s WALL (     104 calls)
                                        1.23s GPU  (     104 calls)
     h_psi        :      0.94s CPU      3.87s WALL (     106 calls)
                                        3.87s GPU  (     106 calls)
     g_psi        :      0.00s CPU      0.00s WALL (      91 calls)
                                        0.00s GPU  (      91 calls)

     Called by h_psi:
     h_psi:calbec :      0.51s CPU      3.37s WALL (     106 calls)
                                        3.37s GPU  (     106 calls)
     vloc_psi     :      0.37s CPU      0.44s WALL (     106 calls)
                                        0.43s GPU  (     106 calls)
     add_vuspsi   :      0.05s CPU      0.06s WALL (     106 calls)
                                        0.06s GPU  (     106 calls)

     General routines
     calbec       :      0.51s CPU      3.37s WALL (     111 calls)
     fft          :      0.49s CPU      0.63s WALL (     119 calls)
                                        0.13s GPU  (      76 calls)
     ffts         :      0.04s CPU      0.04s WALL (      14 calls)
     fftw         :      0.41s CPU      0.56s WALL (    1574 calls)
                                        0.49s GPU  (    1574 calls)
 
     Parallel routines
 
     PWSCF        :      3.23s CPU      7.22s WALL

 
   This run was terminated on:  11:19:18  10May2023            

=------------------------------------------------------------------------------=
   JOB DONE.
=------------------------------------------------------------------------------=
