An instance of this daemon is already running
An instance of this daemon is already running

     Program PWSCF v.7.1 starts on 10May2023 at 11:18:43 

     This program is part of the open-source Quantum ESPRESSO suite
     for quantum simulation of materials; please cite
         "P. Giannozzi et al., J. Phys.:Condens. Matter 21 395502 (2009);
         "P. Giannozzi et al., J. Phys.:Condens. Matter 29 465901 (2017);
         "P. Giannozzi et al., J. Chem. Phys. 152 154105 (2020);
          URL http://www.quantum-espresso.org", 
     in publications or presentations arising from this work. More details at
     http://www.quantum-espresso.org/quote

     Parallel version (MPI & OpenMP), running on       4 processor cores
     Number of MPI processes:                 4
     Threads/MPI process:                     1

     MPI processes distributed on     1 nodes
     753575 MiB available memory on the printing compute node when the environment starts
 
     Reading input from pw-si-52.in
Warning: card &CELL ignored
Warning: card / ignored

     Current dimensions of program PWSCF are:
     Max number of different atomic species (ntypx) = 10
     Max number of k-points (npk) =  40000
     Max angular momentum in pseudopotentials (lmaxx) =  4

     IMPORTANT: XC functional enforced from input :
     Exchange-correlation= PBE
                           (   1   4   3   4   0   0   0)
     Any further DFT definition will be discarded
     Please, verify this is what you really want


     gamma-point specific algorithms are used
 
     K-points division:     npool     =       2
     R & G space division:  proc/nbgrp/npool/nimage =       2
     Subspace diagonalization in iterative solution of the eigenvalue problem:
     a serial algorithm will be used

     Message from routine divide_et_impera:
     suboptimal parallelization: some nodes have no k-points
 
     Parallelization info
     --------------------
     sticks:   dense  smooth     PW     G-vecs:    dense   smooth      PW
     Min        2075    2075    549                97721    97721   13257
     Max        2078    2078    550                97722    97722   13262
     Sum        4153    4153   1099               195443   195443   26519
 
     Using Slab Decomposition
 


     bravais-lattice index     =            0
     lattice parameter (alat)  =      20.2886  a.u.
     unit-cell volume          =    8798.8180 (a.u.)^3
     number of atoms/cell      =           64
     number of atomic types    =            1
     number of electrons       =       256.00
     number of Kohn-Sham states=          154
     kinetic-energy cutoff     =      30.0000  Ry
     charge density cutoff     =     120.0000  Ry
     scf convergence threshold =      1.0E-06
     mixing beta               =       0.5000
     number of iterations used =            8  plain     mixing
     Exchange-correlation= PBE
                           (   1   4   3   4   0   0   0)

     GPU acceleration is ACTIVE.
     GPU-aware MPI enabled

     Message from routine print_cuda_info:
     High GPU oversubscription detected. Are you sure this is what you want?

     celldm(1)=  20.288614  celldm(2)=   0.000000  celldm(3)=   0.000000
     celldm(4)=   0.000000  celldm(5)=   0.000000  celldm(6)=   0.000000

     crystal axes: (cart. coord. in units of alat)
               a(1) = (   1.000000   0.000000   0.000000 )  
               a(2) = (   0.000000   1.053110   0.000000 )  
               a(3) = (   0.000000   0.000000   1.000446 )  

     reciprocal axes: (cart. coord. in units 2 pi/alat)
               b(1) = (  1.000000  0.000000  0.000000 )  
               b(2) = (  0.000000  0.949568  0.000000 )  
               b(3) = (  0.000000  0.000000  0.999555 )  


     PseudoPot. # 1 for Si read from file:
     /home/ppiaggi/pseudos/Si_ONCV_PBE_sr.upf
     MD5 check sum: 8553c464762ac42b85b1eed164b4d029
     Pseudo is Norm-conserving, Zval =  4.0
     Generated using ONCVPSP code by D. R. Hamann
     Using radial grid of 1510 points,  4 beta functions with: 
                l(1) =   0
                l(2) =   0
                l(3) =   1
                l(4) =   1

     atomic species   valence    mass     pseudopotential
        Si             4.00    28.08500     Si( 1.00)

     No symmetry found



   Cartesian axes

     site n.     atom                  positions (alat units)
         1           Si  tau(   1) = (  -0.0027231   0.0089799  -0.0004199  )
         2           Si  tau(   2) = (  -0.0017576   0.2712195   0.2572836  )
         3           Si  tau(   3) = (   0.2375130  -0.0027961   0.2572767  )
         4           Si  tau(   4) = (   0.2390529   0.2710856   0.0022922  )
         5           Si  tau(   5) = (   0.1190862   0.1387995   0.1218227  )
         6           Si  tau(   6) = (   0.4927533   0.0091853   0.0006486  )
         7           Si  tau(   7) = (   0.4854234   0.2635435   0.2425791  )
         8           Si  tau(   8) = (   0.6097995   0.1390737   0.1258827  )
         9           Si  tau(   9) = (   0.7326278   0.0040920   0.2514418  )
        10           Si  tau(  10) = (   0.7270618   0.2775035   0.0025607  )
        11           Si  tau(  11) = (   0.0050655   0.5388666  -0.0062431  )
        12           Si  tau(  12) = (   0.2372529   0.5499498   0.2472178  )
        13           Si  tau(  13) = (   0.1292795   0.6849131   0.1269568  )
        14           Si  tau(  14) = (   0.3688594   0.4142654   0.1267386  )
        15           Si  tau(  15) = (   0.4795042   0.5342080   0.0076474  )
        16           Si  tau(  16) = (   0.6059711   0.6731757   0.1247790  )
        17           Si  tau(  17) = (   0.8498744   0.4107624   0.1322512  )
        18           Si  tau(  18) = (   0.7262032   0.5407513   0.2572128  )
        19           Si  tau(  19) = (  -0.0027758   0.8108748   0.2427891  )
        20           Si  tau(  20) = (   0.2506427   0.8099388   0.0009235  )
        21           Si  tau(  21) = (   0.3623955   0.9505723   0.1246014  )
        22           Si  tau(  22) = (   0.4899640   0.8150935   0.2427076  )
        23           Si  tau(  23) = (   0.7249177   0.8088946   0.0039251  )
        24           Si  tau(  24) = (   0.8610207   0.9444980   0.1195429  )
        25           Si  tau(  25) = (   0.0063517   0.0061893   0.4933980  )
        26           Si  tau(  26) = (   0.2394591   0.2783567   0.5017343  )
        27           Si  tau(  27) = (   0.1190855   0.1310107   0.6203613  )
        28           Si  tau(  28) = (   0.3731396   0.1380372   0.3790546  )
        29           Si  tau(  29) = (   0.4882822  -0.0007285   0.4981734  )
        30           Si  tau(  30) = (   0.6077121   0.1372526   0.6172111  )
        31           Si  tau(  31) = (   0.8496493   0.1357595   0.3744227  )
        32           Si  tau(  32) = (   0.7274208   0.2690465   0.5022627  )
        33           Si  tau(  33) = (   0.1288931   0.4089650   0.3765462  )
        34           Si  tau(  34) = (  -0.0025193   0.5371898   0.4994139  )
        35           Si  tau(  35) = (   0.1228530   0.6830349   0.6281561  )
        36           Si  tau(  36) = (   0.6056656   0.4148211   0.3717887  )
        37           Si  tau(  37) = (   0.3669370   0.6718845   0.3749425  )
        38           Si  tau(  38) = (   0.3653537   0.3972793   0.6240660  )
        39           Si  tau(  39) = (   0.4807342   0.5454167   0.5072864  )
        40           Si  tau(  40) = (   0.6119328   0.6769917   0.6237261  )
        41           Si  tau(  41) = (   0.8438534   0.6729202   0.3816455  )
        42           Si  tau(  42) = (   0.8440347   0.4077628   0.6248911  )
        43           Si  tau(  43) = (   0.1231454   0.9536357   0.3719892  )
        44           Si  tau(  44) = (   0.2454081   0.8221572   0.5070591  )
        45           Si  tau(  45) = (   0.6015951   0.9569537   0.3827149  )
        46           Si  tau(  46) = (   0.3583055   0.9419498   0.6274107  )
        47           Si  tau(  47) = (   0.7232022   0.8174708   0.4960760  )
        48           Si  tau(  48) = (   0.8609353   0.9559770   0.6183895  )
        49           Si  tau(  49) = (  -0.0079538   0.2773814   0.7486483  )
        50           Si  tau(  50) = (   0.2500824   0.0084837   0.7591331  )
        51           Si  tau(  51) = (   0.3701769   0.1384665   0.8746632  )
        52           Si  tau(  52) = (   0.4794825   0.2739148   0.7572010  )
        53           Si  tau(  53) = (   0.7296445   0.0040407   0.7522268  )
        54           Si  tau(  54) = (   0.8554731   0.1316833   0.8724191  )
        55           Si  tau(  55) = (   0.1233863   0.3984680   0.8785597  )
        56           Si  tau(  56) = (   0.2398850   0.5395159   0.7483112  )
        57           Si  tau(  57) = (   0.6029576   0.4090215   0.8712814  )
        58           Si  tau(  58) = (   0.3721038   0.6703381   0.8726753  )
        59           Si  tau(  59) = (   0.7310209   0.5364529   0.7427186  )
        60           Si  tau(  60) = (   0.8474694   0.6712975   0.8681604  )
        61           Si  tau(  61) = (   0.0083365   0.8126157   0.7441056  )
        62           Si  tau(  62) = (   0.1155568   0.9417069   0.8829720  )
        63           Si  tau(  63) = (   0.4784500   0.8186420   0.7556744  )
        64           Si  tau(  64) = (   0.6167710   0.9503001   0.8750594  )

     number of k points=     1  Fermi-Dirac smearing, width (Ry)=  0.0100
                       cart. coord. in units 2pi/alat
        k(    1) = (   0.0000000   0.0000000   0.0000000), wk =   2.0000000

     Dense  grid:    97722 G-vectors     FFT dimensions: (  72,  75,  72)

     Estimated max dynamical RAM per process >     156.07 MB

     Estimated total dynamical RAM >     600.44 MB

     Initial potential from superposition of free atoms

     starting charge     255.9608, renormalised to     256.0000
     Starting wfcs are  256 randomized atomic wfcs

     total cpu time spent up to now is        5.1 secs

     Self-consistent Calculation

     iteration #  1     ecut=    30.00 Ry     beta= 0.50
     Davidson diagonalization with overlap
     ethr =  1.00E-02,  avg # of iterations =  3.0

     Threshold (ethr) on eigenvalues was too large:
     Diagonalizing with lowered threshold

     Davidson diagonalization with overlap
     ethr =  6.58E-04,  avg # of iterations =  8.0

     total cpu time spent up to now is        5.4 secs

     total energy              =    -503.29350387 Ry
     estimated scf accuracy    <       1.87628930 Ry

     iteration #  2     ecut=    30.00 Ry     beta= 0.50
     Davidson diagonalization with overlap
     ethr =  7.33E-04,  avg # of iterations =  2.0

     total cpu time spent up to now is        5.5 secs

     total energy              =    -503.26758603 Ry
     estimated scf accuracy    <       0.39636460 Ry

     iteration #  3     ecut=    30.00 Ry     beta= 0.50
     Davidson diagonalization with overlap
     ethr =  1.55E-04,  avg # of iterations =  5.0

     total cpu time spent up to now is        5.7 secs

     total energy              =    -503.17059981 Ry
     estimated scf accuracy    <       1.05993276 Ry

     iteration #  4     ecut=    30.00 Ry     beta= 0.50
     Davidson diagonalization with overlap
     ethr =  1.55E-04,  avg # of iterations =  4.0

     total cpu time spent up to now is        5.8 secs

     total energy              =    -503.33038697 Ry
     estimated scf accuracy    <       0.04420229 Ry

     iteration #  5     ecut=    30.00 Ry     beta= 0.50
     Davidson diagonalization with overlap
     ethr =  1.73E-05,  avg # of iterations = 16.0

     total cpu time spent up to now is        6.0 secs

     total energy              =    -503.33281704 Ry
     estimated scf accuracy    <       0.01679620 Ry

     iteration #  6     ecut=    30.00 Ry     beta= 0.50
     Davidson diagonalization with overlap
     ethr =  6.56E-06,  avg # of iterations =  5.0

     total cpu time spent up to now is        6.1 secs

     total energy              =    -503.33455302 Ry
     estimated scf accuracy    <       0.00428093 Ry

     iteration #  7     ecut=    30.00 Ry     beta= 0.50
     Davidson diagonalization with overlap
     ethr =  1.67E-06,  avg # of iterations =  4.0

     total cpu time spent up to now is        6.2 secs

     total energy              =    -503.33533882 Ry
     estimated scf accuracy    <       0.00042898 Ry

     iteration #  8     ecut=    30.00 Ry     beta= 0.50
     Davidson diagonalization with overlap
     ethr =  1.68E-07,  avg # of iterations =  4.0

     total cpu time spent up to now is        6.3 secs

     total energy              =    -503.33536827 Ry
     estimated scf accuracy    <       0.00019595 Ry

     iteration #  9     ecut=    30.00 Ry     beta= 0.50
     Davidson diagonalization with overlap
     ethr =  7.65E-08,  avg # of iterations =  3.0

     total cpu time spent up to now is        6.5 secs

     total energy              =    -503.33538053 Ry
     estimated scf accuracy    <       0.00005716 Ry

     iteration # 10     ecut=    30.00 Ry     beta= 0.50
     Davidson diagonalization with overlap
     ethr =  2.23E-08,  avg # of iterations =  4.0

     total cpu time spent up to now is        6.6 secs

     total energy              =    -503.33538806 Ry
     estimated scf accuracy    <       0.00000477 Ry

     iteration # 11     ecut=    30.00 Ry     beta= 0.50
     Davidson diagonalization with overlap
     ethr =  1.86E-09,  avg # of iterations =  4.0

     total cpu time spent up to now is        6.7 secs

     End of self-consistent calculation

          k = 0.0000 0.0000 0.0000 ( 12205 PWs)   bands (ev):

    -5.9938  -5.0864  -5.0360  -4.9249  -4.8566  -4.7008  -4.6741  -4.3258
    -4.1578  -4.0639  -4.0533  -3.9362  -3.8584  -3.8269  -3.7862  -3.7110
    -3.6900  -3.6238  -3.5691  -3.4236  -3.4015  -3.3665  -3.0158  -2.2095
    -2.1191  -1.9997  -1.9055  -1.8608  -1.7528  -1.7062  -1.6346  -1.6097
    -1.5614  -1.5409  -1.4601  -1.4495  -1.4237  -1.3897  -1.2743  -1.2291
    -1.1702  -1.0225  -0.8749  -0.8494  -0.6279   0.3005   0.3591   0.4410
     0.4592   0.4631   0.5708   0.5906   0.6073   0.6424   0.7332   0.7370
     0.8310   1.8634   1.9189   1.9426   1.9647   1.9928   2.0617   2.0808
     2.1058   2.1179   2.1396   2.1898   2.2078   2.2420   2.2664   2.2989
     2.3107   2.3750   2.4013   2.4877   2.5322   2.5725   2.5835   2.6264
     2.6522   2.6915   2.7295   2.7694   2.8425   2.9043   2.9292   3.0643
     3.0811   3.1682   3.2410   3.2828   3.4839   3.8673   3.8953   4.0129
     4.0351   4.0908   4.1351   4.1823   4.2204   4.2758   4.3157   4.3485
     4.3922   4.4249   4.4703   4.5033   4.5610   4.5805   4.6275   4.6522
     4.7091   4.7351   4.7796   4.9116   4.9268   4.9917   5.1005   5.1868
     5.2291   5.2973   5.3482   5.4369   5.6420   5.8980   6.2094   6.3578
     6.3781   6.4090   6.5300   6.7319   6.8410   6.9456   7.0201   7.0290
     7.1039   7.2117   7.2340   7.3052   7.3216   7.3690   7.4536   7.5337
     7.9957   8.0571   8.1117   8.1483   8.1862   8.2030   8.2427   8.2878
     8.3958   8.4736

     the Fermi energy is     6.3110 ev

!    total energy              =    -503.33538898 Ry
     estimated scf accuracy    <       0.00000083 Ry
     smearing contrib. (-TS)   =      -0.07533135 Ry
     internal energy E=F+TS    =    -503.26005763 Ry

     The total energy is F=E-TS. E is the sum of the following terms:
     one-electron contribution =     141.26845755 Ry
     hartree contribution      =      39.24589868 Ry
     xc contribution           =    -153.61632368 Ry
     ewald contribution        =    -530.15809018 Ry

     convergence has been achieved in  11 iterations

     Forces acting on atoms (cartesian axes, Ry/au):

     atom    1 type  1   force =    -0.06348916    0.05122100    0.00947145
     atom    2 type  1   force =    -0.04736225    0.00765721   -0.01705992
     atom    3 type  1   force =     0.10147626    0.17612287   -0.09654503
     atom    4 type  1   force =     0.05055570   -0.00056713    0.00599654
     atom    5 type  1   force =    -0.00709141    0.00274080    0.04550192
     atom    6 type  1   force =    -0.01050071    0.04473143    0.00190059
     atom    7 type  1   force =     0.00316915    0.05824371    0.03601129
     atom    8 type  1   force =     0.02731821   -0.00034039   -0.01126489
     atom    9 type  1   force =     0.00620473    0.04016111   -0.01955146
     atom   10 type  1   force =     0.02882305   -0.00940765   -0.01833386
     atom   11 type  1   force =    -0.06465558    0.02405044    0.03429033
     atom   12 type  1   force =     0.03755623   -0.03737608    0.02320291
     atom   13 type  1   force =    -0.05046692   -0.02181040   -0.04105147
     atom   14 type  1   force =    -0.07458315   -0.06300679    0.03848114
     atom   15 type  1   force =     0.06620687    0.04921558   -0.06337988
     atom   16 type  1   force =     0.00067961   -0.00689310    0.00743123
     atom   17 type  1   force =     0.06592544   -0.00639339   -0.01962267
     atom   18 type  1   force =     0.02281477    0.02363915   -0.03544850
     atom   19 type  1   force =    -0.04766381    0.00080847    0.04050286
     atom   20 type  1   force =    -0.00093485   -0.00566428   -0.01912806
     atom   21 type  1   force =     0.01644955   -0.06428093   -0.01214002
     atom   22 type  1   force =    -0.01179625   -0.01190063    0.03933154
     atom   23 type  1   force =     0.04172204   -0.01145671   -0.02670847
     atom   24 type  1   force =     0.01145345   -0.05365195    0.01147330
     atom   25 type  1   force =    -0.11516998    0.07247190    0.03258937
     atom   26 type  1   force =     0.02061766   -0.05668677   -0.00546827
     atom   27 type  1   force =     0.01415091    0.06031014    0.04304179
     atom   28 type  1   force =    -0.05651211    0.00977857   -0.00979056
     atom   29 type  1   force =    -0.10261619    0.12987337    0.11809381
     atom   30 type  1   force =    -0.02114928    0.00476334    0.05780146
     atom   31 type  1   force =     0.06870859    0.02658330    0.01409011
     atom   32 type  1   force =     0.00993839    0.02935826   -0.03689915
     atom   33 type  1   force =    -0.04597144    0.01341563   -0.02115939
     atom   34 type  1   force =    -0.04909908    0.02179753    0.01928078
     atom   35 type  1   force =     0.00473056   -0.04599240   -0.04090232
     atom   36 type  1   force =    -0.03560894   -0.05386001    0.03541710
     atom   37 type  1   force =    -0.01526310    0.05054651   -0.00082991
     atom   38 type  1   force =    -0.01428444    0.05520041    0.01809695
     atom   39 type  1   force =     0.02522264   -0.02799617   -0.01406679
     atom   40 type  1   force =    -0.02947014    0.02475156    0.01684091
     atom   41 type  1   force =     0.07683741    0.01601693   -0.01302427
     atom   42 type  1   force =     0.09521906   -0.02494718   -0.02703014
     atom   43 type  1   force =    -0.07322723   -0.19830994    0.05056910
     atom   44 type  1   force =    -0.03412089   -0.07516932   -0.06664634
     atom   45 type  1   force =     0.09788641   -0.15964750   -0.13463242
     atom   46 type  1   force =     0.04216248   -0.00008650    0.01725246
     atom   47 type  1   force =     0.03806586   -0.00779495    0.02496793
     atom   48 type  1   force =     0.02820608   -0.08350292   -0.00364659
     atom   49 type  1   force =    -0.03498685   -0.03263074   -0.01256108
     atom   50 type  1   force =    -0.05994910    0.03048523   -0.01297286
     atom   51 type  1   force =    -0.02210153    0.01793110    0.04854714
     atom   52 type  1   force =     0.04737146   -0.01074166   -0.04725116
     atom   53 type  1   force =     0.05216297    0.08934533   -0.07235340
     atom   54 type  1   force =     0.03231510    0.05883432    0.02184593
     atom   55 type  1   force =    -0.02168791    0.03094011   -0.03256126
     atom   56 type  1   force =     0.01667119   -0.01528405    0.00510355
     atom   57 type  1   force =     0.01308831    0.00494744    0.02533590
     atom   58 type  1   force =    -0.03619562    0.00255459    0.01595065
     atom   59 type  1   force =    -0.02881799    0.02714092    0.03190786
     atom   60 type  1   force =     0.07180272    0.01829744    0.01864177
     atom   61 type  1   force =    -0.10759107    0.01357136    0.02956737
     atom   62 type  1   force =     0.04757664   -0.05242513   -0.03458189
     atom   63 type  1   force =     0.06164588   -0.03689121   -0.01191751
     atom   64 type  1   force =    -0.06236842   -0.11279118    0.03999246

     Total force =     0.691375     Total SCF correction =     0.001588


     Computing stress (Cartesian axis) and pressure

          total   stress  (Ry/bohr**3)                   (kbar)     P=       23.85
   0.00023098   0.00003002  -0.00013908           33.98        4.42      -20.46
   0.00003002  -0.00002519   0.00002255            4.42       -3.71        3.32
  -0.00013908   0.00002255   0.00028050          -20.46        3.32       41.26

 
     init_run     :      1.19s CPU      5.07s WALL (       1 calls)
     electrons    :      1.43s CPU      1.54s WALL (       1 calls)
     forces       :      0.04s CPU      0.04s WALL (       1 calls)
     stress       :      0.16s CPU      0.17s WALL (       1 calls)

     Called by init_run:
     wfcinit      :      0.54s CPU      4.25s WALL (       1 calls)
                                        4.25s GPU  (       1 calls)
     potinit      :      0.21s CPU      0.30s WALL (       1 calls)
     hinit0       :      0.41s CPU      0.44s WALL (       1 calls)

     Called by electrons:
     c_bands      :      0.91s CPU      0.97s WALL (      12 calls)
     sum_band     :      0.27s CPU      0.30s WALL (      12 calls)
     v_of_rho     :      0.14s CPU      0.23s WALL (      12 calls)
     mix_rho      :      0.10s CPU      0.11s WALL (      12 calls)

     Called by c_bands:
     init_us_2    :      0.04s CPU      0.05s WALL (      25 calls)
     init_us_2:gp :      0.04s CPU      0.05s WALL (      25 calls)
     regterg      :      0.81s CPU      0.86s WALL (      12 calls)

     Called by *egterg:
     rdiaghg      :      0.36s CPU      1.12s WALL (      73 calls)
                                        1.10s GPU  (      73 calls)
     h_psi        :      0.85s CPU      3.82s WALL (      75 calls)
                                        3.82s GPU  (      75 calls)
     g_psi        :      0.00s CPU      0.00s WALL (      62 calls)
                                        0.00s GPU  (      62 calls)

     Called by h_psi:
     h_psi:calbec :      0.49s CPU      3.39s WALL (      75 calls)
                                        3.39s GPU  (      75 calls)
     vloc_psi     :      0.32s CPU      0.38s WALL (      75 calls)
                                        0.38s GPU  (      75 calls)
     add_vuspsi   :      0.03s CPU      0.04s WALL (      75 calls)
                                        0.04s GPU  (      75 calls)

     General routines
     calbec       :      0.49s CPU      3.39s WALL (      80 calls)
     fft          :      0.48s CPU      0.61s WALL (     103 calls)
                                        0.13s GPU  (      66 calls)
     ffts         :      0.04s CPU      0.04s WALL (      12 calls)
     fftw         :      0.37s CPU      0.49s WALL (    1316 calls)
                                        0.44s GPU  (    1316 calls)
 
     Parallel routines
 
     PWSCF        :      2.86s CPU      6.90s WALL

 
   This run was terminated on:  11:18:49  10May2023            

=------------------------------------------------------------------------------=
   JOB DONE.
=------------------------------------------------------------------------------=
