An instance of this daemon is already running
An instance of this daemon is already running

     Program PWSCF v.7.1 starts on 10May2023 at 11:11:40 

     This program is part of the open-source Quantum ESPRESSO suite
     for quantum simulation of materials; please cite
         "P. Giannozzi et al., J. Phys.:Condens. Matter 21 395502 (2009);
         "P. Giannozzi et al., J. Phys.:Condens. Matter 29 465901 (2017);
         "P. Giannozzi et al., J. Chem. Phys. 152 154105 (2020);
          URL http://www.quantum-espresso.org", 
     in publications or presentations arising from this work. More details at
     http://www.quantum-espresso.org/quote

     Parallel version (MPI & OpenMP), running on       4 processor cores
     Number of MPI processes:                 4
     Threads/MPI process:                     1

     MPI processes distributed on     1 nodes
     753561 MiB available memory on the printing compute node when the environment starts
 
     Reading input from pw-si-7.in
Warning: card &CELL ignored
Warning: card / ignored

     Current dimensions of program PWSCF are:
     Max number of different atomic species (ntypx) = 10
     Max number of k-points (npk) =  40000
     Max angular momentum in pseudopotentials (lmaxx) =  4

     IMPORTANT: XC functional enforced from input :
     Exchange-correlation= PBE
                           (   1   4   3   4   0   0   0)
     Any further DFT definition will be discarded
     Please, verify this is what you really want


     gamma-point specific algorithms are used
 
     K-points division:     npool     =       2
     R & G space division:  proc/nbgrp/npool/nimage =       2
     Subspace diagonalization in iterative solution of the eigenvalue problem:
     a serial algorithm will be used

     Message from routine divide_et_impera:
     suboptimal parallelization: some nodes have no k-points
 
     Parallelization info
     --------------------
     sticks:   dense  smooth     PW     G-vecs:    dense   smooth      PW
     Min        2051    2051    543                97821    97821   13275
     Max        2054    2054    544                97822    97822   13276
     Sum        4105    4105   1087               195643   195643   26551
 
     Using Slab Decomposition
 


     bravais-lattice index     =            0
     lattice parameter (alat)  =      21.3004  a.u.
     unit-cell volume          =    8814.7768 (a.u.)^3
     number of atoms/cell      =           64
     number of atomic types    =            1
     number of electrons       =       256.00
     number of Kohn-Sham states=          154
     kinetic-energy cutoff     =      30.0000  Ry
     charge density cutoff     =     120.0000  Ry
     scf convergence threshold =      1.0E-06
     mixing beta               =       0.5000
     number of iterations used =            8  plain     mixing
     Exchange-correlation= PBE
                           (   1   4   3   4   0   0   0)

     GPU acceleration is ACTIVE.
     GPU-aware MPI enabled

     Message from routine print_cuda_info:
     High GPU oversubscription detected. Are you sure this is what you want?

     celldm(1)=  21.300362  celldm(2)=   0.000000  celldm(3)=   0.000000
     celldm(4)=   0.000000  celldm(5)=   0.000000  celldm(6)=   0.000000

     crystal axes: (cart. coord. in units of alat)
               a(1) = (   1.000000   0.000000   0.000000 )  
               a(2) = (   0.000000   0.946223   0.000000 )  
               a(3) = (   0.000000   0.000000   0.963955 )  

     reciprocal axes: (cart. coord. in units 2 pi/alat)
               b(1) = (  1.000000  0.000000  0.000000 )  
               b(2) = (  0.000000  1.056833  0.000000 )  
               b(3) = (  0.000000  0.000000  1.037393 )  


     PseudoPot. # 1 for Si read from file:
     /home/ppiaggi/pseudos/Si_ONCV_PBE_sr.upf
     MD5 check sum: 8553c464762ac42b85b1eed164b4d029
     Pseudo is Norm-conserving, Zval =  4.0
     Generated using ONCVPSP code by D. R. Hamann
     Using radial grid of 1510 points,  4 beta functions with: 
                l(1) =   0
                l(2) =   0
                l(3) =   1
                l(4) =   1

     atomic species   valence    mass     pseudopotential
        Si             4.00    28.08500     Si( 1.00)

     No symmetry found



   Cartesian axes

     site n.     atom                  positions (alat units)
         1           Si  tau(   1) = (   0.0085504   0.0051584  -0.0049486  )
         2           Si  tau(   2) = (  -0.0067319   0.2282227   0.2474680  )
         3           Si  tau(   3) = (   0.2403696   0.0001882   0.2409590  )
         4           Si  tau(   4) = (   0.2406934   0.2412754   0.0044455  )
         5           Si  tau(   5) = (   0.1302476   0.1135951   0.1279967  )
         6           Si  tau(   6) = (   0.5015094   0.0016362  -0.0013061  )
         7           Si  tau(   7) = (   0.4992997   0.2253959   0.2435407  )
         8           Si  tau(   8) = (   0.6293467   0.1250122   0.1212870  )
         9           Si  tau(   9) = (   0.7421042  -0.0059992   0.2354323  )
        10           Si  tau(  10) = (   0.7539745   0.2349723  -0.0037769  )
        11           Si  tau(  11) = (  -0.0077450   0.4728992  -0.0015247  )
        12           Si  tau(  12) = (   0.2404933   0.4732995   0.2384334  )
        13           Si  tau(  13) = (   0.1156588   0.5821542   0.1255812  )
        14           Si  tau(  14) = (   0.3678000   0.3481132   0.1202819  )
        15           Si  tau(  15) = (   0.4884126   0.4621158   0.0070493  )
        16           Si  tau(  16) = (   0.6294632   0.5911245   0.1258380  )
        17           Si  tau(  17) = (   0.8753561   0.3564488   0.1211811  )
        18           Si  tau(  18) = (   0.7513990   0.4634915   0.2399320  )
        19           Si  tau(  19) = (   0.0008076   0.7062311   0.2466009  )
        20           Si  tau(  20) = (   0.2521062   0.6941374   0.0048030  )
        21           Si  tau(  21) = (   0.3662491   0.8111635   0.1146627  )
        22           Si  tau(  22) = (   0.5016169   0.6994526   0.2478212  )
        23           Si  tau(  23) = (   0.7538226   0.6923107  -0.0060314  )
        24           Si  tau(  24) = (   0.8675684   0.8175605   0.1211676  )
        25           Si  tau(  25) = (   0.0081837   0.0010994   0.4845369  )
        26           Si  tau(  26) = (   0.2480226   0.2311338   0.4755048  )
        27           Si  tau(  27) = (   0.1274245   0.1232196   0.6084436  )
        28           Si  tau(  28) = (   0.3695520   0.1218290   0.3550107  )
        29           Si  tau(  29) = (   0.4924612   0.0071713   0.4769601  )
        30           Si  tau(  30) = (   0.6119463   0.1082321   0.6045757  )
        31           Si  tau(  31) = (   0.8615355   0.1109603   0.3608590  )
        32           Si  tau(  32) = (   0.7476549   0.2293688   0.4885859  )
        33           Si  tau(  33) = (   0.1225068   0.3459194   0.3553753  )
        34           Si  tau(  34) = (   0.0025103   0.4609167   0.4887180  )
        35           Si  tau(  35) = (   0.1330750   0.5780681   0.6055516  )
        36           Si  tau(  36) = (   0.6273804   0.3499727   0.3632562  )
        37           Si  tau(  37) = (   0.3744745   0.5768360   0.3635471  )
        38           Si  tau(  38) = (   0.3697748   0.3497254   0.6051202  )
        39           Si  tau(  39) = (   0.4942656   0.4677310   0.4805480  )
        40           Si  tau(  40) = (   0.6291474   0.5834012   0.5949764  )
        41           Si  tau(  41) = (   0.8641846   0.5874582   0.3642396  )
        42           Si  tau(  42) = (   0.8765358   0.3429668   0.6064069  )
        43           Si  tau(  43) = (   0.1298758   0.8214705   0.3633050  )
        44           Si  tau(  44) = (   0.2517144   0.6931919   0.4851596  )
        45           Si  tau(  45) = (   0.6207988   0.8128618   0.3652229  )
        46           Si  tau(  46) = (   0.3661144   0.8199927   0.6094969  )
        47           Si  tau(  47) = (   0.7496061   0.6991829   0.4845021  )
        48           Si  tau(  48) = (   0.8694680   0.8085988   0.5932695  )
        49           Si  tau(  49) = (  -0.0072272   0.2310405   0.7283143  )
        50           Si  tau(  50) = (   0.2449323   0.0067073   0.7233017  )
        51           Si  tau(  51) = (   0.3725736   0.1204871   0.8429102  )
        52           Si  tau(  52) = (   0.4994217   0.2376137   0.7228797  )
        53           Si  tau(  53) = (   0.7373650  -0.0076683   0.7144650  )
        54           Si  tau(  54) = (   0.8736116   0.1100459   0.8488217  )
        55           Si  tau(  55) = (   0.1192956   0.3546996   0.8359615  )
        56           Si  tau(  56) = (   0.2572161   0.4704539   0.7154622  )
        57           Si  tau(  57) = (   0.6123672   0.3440703   0.8423448  )
        58           Si  tau(  58) = (   0.3668889   0.5771741   0.8476715  )
        59           Si  tau(  59) = (   0.7382249   0.4648260   0.7227092  )
        60           Si  tau(  60) = (   0.8723034   0.5780055   0.8475082  )
        61           Si  tau(  61) = (  -0.0068158   0.6964142   0.7157997  )
        62           Si  tau(  62) = (   0.1188438   0.8167597   0.8355283  )
        63           Si  tau(  63) = (   0.5030453   0.6951881   0.7299210  )
        64           Si  tau(  64) = (   0.6215170   0.8184545   0.8371787  )

     number of k points=     1  Fermi-Dirac smearing, width (Ry)=  0.0100
                       cart. coord. in units 2pi/alat
        k(    1) = (   0.0000000   0.0000000   0.0000000), wk =   2.0000000

     Dense  grid:    97822 G-vectors     FFT dimensions: (  75,  72,  72)

     Estimated max dynamical RAM per process >     156.33 MB

     Estimated total dynamical RAM >     601.44 MB

     Initial potential from superposition of free atoms

     starting charge     255.9608, renormalised to     256.0000
     Starting wfcs are  256 randomized atomic wfcs

     total cpu time spent up to now is        5.2 secs

     Self-consistent Calculation

     iteration #  1     ecut=    30.00 Ry     beta= 0.50
     Davidson diagonalization with overlap
     ethr =  1.00E-02,  avg # of iterations =  3.0

     Threshold (ethr) on eigenvalues was too large:
     Diagonalizing with lowered threshold

     Davidson diagonalization with overlap
     ethr =  6.61E-04,  avg # of iterations =  4.0

     total cpu time spent up to now is        5.5 secs

     total energy              =    -503.62722168 Ry
     estimated scf accuracy    <       1.87487913 Ry

     iteration #  2     ecut=    30.00 Ry     beta= 0.50
     Davidson diagonalization with overlap
     ethr =  7.32E-04,  avg # of iterations =  1.0

     total cpu time spent up to now is        5.6 secs

     total energy              =    -503.62110972 Ry
     estimated scf accuracy    <       0.33648616 Ry

     iteration #  3     ecut=    30.00 Ry     beta= 0.50
     Davidson diagonalization with overlap
     ethr =  1.31E-04,  avg # of iterations = 13.0

     total cpu time spent up to now is        5.7 secs

     total energy              =    -503.63737373 Ry
     estimated scf accuracy    <       0.04168479 Ry

     iteration #  4     ecut=    30.00 Ry     beta= 0.50
     Davidson diagonalization with overlap
     ethr =  1.63E-05,  avg # of iterations = 12.0

     total cpu time spent up to now is        5.9 secs

     total energy              =    -503.64638744 Ry
     estimated scf accuracy    <       0.01852070 Ry

     iteration #  5     ecut=    30.00 Ry     beta= 0.50
     Davidson diagonalization with overlap
     ethr =  7.23E-06,  avg # of iterations =  6.0

     total cpu time spent up to now is        6.0 secs

     total energy              =    -503.64907215 Ry
     estimated scf accuracy    <       0.00226648 Ry

     iteration #  6     ecut=    30.00 Ry     beta= 0.50
     Davidson diagonalization with overlap
     ethr =  8.85E-07,  avg # of iterations = 16.0

     total cpu time spent up to now is        6.2 secs

     total energy              =    -503.64943684 Ry
     estimated scf accuracy    <       0.00054045 Ry

     iteration #  7     ecut=    30.00 Ry     beta= 0.50
     Davidson diagonalization with overlap
     ethr =  2.11E-07,  avg # of iterations =  3.0

     total cpu time spent up to now is        6.3 secs

     total energy              =    -503.64949795 Ry
     estimated scf accuracy    <       0.00020697 Ry

     iteration #  8     ecut=    30.00 Ry     beta= 0.50
     Davidson diagonalization with overlap
     ethr =  8.08E-08,  avg # of iterations =  4.0

     total cpu time spent up to now is        6.5 secs

     total energy              =    -503.64953431 Ry
     estimated scf accuracy    <       0.00001040 Ry

     iteration #  9     ecut=    30.00 Ry     beta= 0.50
     Davidson diagonalization with overlap
     ethr =  4.06E-09,  avg # of iterations =  4.0

     total cpu time spent up to now is        6.6 secs

     total energy              =    -503.64953693 Ry
     estimated scf accuracy    <       0.00000156 Ry

     iteration # 10     ecut=    30.00 Ry     beta= 0.50
     Davidson diagonalization with overlap
     ethr =  6.11E-10,  avg # of iterations =  5.0

     total cpu time spent up to now is        6.7 secs

     End of self-consistent calculation

          k = 0.0000 0.0000 0.0000 ( 12243 PWs)   bands (ev):

    -5.8455  -4.9457  -4.8483  -4.8427  -4.7964  -4.7189  -4.5603  -4.0650
    -4.0497  -3.9810  -3.9533  -3.8762  -3.8609  -3.8168  -3.7457  -3.7287
    -3.6874  -3.6236  -3.5711  -3.5211  -3.4841  -3.4597  -3.2388  -2.0415
    -1.9954  -1.8434  -1.7998  -1.7896  -1.7540  -1.7032  -1.6699  -1.6429
    -1.5874  -1.5535  -1.5067  -1.4793  -1.4159  -1.3875  -1.3734  -1.3588
    -1.2710  -0.9675  -0.7973  -0.7568  -0.7345   0.3462   0.3805   0.4148
     0.4726   0.4964   0.5415   0.6069   0.6796   0.7111   0.7766   0.7946
     0.8280   1.9740   2.0436   2.0725   2.0803   2.1156   2.1500   2.1693
     2.1718   2.2071   2.2164   2.2313   2.2647   2.2782   2.2898   2.3147
     2.3535   2.3900   2.4084   2.4412   2.4634   2.4840   2.5161   2.5225
     2.5555   2.5887   2.6337   2.6539   2.6776   2.7261   2.8116   3.0482
     3.0654   3.2196   3.2249   3.4723   3.5217   3.8710   3.9062   4.0332
     4.0687   4.1256   4.1843   4.2437   4.2537   4.2931   4.3378   4.3796
     4.4128   4.4730   4.5107   4.5302   4.5547   4.5956   4.6048   4.6478
     4.7001   4.7228   4.7886   4.8233   4.9219   4.9944   5.0343   5.0432
     5.0808   5.1221   5.1803   5.2283   5.3659   5.8689   6.1667   6.2477
     6.4727   6.5273   6.6125   6.7173   6.8714   6.9882   7.0583   7.0744
     7.1147   7.1288   7.3177   7.3512   7.3785   7.3837   7.3984   7.4484
     8.0738   8.1105   8.1744   8.2684   8.2936   8.3513   8.3789   8.4035
     8.5154   8.5801

     the Fermi energy is     6.3244 ev

!    total energy              =    -503.64953698 Ry
     estimated scf accuracy    <       0.00000074 Ry
     smearing contrib. (-TS)   =      -0.06420055 Ry
     internal energy E=F+TS    =    -503.58533643 Ry

     The total energy is F=E-TS. E is the sum of the following terms:
     one-electron contribution =     145.87812291 Ry
     hartree contribution      =      36.97646919 Ry
     xc contribution           =    -153.59843152 Ry
     ewald contribution        =    -532.84149701 Ry

     convergence has been achieved in  10 iterations

     Forces acting on atoms (cartesian axes, Ry/au):

     atom    1 type  1   force =    -0.01681199   -0.06306092    0.03414165
     atom    2 type  1   force =    -0.00412535   -0.00220969   -0.03308144
     atom    3 type  1   force =     0.07451636   -0.06461323    0.01319757
     atom    4 type  1   force =     0.00677337   -0.02863961   -0.03384766
     atom    5 type  1   force =    -0.06657560    0.04803783   -0.04431065
     atom    6 type  1   force =    -0.00995034   -0.02543088    0.00443752
     atom    7 type  1   force =     0.00897271    0.06394258   -0.01887957
     atom    8 type  1   force =    -0.01725443   -0.03921565   -0.02006985
     atom    9 type  1   force =    -0.00139911   -0.02398231    0.02212703
     atom   10 type  1   force =    -0.01547738    0.02019599    0.01004167
     atom   11 type  1   force =     0.05276437   -0.03528284    0.01603577
     atom   12 type  1   force =     0.03605554   -0.03999522    0.01744729
     atom   13 type  1   force =    -0.00057756    0.03618564   -0.02848506
     atom   14 type  1   force =     0.00160753   -0.00243173    0.04982727
     atom   15 type  1   force =     0.05486723    0.03027185   -0.01110247
     atom   16 type  1   force =    -0.02637060   -0.04463657   -0.02087234
     atom   17 type  1   force =     0.00924471   -0.04646240   -0.00862397
     atom   18 type  1   force =    -0.01978510    0.02900230    0.01406399
     atom   19 type  1   force =    -0.03286887    0.00099481   -0.00066516
     atom   20 type  1   force =    -0.07725238    0.00058740   -0.04048639
     atom   21 type  1   force =     0.05874516    0.07379040    0.05459823
     atom   22 type  1   force =    -0.03967672    0.00122776   -0.03054619
     atom   23 type  1   force =    -0.03783748    0.06677631    0.02387258
     atom   24 type  1   force =     0.03902284    0.01991909   -0.02100137
     atom   25 type  1   force =    -0.04102635   -0.02456200   -0.00842881
     atom   26 type  1   force =    -0.00499478    0.02832559    0.02776980
     atom   27 type  1   force =    -0.02875465   -0.00068086   -0.02525691
     atom   28 type  1   force =    -0.00863923   -0.04811527    0.00886732
     atom   29 type  1   force =    -0.01392401   -0.07780797    0.00472054
     atom   30 type  1   force =     0.02404456    0.04605832   -0.01241015
     atom   31 type  1   force =     0.03485377   -0.01430598    0.01714046
     atom   32 type  1   force =    -0.01727390   -0.00621904   -0.00391587
     atom   33 type  1   force =    -0.00699626    0.01602905    0.02547501
     atom   34 type  1   force =    -0.01163542    0.01834352   -0.02832455
     atom   35 type  1   force =    -0.06150771    0.02467194   -0.02367289
     atom   36 type  1   force =    -0.02123368   -0.01663641    0.00403845
     atom   37 type  1   force =    -0.02178201    0.02869191   -0.02805406
     atom   38 type  1   force =     0.02952303   -0.02254992   -0.04719678
     atom   39 type  1   force =     0.03627943   -0.02860860    0.01935106
     atom   40 type  1   force =    -0.05231452   -0.00833482    0.03663551
     atom   41 type  1   force =     0.06604508   -0.03728243   -0.01081835
     atom   42 type  1   force =    -0.03468398    0.02654531   -0.00102939
     atom   43 type  1   force =    -0.00900710   -0.00084841    0.02180883
     atom   44 type  1   force =     0.00301655    0.04110106   -0.01257642
     atom   45 type  1   force =     0.00405613    0.06609805    0.00682600
     atom   46 type  1   force =     0.03307731    0.01347518   -0.01260358
     atom   47 type  1   force =    -0.03624920    0.00699077   -0.04118166
     atom   48 type  1   force =     0.04206482    0.09023269    0.03955052
     atom   49 type  1   force =     0.01877720   -0.01063149    0.00112512
     atom   50 type  1   force =     0.01623381   -0.05544763    0.01856272
     atom   51 type  1   force =    -0.00925219    0.00330588    0.02150955
     atom   52 type  1   force =    -0.04243730   -0.04648055   -0.02345294
     atom   53 type  1   force =     0.05870244   -0.02123150    0.02227161
     atom   54 type  1   force =    -0.02563873   -0.00940690   -0.04152557
     atom   55 type  1   force =     0.00961266    0.01022476    0.02402152
     atom   56 type  1   force =    -0.03426751   -0.02879336    0.05518201
     atom   57 type  1   force =     0.04815184    0.04287006    0.04353596
     atom   58 type  1   force =     0.04514125    0.01427460   -0.00504568
     atom   59 type  1   force =     0.03749633   -0.01699610    0.00673166
     atom   60 type  1   force =    -0.01504753    0.00829822   -0.07867403
     atom   61 type  1   force =     0.01302897   -0.01071540    0.02011632
     atom   62 type  1   force =     0.02082585    0.01622172    0.02163347
     atom   63 type  1   force =    -0.03934572   -0.00088404   -0.03708823
     atom   64 type  1   force =     0.01847386    0.00980911    0.04656397

     Total force =     0.455197     Total SCF correction =     0.001578


     Computing stress (Cartesian axis) and pressure

          total   stress  (Ry/bohr**3)                   (kbar)     P=       15.77
  -0.00004666  -0.00000685   0.00006766           -6.86       -1.01        9.95
  -0.00000685   0.00020103   0.00001823           -1.01       29.57        2.68
   0.00006766   0.00001823   0.00016719            9.95        2.68       24.59

 
     init_run     :      1.27s CPU      5.13s WALL (       1 calls)
     electrons    :      1.40s CPU      1.50s WALL (       1 calls)
     forces       :      0.04s CPU      0.05s WALL (       1 calls)
     stress       :      0.16s CPU      0.17s WALL (       1 calls)

     Called by init_run:
     wfcinit      :      0.55s CPU      4.22s WALL (       1 calls)
                                        4.22s GPU  (       1 calls)
     potinit      :      0.20s CPU      0.30s WALL (       1 calls)
     hinit0       :      0.50s CPU      0.53s WALL (       1 calls)

     Called by electrons:
     c_bands      :      0.94s CPU      0.99s WALL (      11 calls)
     sum_band     :      0.25s CPU      0.27s WALL (      11 calls)
     v_of_rho     :      0.12s CPU      0.22s WALL (      11 calls)
     mix_rho      :      0.08s CPU      0.10s WALL (      11 calls)

     Called by c_bands:
     init_us_2    :      0.04s CPU      0.04s WALL (      23 calls)
     init_us_2:gp :      0.04s CPU      0.04s WALL (      23 calls)
     regterg      :      0.84s CPU      0.89s WALL (      11 calls)

     Called by *egterg:
     rdiaghg      :      0.39s CPU      1.15s WALL (      81 calls)
                                        1.13s GPU  (      81 calls)
     h_psi        :      0.84s CPU      3.79s WALL (      83 calls)
                                        3.79s GPU  (      83 calls)
     g_psi        :      0.00s CPU      0.00s WALL (      71 calls)
                                        0.00s GPU  (      71 calls)

     Called by h_psi:
     h_psi:calbec :      0.49s CPU      3.36s WALL (      83 calls)
                                        3.36s GPU  (      83 calls)
     vloc_psi     :      0.30s CPU      0.37s WALL (      83 calls)
                                        0.37s GPU  (      83 calls)
     add_vuspsi   :      0.03s CPU      0.05s WALL (      83 calls)
                                        0.05s GPU  (      83 calls)

     General routines
     calbec       :      0.50s CPU      3.37s WALL (      88 calls)
     fft          :      0.56s CPU      0.69s WALL (      95 calls)
                                        0.13s GPU  (      61 calls)
     ffts         :      0.03s CPU      0.04s WALL (      11 calls)
     fftw         :      0.34s CPU      0.47s WALL (    1235 calls)
                                        0.42s GPU  (    1235 calls)
 
     Parallel routines
 
     PWSCF        :      2.92s CPU      6.93s WALL

 
   This run was terminated on:  11:11:47  10May2023            

=------------------------------------------------------------------------------=
   JOB DONE.
=------------------------------------------------------------------------------=
