LAMMPS data file via write_data, version 23 Jun 2022, timestep = 1000

64 atoms
1 atom types

-0.34173992313670976 11.203139923136694 xlo xhi
-0.34173992313670976 11.203139923136694 ylo yhi
-0.34173992313670976 11.203139923136694 zlo zhi

Masses

1 28.0855

Atoms # atomic

20 1 1.7630154690107185 2.2393820195583243 1.1870455909290845 0 0 0
2 1 0.2191063393665893 0.9289633236218089 2.719267079942485 0 0 0
28 1 3.60992587551822 3.0617623861843275 2.320631324235047 0 0 0
56 1 4.082612203056031 2.0670108559997056 0.41766261993037235 0 0 0
29 1 0.8007376196110616 -0.1868378116107777 4.779967808838811 0 0 0
6 1 3.9122881662556726 2.8726607604551173 4.754308716504277 0 0 0
35 1 0.17762074308531828 2.5616212935740577 4.3391861620316465 1 0 0
30 1 -0.21654386452641824 5.188320665176991 4.694812841711933 0 0 0
22 1 0.8221523907443078 -0.005623892286027776 0.6032410230313338 0 0 1
31 1 4.658469945801635 4.549302774200005 0.8563058501335747 0 0 1
55 1 3.07031668208277 5.3707379276928 -0.3118904007666927 0 0 1
8 1 8.806596603799548 4.2989363023034715 1.6559342629687668 0 0 0
62 1 6.063989484973551 2.8418230479610855 3.495409429817256 0 0 0
12 1 10.950389075762786 4.046345124424513 2.7638074856905948 0 0 0
23 1 7.609862037913867 2.3187555638724007 1.912333392026809 0 1 0
46 1 5.965267113992966 0.5422831364842438 2.8990212983181043 0 1 0
24 1 6.556984176585474 2.9570397898921787 -0.08240102452803222 0 1 0
41 1 8.215214948674245 0.3390684019395872 5.051903968542558 0 1 0
57 1 8.663671011760336 1.4511461284903522 -0.338814504184145 0 1 1
48 1 3.4770677733312993 8.437624160739531 0.9583978532457305 0 0 0
4 1 5.129141403346268 6.776293415947898 0.6238783259655409 0 0 0
47 1 1.6975875959159903 7.247369174494573 -0.14251657637539658 0 0 0
59 1 1.5712079712635991 7.722339973100461 2.2978414561183333 0 0 0
42 1 3.217428435986898 7.5873064464390225 4.143009693068948 0 0 0
36 1 1.4675476408475043 9.102393587613665 4.337350977950104 0 0 0
26 1 10.899007674986315 6.423328562639126 2.6382525613127457 -1 0 0
14 1 6.703670632302158 7.960809423622929 4.099004129958959 0 -1 0
44 1 9.852903395767651 11.160909183696699 0.0349293724729538 0 -1 0
64 1 7.3655639263044 6.17829989949719 0.9242779643796781 0 0 0
37 1 8.317474021355235 9.805010229546077 0.9234249166171755 -1 0 0
17 1 6.632914930708076 8.27727473791349 1.839562176525798 0 0 0
27 1 10.903816462975723 8.745753094535683 5.006388771546319 0 0 0
21 1 7.100991261513986 10.087492762436987 3.1944320089112144 0 0 0
63 1 10.307507905823567 6.908004887154798 0.09953749311753435 0 0 1
10 1 3.3860442520442686 2.936009089905624 7.224658064573347 0 0 0
43 1 4.81353341860554 4.58085501207552 6.119312180127843 0 0 0
15 1 -0.134265952367702 0.007422634625226188 7.134669623796987 0 0 0
1 1 3.871966543789531 0.6358727778356826 10.09259497107157 0 0 0
18 1 3.5154609587278407 0.6059861642951282 7.897644045549309 0 0 0
25 1 2.2700251758621834 1.405501144667788 6.042015210788281 1 0 0
11 1 2.90030192864525 5.288598779103907 7.395783300584118 0 0 0
33 1 1.6942592037341995 3.791757782890107 8.913051254440642 0 0 0
38 1 9.58318658562057 4.885994795953786 10.889837367643473 0 0 -1
60 1 10.890880049672802 4.292159864732733 8.897618615504836 -1 0 0
52 1 7.36750918965296 2.291883365949624 6.697561553391005 0 0 0
3 1 9.230038561192146 0.7686238547251221 6.971100689154216 0 0 0
51 1 7.164508953128174 0.40559112183835444 8.405012611622649 0 0 0
13 1 6.932236437675887 4.55856001260179 7.0250313642790125 0 0 0
50 1 8.567022029671453 5.230157484958132 8.807962662723806 0 0 0
45 1 -0.09897347407465093 8.928896868640209 10.89977919524096 1 -1 -1
61 1 2.2677386392604473 10.153070442112483 10.683199984066412 0 0 -1
53 1 -0.10610438270548497 10.573838244935807 9.582807787385246 0 0 -1
54 1 5.40320614028713 10.475691944260227 7.157218140748621 0 -1 0
49 1 1.1381329602996981 7.229925355848853 5.872106926487818 0 0 0
16 1 5.061105319405963 8.17017220977981 5.842340876389992 0 0 0
58 1 1.050678657720856 5.885486854716037 8.988790010956265 1 0 0
40 1 10.074673038718075 10.601244564500224 5.620809441712358 -1 0 0
34 1 10.224397440430714 6.519692222701118 6.2034743235540635 0 0 0
39 1 5.672523620049519 6.404455599970563 7.554009276721095 0 0 0
5 1 6.946827839956354 9.600886645686934 5.884981074189957 0 -1 0
32 1 10.416319993868171 6.502143071346628 9.340375488164135 -1 0 0
7 1 5.725861333375386 10.797591505951502 9.473449986642343 0 0 0
19 1 7.286174525067192 6.771335527814351 6.128075950575725 0 0 0
9 1 7.519166438615901 11.155749403050145 10.695981258355566 0 0 0

Velocities

20 4.19401833592564 10.357540863703234 3.1813128452160586
2 -4.379801991054519 1.265772455541068 -12.446913397631159
28 -10.264641731177212 -2.829444511777814 4.157780369936068
56 5.058702786728183 16.721149650076697 -5.697637609303157
29 -1.2783970594756073 -2.9761420728500685 -8.357347499592155
6 -3.9889938149524062 -7.848225724038499 7.732020886079193
35 4.429322575765685 -14.20690962585738 -6.595846871452892
30 -6.8639651726288164 -7.101976800911712 -6.7113477410168505
22 -13.57703264018848 -9.958587833629618 5.129583588933213
31 13.376669786159802 -4.7159948317012095 -11.873199455189974
55 7.988717320534113 8.03324270001307 4.138467637482318
8 3.9635236319607103 -1.6654948113974861 5.05569754620941
62 -9.272053995666196 5.244683730413666 2.4082129697022254
12 4.5686275742278495 -1.172252856701098 -4.660920477572094
23 2.6138112263666717 -3.025321888127599 -0.2988212858136317
46 8.698486770240303 -14.01025103928939 -6.9173620529242825
24 -2.795110981187112 6.148556309208235 10.092201841621781
41 1.30140625101425 -9.76278305852495 -12.404446304617537
57 -2.477028548372862 10.465256495774533 -3.2886638893837032
48 -13.323666975309303 -2.41551291498684 8.886414464195022
4 1.8197195713463352 -3.6648109127523587 -4.503542029834106
47 8.61378589337746 2.289911882781234 7.6580833928677325
59 -4.142598688322982 7.639616701849251 4.871165157304116
42 4.857713115849189 -6.397030209893667 -4.079334754820324
36 -1.611458004983773 3.627434876087801 -12.80874289406479
26 -0.21435833644754884 -11.179390199091298 11.038227397760998
14 -4.738231418573424 3.399777273675869 14.760606891693108
44 -1.5237154183863544 11.229573178321358 -8.78745878608954
64 1.81225895161685 -6.4473310409842925 -3.6792519093147233
37 0.19820242291829798 -4.122982833099242 3.6362795766322513
17 3.8013556177451004 -4.636086310291927 0.17643352148607389
27 -6.61293955669587 8.347504883523275 4.677027124350341
21 -16.978416007102282 8.374161221556664 0.9233876619615262
63 14.614900336401515 10.055645525508522 -2.685270613079963
10 -2.5285996478971517 -12.828234323024107 13.61565246045126
43 -6.873627970090845 1.0524125613268702 17.106436099806402
15 -7.612892072796797 12.051554590804352 5.193304053425682
1 0.4941720223139905 -17.09392151101723 10.843740481961612
18 3.8882719886906725 7.0484795829131155 7.858558109957766
25 0.5935075937308647 8.48357015769966 2.067167929513521
11 11.447544048894798 -6.978848952367411 -2.379602828901048
33 0.4514565066678517 7.105895937280703 3.6759274738172745
38 -12.879221378160397 1.0556073659869523 -0.13811520526997662
60 -16.910368049473053 -4.168021021390167 -0.45270123364675907
52 4.809668099031635 -7.702212121842135 4.054075186543143
3 13.9608713627367 9.180887178776644 -17.17059645649461
51 1.516894291412337 0.033748488004774556 -9.468422097228201
13 0.7701465891666912 -3.149475371915483 -4.419358724867488
50 9.93956885195554 -0.697240555180374 -14.058634745717926
45 7.832229900087071 3.1218455073798026 -7.606466075697803
61 -9.13353931016992 -4.041334445538331 -7.915841599138121
53 9.611030003335866 2.053365718515824 3.805454757761305
54 0.3695841968980808 1.3771008520838839 -1.8953339007925851
49 -5.057758603610247 -6.179956620951166 3.3621895133008
16 0.20770579509280132 -4.036821943524708 7.075788130988426
58 12.50226872847458 -12.422792818819529 4.679752100155934
40 -12.256667669646648 7.073063734083121 -3.9543531279349584
34 3.989314412754604 15.077670625840252 13.717001761760686
39 3.4342802914412522 13.207428207651288 0.7790335489366462
5 5.094863105571889 -0.7737216800647966 10.31913040853718
32 -4.769286772489414 -3.9874481067226744 -16.747251020031314
7 0.2929229690194884 -1.0163184452406686 -6.246972967706421
19 -6.592193013732025 5.16758396311018 8.975607091903552
9 5.539041903136484 -3.0771648259865505 -7.4019644271247325
