/scratch/gpfs/ppiaggi/Simulations/TutorialWorkshop/Iteration2/run-simulations/liquid-64-1700K-10kbar
della-l07g2
Wed May 10 13:56:01 EDT 2023
LAMMPS (23 Jun 2022 - Update 1)
  using 8 OpenMP thread(s) per MPI task
Loaded 1 plugins from /home/ppiaggi/.conda/envs/deepmd-2.1.3/lib/deepmd_lmp
Loaded 1 plugins from /home/ppiaggi/.conda/envs/deepmd-2.1.3/lib/deepmd_lmp
Loaded 0 plugins from 

variable	temperature equal 1700.0
variable	tempDamp equal 0.1
variable        pressure equal 10000.
variable        pressureDamp equal 1.0 # This is 1 ps
variable	out_freq equal 10

variable        seed equal 745823

units		metal
atom_style	atomic
read_data       si-64-liquid.lammps-data
Reading data file ...
  orthogonal box = (0.10325115 0.10325115 0.10325115) to (10.758149 10.758149 10.758149)
  1 by 1 by 1 MPI processor grid
  reading atoms ...
  64 atoms
  read_data CPU = 0.003 seconds

timestep	0.001
neigh_modify    delay 10 every 1
pair_style      deepmd ../frozen_model_1_compressed.pb ../frozen_model_2_compressed.pb ../frozen_model_3_compressed.pb ../frozen_model_4_compressed.pb out_file md.out out_freq ${out_freq}
pair_style      deepmd ../frozen_model_1_compressed.pb ../frozen_model_2_compressed.pb ../frozen_model_3_compressed.pb ../frozen_model_4_compressed.pb out_file md.out out_freq 10
Summary of lammps deepmd module ...
  >>> Info of deepmd-kit:
  installed to:       /home/ppiaggi/.conda/envs/deepmd-2.1.3
  source:             v2.1.3
  source branch:       HEAD
  source commit:      5a32c49e
  source commit at:   2022-07-01 09:52:58 +0800
  surpport model ver.:1.1 
  build float prec:   double
  build with tf inc:  /home/ppiaggi/.conda/envs/deepmd-2.1.3/include;/home/ppiaggi/.conda/envs/deepmd-2.1.3/include
  build with tf lib:  /home/ppiaggi/.conda/envs/deepmd-2.1.3/lib/libtensorflow_cc.so;/home/ppiaggi/.conda/envs/deepmd-2.1.3/lib/libtensorflow_framework.so
  set tf intra_op_parallelism_threads: 892680242
  set tf inter_op_parallelism_threads: 540094774
  >>> Info of lammps module:
DeePMD-kit WARNING: Environmental variable TF_INTRA_OP_PARALLELISM_THREADS is not set. Tune TF_INTRA_OP_PARALLELISM_THREADS for the best performance.
DeePMD-kit WARNING: Environmental variable TF_INTER_OP_PARALLELISM_THREADS is not set. Tune TF_INTER_OP_PARALLELISM_THREADS for the best performance.
2023-05-10 13:56:02.537793: I tensorflow/core/platform/cpu_feature_guard.cc:193] This TensorFlow binary is optimized with oneAPI Deep Neural Network Library (oneDNN) to use the following CPU instructions in performance-critical operations:  SSE4.1 SSE4.2 AVX AVX2 FMA
To enable them in other operations, rebuild TensorFlow with the appropriate compiler flags.
2023-05-10 13:56:02.957566: I tensorflow/core/common_runtime/gpu/gpu_device.cc:1532] Created device /job:localhost/replica:0/task:0/device:GPU:0 with 73105 MB memory:  -> device: 0, name: NVIDIA A100-SXM4-80GB, pci bus id: 0000:81:00.0, compute capability: 8.0
2023-05-10 13:56:02.957857: I tensorflow/core/common_runtime/process_util.cc:146] Creating new thread pool with default inter op setting: 2. Tune using inter_op_parallelism_threads for best performance.
2023-05-10 13:56:02.971128: I tensorflow/compiler/mlir/mlir_graph_optimization_pass.cc:354] MLIR V1 optimization pass is not enabled
DeePMD-kit WARNING: Environmental variable TF_INTRA_OP_PARALLELISM_THREADS is not set. Tune TF_INTRA_OP_PARALLELISM_THREADS for the best performance.
DeePMD-kit WARNING: Environmental variable TF_INTER_OP_PARALLELISM_THREADS is not set. Tune TF_INTER_OP_PARALLELISM_THREADS for the best performance.
2023-05-10 13:56:03.036787: I tensorflow/core/common_runtime/gpu/gpu_device.cc:1532] Created device /job:localhost/replica:0/task:0/device:GPU:0 with 73105 MB memory:  -> device: 0, name: NVIDIA A100-SXM4-80GB, pci bus id: 0000:81:00.0, compute capability: 8.0
2023-05-10 13:56:03.042674: I tensorflow/core/common_runtime/gpu/gpu_device.cc:1532] Created device /job:localhost/replica:0/task:0/device:GPU:0 with 73105 MB memory:  -> device: 0, name: NVIDIA A100-SXM4-80GB, pci bus id: 0000:81:00.0, compute capability: 8.0
2023-05-10 13:56:03.048156: I tensorflow/core/common_runtime/gpu/gpu_device.cc:1532] Created device /job:localhost/replica:0/task:0/device:GPU:0 with 73105 MB memory:  -> device: 0, name: NVIDIA A100-SXM4-80GB, pci bus id: 0000:81:00.0, compute capability: 8.0
2023-05-10 13:56:03.054049: I tensorflow/core/common_runtime/gpu/gpu_device.cc:1532] Created device /job:localhost/replica:0/task:0/device:GPU:0 with 73105 MB memory:  -> device: 0, name: NVIDIA A100-SXM4-80GB, pci bus id: 0000:81:00.0, compute capability: 8.0
  use deepmd-kit at:  /home/ppiaggi/.conda/envs/deepmd-2.1.3  >>> Info of model(s):
  using   4 model(s): ../frozen_model_1_compressed.pb ../frozen_model_2_compressed.pb ../frozen_model_3_compressed.pb ../frozen_model_4_compressed.pb 
  rcut in model:      6
  ntypes in model:    1
pair_coeff      * *
thermo          ${out_freq}
thermo          10
thermo_style 	custom step temp pe etotal epair emol press lx ly lz vol
restart 	${out_freq} restart.lmp restart2.lmp
restart 	10 restart.lmp restart2.lmp

dump            myDump all atom ${out_freq} si.lammps-dump-text
dump            myDump all atom 10 si.lammps-dump-text

timer           timeout 00:55:00 every 1000
New timer settings: style=normal  mode=nosync  timeout=00:55:00

fix             thermo_print all print ${out_freq} "$(step) $(enthalpy) $(vol)" file thermo.txt screen no title "#step enthalpy vol"
fix             thermo_print all print 10 "$(step) $(enthalpy) $(vol)" file thermo.txt screen no title "#step enthalpy vol"
fix             1 all nph iso ${pressure} ${pressure} ${pressureDamp}
fix             1 all nph iso 10000 ${pressure} ${pressureDamp}
fix             1 all nph iso 10000 10000 ${pressureDamp}
fix             1 all nph iso 10000 10000 1
fix             2 all temp/csvr ${temperature} ${temperature} ${tempDamp} ${seed}
fix             2 all temp/csvr 1700 ${temperature} ${tempDamp} ${seed}
fix             2 all temp/csvr 1700 1700 ${tempDamp} ${seed}
fix             2 all temp/csvr 1700 1700 0.1 ${seed}
fix             2 all temp/csvr 1700 1700 0.1 745823
fix             3 all momentum 10000 linear 1 1 1 rescale

velocity 	all create ${temperature} ${seed} dist gaussian
velocity 	all create 1700 ${seed} dist gaussian
velocity 	all create 1700 745823 dist gaussian

run             1000 upto # 1 ps

CITE-CITE-CITE-CITE-CITE-CITE-CITE-CITE-CITE-CITE-CITE-CITE-CITE

Your simulation uses code contributions which should be cited:
- USER-DEEPMD package:
The log file lists these citations in BibTeX format.

CITE-CITE-CITE-CITE-CITE-CITE-CITE-CITE-CITE-CITE-CITE-CITE-CITE

Generated 0 of 0 mixed pair_coeff terms from geometric mixing rule
Neighbor list info ...
  update every 1 steps, delay 10 steps, check yes
  max neighbors/atom: 2000, page size: 100000
  master list distance cutoff = 8
  ghost atom cutoff = 8
  binsize = 4, bins = 3 3 3
  1 neighbor lists, perpetual/occasional/extra = 1 0 0
  (1) pair deepmd, perpetual
      attributes: full, newton on
      pair build: full/bin/atomonly
      stencil: full/bin/3d
      bin: standard
Setting up Verlet run ...
  Unit style    : metal
  Current step  : 0
  Time step     : 0.001
  Walltime left : 0:54:59.99
Per MPI rank memory allocation (min/avg/max) = 10.31 | 10.31 | 10.31 Mbytes
   Step          Temp          PotEng         TotEng         E_pair         E_mol          Press            Lx             Ly             Lz           Volume    
         0   1700          -6823.3781     -6809.5343     -6823.3781      0             -27539.271      10.654898      10.654898      10.654898      1209.6169    
        10   1627.4819     -6823.2253     -6809.9721     -6823.2253      0             -27964.898      10.653264      10.653264      10.653264      1209.0607    
        20   1541.3145     -6821.5904     -6809.0389     -6821.5904      0             -16467.583      10.648521      10.648521      10.648521      1207.4465    
        30   1478.0637     -6820.7488     -6808.7123     -6820.7488      0             -2471.2161      10.641561      10.641561      10.641561      1205.0802    
        40   1435.559      -6820.3278     -6808.6374     -6820.3278      0              7826.3763      10.633531      10.633531      10.633531      1202.3545    
        50   1443.763      -6820.4128     -6808.6557     -6820.4128      0              12506.93       10.625304      10.625304      10.625304      1199.566     
        60   1589.5646     -6821.5796     -6808.6352     -6821.5796      0              16901.23       10.617318      10.617318      10.617318      1196.863     
        70   1626.1386     -6822.1006     -6808.8584     -6822.1006      0              28584.836      10.609973      10.609973      10.609973      1194.3807    
        80   1499.9299     -6821.1395     -6808.925      -6821.1395      0              47806.034      10.604259      10.604259      10.604259      1192.4522    
        90   1476.4143     -6820.5741     -6808.5511     -6820.5741      0              63306.486      10.601704      10.601704      10.601704      1191.5903    
       100   1554.436      -6821.2967     -6808.6383     -6821.2967      0              65515.816      10.603472      10.603472      10.603472      1192.1868    
       110   1574.0107     -6821.7379     -6808.9201     -6821.7379      0              59703.948      10.609794      10.609794      10.609794      1194.3205    
       120   1420.8113     -6820.7718     -6809.2016     -6820.7718      0              55212.429      10.620306      10.620306      10.620306      1197.8738    
       130   1575.7359     -6821.6275     -6808.7957     -6821.6275      0              49794.031      10.634608      10.634608      10.634608      1202.7197    
       140   1524.9918     -6821.7306     -6809.312      -6821.7306      0              48868.198      10.652294      10.652294      10.652294      1208.7304    
       150   1445.3233     -6820.4219     -6808.6521     -6820.4219      0              56508.944      10.673361      10.673361      10.673361      1215.916     
       160   1474.4797     -6820.5976     -6808.5903     -6820.5976      0              60582.355      10.698382      10.698382      10.698382      1224.4875    
       170   1369.5888     -6821.1688     -6810.0157     -6821.1688      0              57020.352      10.727712      10.727712      10.727712      1234.5861    
       180   1444.4573     -6821.5531     -6809.7904     -6821.5531      0              48863.007      10.761108      10.761108      10.761108      1246.152     
       190   1461.1937     -6822.3209     -6810.4218     -6822.3209      0              31437.053      10.797767      10.797767      10.797767      1258.9308    
       200   1545.0241     -6822.2299     -6809.6481     -6822.2299      0              20250.797      10.836243      10.836243      10.836243      1272.4367    
       210   1405.9511     -6820.8676     -6809.4184     -6820.8676      0              16087.366      10.875454      10.875454      10.875454      1286.2999    
       220   1533.9331     -6820.5289     -6808.0375     -6820.5289      0              13500.194      10.914902      10.914902      10.914902      1300.3478    
       230   1772.1532     -6822.1201     -6807.6888     -6822.1201      0              6419.1232      10.954175      10.954175      10.954175      1314.4347    
       240   1837.2243     -6822.3811     -6807.4199     -6822.3811      0              2221.2489      10.992615      10.992615      10.992615      1328.3212    
       250   1543.1154     -6820.2857     -6807.7195     -6820.2857      0              3888.323       11.029756      11.029756      11.029756      1341.8308    
       260   1466.3001     -6819.6192     -6807.6785     -6819.6192      0              4695.4649      11.065634      11.065634      11.065634      1354.9674    
       270   1602.2643     -6820.5279     -6807.48       -6820.5279      0              5563.3972      11.100288      11.100288      11.100288      1367.7374    
       280   1758.305      -6821.6243     -6807.3057     -6821.6243      0              13325.332      11.13382       11.13382       11.13382       1380.17      
       290   1902.2962     -6822.4228     -6806.9316     -6822.4228      0              23968.407      11.16693       11.16693       11.16693       1392.5198    
       300   1966.815      -6823.1391     -6807.1226     -6823.1391      0              29222.279      11.200542      11.200542      11.200542      1405.1318    
       310   1812.362      -6823.0575     -6808.2988     -6823.0575      0              26784.001      11.235141      11.235141      11.235141      1418.194     
       320   2009.9695     -6823.6392     -6807.2713     -6823.6392      0              12311.14       11.27039       11.27039       11.27039       1431.5841    
       330   1895.7986     -6823.5732     -6808.1349     -6823.5732      0             -4433.1026      11.304832      11.304832      11.304832      1444.7488    
       340   1799.9948     -6824.0025     -6809.3444     -6824.0025      0             -18640.042      11.3367        11.3367        11.3367        1457.0015    
       350   2132.2462     -6826.1639     -6808.8002     -6826.1639      0             -26579.475      11.364544      11.364544      11.364544      1467.7634    
       360   1881.2026     -6823.9621     -6808.6428     -6823.9621      0             -21816.692      11.387648      11.387648      11.387648      1476.7332    
       370   1847.5503     -6823.8978     -6808.8524     -6823.8978      0             -18530.892      11.406487      11.406487      11.406487      1484.0744    
       380   2003.5671     -6826.3904     -6810.0746     -6826.3904      0             -17363.961      11.421527      11.421527      11.421527      1489.9526    
       390   2041.5543     -6825.8878     -6809.2626     -6825.8878      0             -6009.9246      11.433188      11.433188      11.433188      1494.5212    
       400   2117.6537     -6826.3059     -6809.061      -6826.3059      0             -2709.5859      11.442593      11.442593      11.442593      1498.2122    
       410   2262.9624     -6826.0487     -6807.6205     -6826.0487      0             -4985.7086      11.450241      11.450241      11.450241      1501.2184    
       420   2119.3504     -6824.893      -6807.6343     -6824.893       0             -11375.224      11.455949      11.455949      11.455949      1503.4646    
       430   2227.427      -6824.5151     -6806.3763     -6824.5151      0             -18496.52       11.459111      11.459111      11.459111      1504.7098    
       440   2073.3797     -6824.2245     -6807.3402     -6824.2245      0             -15412.535      11.459118      11.459118      11.459118      1504.7127    
       450   1912.8918     -6823.6017     -6808.0243     -6823.6017      0             -2598.5743      11.456417      11.456417      11.456417      1503.649     
       460   2201.4483     -6826.7331     -6808.8059     -6826.7331      0              5180.9222      11.452357      11.452357      11.452357      1502.0508    
       470   2356.5908     -6827.9013     -6808.7106     -6827.9013      0              7943.7294      11.447849      11.447849      11.447849      1500.2778    
       480   2321.9536     -6826.7734     -6807.8648     -6826.7734      0              14318.893      11.443346      11.443346      11.443346      1498.5082    
       490   2243.2485     -6826.4624     -6808.1948     -6826.4624      0              11058.644      11.439373      11.439373      11.439373      1496.9479    
       500   2154.2424     -6826.0677     -6808.5249     -6826.0677      0              7285.424       11.435662      11.435662      11.435662      1495.4914    
       510   2075.4291     -6825.9505     -6809.0495     -6825.9505      0              8234.0501      11.431825      11.431825      11.431825      1493.9865    
       520   2372.5085     -6826.8167     -6807.4964     -6826.8167      0              17293.794      11.427971      11.427971      11.427971      1492.4763    
       530   2529.1948     -6827.2376     -6806.6414     -6827.2376      0              34178.639      11.425136      11.425136      11.425136      1491.3656    
       540   2250.6157     -6825.5813     -6807.2536     -6825.5813      0              40044.539      11.42497       11.42497       11.42497       1491.3006    
       550   2183.5168     -6825.1621     -6807.3809     -6825.1621      0              32964.832      11.428002      11.428002      11.428002      1492.4881    
       560   2122.154      -6824.7896     -6807.508      -6824.7896      0              32105.08       11.433582      11.433582      11.433582      1494.6756    
       570   2047.0087     -6824.1085     -6807.4389     -6824.1085      0              30376.39       11.441468      11.441468      11.441468      1497.7705    
       580   2168.1743     -6825.1969     -6807.5406     -6825.1969      0              22251.1        11.451376      11.451376      11.451376      1501.665     
       590   2228.6586     -6826.3325     -6808.1836     -6826.3325      0              11065.678      11.462421      11.462421      11.462421      1506.0143    
       600   1981.9839     -6824.9986     -6808.8585     -6824.9986      0              5288.1975      11.473455      11.473455      11.473455      1510.3675    
       610   1800.5964     -6824.5976     -6809.9347     -6824.5976      0             -1084.3242      11.483741      11.483741      11.483741      1514.4333    
       620   2138.6397     -6827.1733     -6809.7575     -6827.1733      0             -7978.6756      11.492581      11.492581      11.492581      1517.9333    
       630   2312.2139     -6829.5757     -6810.7465     -6829.5757      0             -10348.548      11.499287      11.499287      11.499287      1520.592     
       640   2359.2739     -6830.4327     -6811.2202     -6830.4327      0             -6024.2858      11.503633      11.503633      11.503633      1522.3167    
       650   2169.2379     -6829.377      -6811.7121     -6829.377       0              10816.894      11.506276      11.506276      11.506276      1523.3664    
       660   2287.1761     -6830.1621     -6811.5368     -6830.1621      0              18085.575      11.50889       11.50889       11.50889       1524.4048    
       670   2063.9361     -6828.5631     -6811.7557     -6828.5631      0              16124.759      11.512309      11.512309      11.512309      1525.7638    
       680   1893.3005     -6827.6975     -6812.2796     -6827.6975      0              8481.8404      11.516335      11.516335      11.516335      1527.3652    
       690   1995.6134     -6829.563      -6813.312      -6829.563       0              6439.8381      11.520209      11.520209      11.520209      1528.907     
       700   1996.7491     -6829.4949     -6813.2346     -6829.4949      0              16991.424      11.523764      11.523764      11.523764      1530.323     
       710   2012.2588     -6830.0813     -6813.6947     -6830.0813      0              23373.614      11.528035      11.528035      11.528035      1532.0251    
       720   2016.1264     -6831.0177     -6814.5996     -6831.0177      0              15740.443      11.533642      11.533642      11.533642      1534.2615    
       730   1803.4118     -6830.1153     -6815.4294     -6830.1153      0              3659.218       11.539789      11.539789      11.539789      1536.7161    
       740   1915.4933     -6831.1172     -6815.5185     -6831.1172      0             -10637.61       11.545102      11.545102      11.545102      1538.8395    
       750   1997.2543     -6832.2673     -6816.0029     -6832.2673      0             -23301.733      11.547991      11.547991      11.547991      1539.9949    
       760   1531.8326     -6830.6654     -6818.1911     -6830.6654      0             -28216.901      11.547073      11.547073      11.547073      1539.6278    
       770   1735.5956     -6831.1476     -6817.014      -6831.1476      0             -19363.789      11.541908      11.541908      11.541908      1537.5626    
       780   1832.2784     -6831.0971     -6816.1762     -6831.0971      0             -1299.013       11.533512      11.533512      11.533512      1534.2097    
       790   1717.6967     -6830.7139     -6816.726      -6830.7139      0              16390.812      11.523933      11.523933      11.523933      1530.39      
       800   1836.9058     -6832.4789     -6817.5203     -6832.4789      0              17193.525      11.515047      11.515047      11.515047      1526.8528    
       810   1663.5612     -6831.7839     -6818.2369     -6831.7839      0              15959.731      11.507121      11.507121      11.507121      1523.7019    
       820   1510.3645     -6830.3525     -6818.053      -6830.3525      0              16452.713      11.499998      11.499998      11.499998      1520.8743    
       830   1520.2126     -6830.1086     -6817.729      -6830.1086      0              6673.9498      11.493578      11.493578      11.493578      1518.3284    
       840   1526.5986     -6829.8311     -6817.3994     -6829.8311      0              3401.6756      11.486948      11.486948      11.486948      1515.7024    
       850   1641.5386     -6830.1424     -6816.7748     -6830.1424      0              13713.562      11.479789      11.479789      11.479789      1512.8704    
       860   1773.0096     -6831.2759     -6816.8376     -6831.2759      0              25043.032      11.473153      11.473153      11.473153      1510.2482    
       870   1672.1175     -6831.5089     -6817.8922     -6831.5089      0              27709.239      11.468219      11.468219      11.468219      1508.3006    
       880   1370.7237     -6829.4952     -6818.3328     -6829.4952      0              20949.134      11.465274      11.465274      11.465274      1507.1391    
       890   1747.9472     -6831.617      -6817.3828     -6831.617       0              7869.0685      11.463552      11.463552      11.463552      1506.4599    
       900   1940.992      -6832.2256     -6816.4194     -6832.2256      0              8599.122       11.46175       11.46175       11.46175       1505.7497    
       910   1901.0705     -6832.624      -6817.1428     -6832.624       0              25659.485      11.459978      11.459978      11.459978      1505.0514    
       920   2089.9294     -6833.216      -6816.1968     -6833.216       0              42809.541      11.460022      11.460022      11.460022      1505.069     
       930   2017.5177     -6833.8465     -6817.4171     -6833.8465      0              47074.794      11.463652      11.463652      11.463652      1506.4994    
       940   1949.6957     -6833.4156     -6817.5385     -6833.4156      0              44704.115      11.471431      11.471431      11.471431      1509.5685    
       950   1672.089      -6831.4507     -6817.8342     -6831.4507      0              38168.526      11.48309       11.48309       11.48309       1514.1756    
       960   1804.4099     -6831.7333     -6817.0393     -6831.7333      0              15656.729      11.497732      11.497732      11.497732      1519.9753    
       970   1898.1912     -6832.6972     -6817.2395     -6832.6972      0             -7316.863       11.512919      11.512919      11.512919      1526.0064    
       980   1904.1149     -6832.6584     -6817.1524     -6832.6584      0             -12355.889      11.52621       11.52621       11.52621       1531.2976    
       990   1842.1813     -6833.0199     -6818.0183     -6833.0199      0             -12913.427      11.536873      11.536873      11.536873      1535.5513    
      1000   2058.8464     -6834.4793     -6817.7133     -6834.4793      0             -10565.349      11.54488       11.54488       11.54488       1538.7507    
Loop time of 1.21711 on 8 procs for 1000 steps with 64 atoms

Performance: 70.988 ns/day, 0.338 hours/ns, 821.616 timesteps/s
117.6% CPU use with 1 MPI tasks x 8 OpenMP threads

MPI task timing breakdown:
Section |  min time  |  avg time  |  max time  |%varavg| %total
---------------------------------------------------------------
Pair    | 1.1602     | 1.1602     | 1.1602     |   0.0 | 95.33
Neigh   | 0.018555   | 0.018555   | 0.018555   |   0.0 |  1.52
Comm    | 0.0034536  | 0.0034536  | 0.0034536  |   0.0 |  0.28
Output  | 0.028201   | 0.028201   | 0.028201   |   0.0 |  2.32
Modify  | 0.0059124  | 0.0059124  | 0.0059124  |   0.0 |  0.49
Other   |            | 0.0007497  |            |       |  0.06

Nlocal:             64 ave          64 max          64 min
Histogram: 1 0 0 0 0 0 0 0 0 0
Nghost:            829 ave         829 max         829 min
Histogram: 1 0 0 0 0 0 0 0 0 0
Neighs:              0 ave           0 max           0 min
Histogram: 1 0 0 0 0 0 0 0 0 0
FullNghs:         5716 ave        5716 max        5716 min
Histogram: 1 0 0 0 0 0 0 0 0 0

Total # of neighbors = 5716
Ave neighs/atom = 89.3125
Neighbor list builds = 100
Dangerous builds = 0

write_data	data.final
System init for write_data ...
Generated 0 of 0 mixed pair_coeff terms from geometric mixing rule

write_restart   restart.lmp
System init for write_restart ...
Generated 0 of 0 mixed pair_coeff terms from geometric mixing rule
Total wall time: 0:00:02
Wed May 10 13:56:05 EDT 2023
