-6856.096334097479
-6854.895236266946
-6855.892877709625
-6856.1064356434545
-6854.814613834602
-6854.537692424702
-6855.22923858861
-6853.108780888447
-6854.068669121094
-6855.169625793635
-6855.093402081492
-6854.762112734799
-6856.002369923625
-6855.762511643062
-6854.929252265518
-6855.772591283874
-6855.55737250323
-6855.489312478361
-6854.736066134221
-6854.606871789846
-6853.101855183082
-6855.0179985204595
-6855.360045615649
-6855.678135400313
-6854.99794155364
-6854.20748024064
-6854.188713637643
-6855.242954350591
-6855.258827703198
-6855.41529030323
-6853.58095377368
-6855.873591913425
-6854.710489882412
-6854.453357135086
-6855.147356677364
-6855.047987914503
-6854.6319363315815
-6854.717195991908
-6854.345957884676
-6854.666129748376
-6855.2222735627965
-6853.4229989013575
-6854.710484712248
-6854.369589066766
-6854.242375847195
-6854.156135488594
-6854.3159108024975
-6855.196011448057
-6855.446867209409
-6854.702488238929
-6855.130185885973
-6855.018268049216
-6854.117611788228
-6853.546996959869
-6855.700508600127
-6854.613425651651
-6855.414767164375
-6854.503481456565
-6854.8740482589565
-6853.109214365792
-6852.564493073977
-6854.222838073579
-6855.586411811807
-6855.435769046499
-6855.505121203932
-6855.2080629618
-6855.204148876344
-6854.859292477884
-6853.517073281317
-6853.7155268562465
-6854.050794643317
-6854.689211124456
-6855.580145982502
-6855.364086914324
-6854.684406138293
-6854.360832579496
-6855.325449742487
-6855.837544040819
-6854.829011922033
-6854.871284670811
-6855.9775173585695
-6855.531766863127
-6852.755925431586
-6853.895694653333
-6854.7259105736475
-6853.757540960821
-6852.887955610328
-6853.4736426881545
-6854.661623951379
-6854.421637777312
-6854.273112193726
-6854.731163323132
-6853.932217364586
-6853.461163955684
-6854.126061603202
-6854.377018454847
-6854.477710779418
-6855.048114719552
-6854.601089915002
-6856.110887834026
