An instance of this daemon is already running
An instance of this daemon is already running

     Program PWSCF v.7.1 starts on 10May2023 at 11:18:43 

     This program is part of the open-source Quantum ESPRESSO suite
     for quantum simulation of materials; please cite
         "P. Giannozzi et al., J. Phys.:Condens. Matter 21 395502 (2009);
         "P. Giannozzi et al., J. Phys.:Condens. Matter 29 465901 (2017);
         "P. Giannozzi et al., J. Chem. Phys. 152 154105 (2020);
          URL http://www.quantum-espresso.org", 
     in publications or presentations arising from this work. More details at
     http://www.quantum-espresso.org/quote

     Parallel version (MPI & OpenMP), running on       4 processor cores
     Number of MPI processes:                 4
     Threads/MPI process:                     1

     MPI processes distributed on     1 nodes
     150915 MiB available memory on the printing compute node when the environment starts
 
     Reading input from pw-si-62.in
Warning: card &CELL ignored
Warning: card / ignored

     Current dimensions of program PWSCF are:
     Max number of different atomic species (ntypx) = 10
     Max number of k-points (npk) =  40000
     Max angular momentum in pseudopotentials (lmaxx) =  4

     IMPORTANT: XC functional enforced from input :
     Exchange-correlation= PBE
                           (   1   4   3   4   0   0   0)
     Any further DFT definition will be discarded
     Please, verify this is what you really want


     gamma-point specific algorithms are used
 
     K-points division:     npool     =       2
     R & G space division:  proc/nbgrp/npool/nimage =       2
     Subspace diagonalization in iterative solution of the eigenvalue problem:
     a serial algorithm will be used

     Message from routine divide_et_impera:
     suboptimal parallelization: some nodes have no k-points
 
     Parallelization info
     --------------------
     sticks:   dense  smooth     PW     G-vecs:    dense   smooth      PW
     Min        2025    2025    537                98209    98209   13336
     Max        2026    2026    540                98214    98214   13337
     Sum        4051    4051   1077               196423   196423   26673
 
     Using Slab Decomposition
 


     bravais-lattice index     =            0
     lattice parameter (alat)  =      20.7961  a.u.
     unit-cell volume          =    8848.4683 (a.u.)^3
     number of atoms/cell      =           64
     number of atomic types    =            1
     number of electrons       =       256.00
     number of Kohn-Sham states=          154
     kinetic-energy cutoff     =      30.0000  Ry
     charge density cutoff     =     120.0000  Ry
     scf convergence threshold =      1.0E-06
     mixing beta               =       0.5000
     number of iterations used =            8  plain     mixing
     Exchange-correlation= PBE
                           (   1   4   3   4   0   0   0)

     GPU acceleration is ACTIVE.
     GPU-aware MPI enabled

     Message from routine print_cuda_info:
     High GPU oversubscription detected. Are you sure this is what you want?

     celldm(1)=  20.796088  celldm(2)=   0.000000  celldm(3)=   0.000000
     celldm(4)=   0.000000  celldm(5)=   0.000000  celldm(6)=   0.000000

     crystal axes: (cart. coord. in units of alat)
               a(1) = (   1.000000   0.000000   0.000000 )  
               a(2) = (   0.000000   0.981749   0.000000 )  
               a(3) = (   0.000000   0.000000   1.002127 )  

     reciprocal axes: (cart. coord. in units 2 pi/alat)
               b(1) = (  1.000000  0.000000  0.000000 )  
               b(2) = (  0.000000  1.018590  0.000000 )  
               b(3) = (  0.000000  0.000000  0.997878 )  


     PseudoPot. # 1 for Si read from file:
     /home/ppiaggi/pseudos/Si_ONCV_PBE_sr.upf
     MD5 check sum: 8553c464762ac42b85b1eed164b4d029
     Pseudo is Norm-conserving, Zval =  4.0
     Generated using ONCVPSP code by D. R. Hamann
     Using radial grid of 1510 points,  4 beta functions with: 
                l(1) =   0
                l(2) =   0
                l(3) =   1
                l(4) =   1

     atomic species   valence    mass     pseudopotential
        Si             4.00    28.08500     Si( 1.00)

     No symmetry found



   Cartesian axes

     site n.     atom                  positions (alat units)
         1           Si  tau(   1) = (   0.0025413   0.0007476  -0.0016135  )
         2           Si  tau(   2) = (  -0.0042956   0.2468537   0.2513013  )
         3           Si  tau(   3) = (   0.2493748  -0.0040512   0.2529869  )
         4           Si  tau(   4) = (   0.2508538   0.2496908  -0.0005086  )
         5           Si  tau(   5) = (   0.1283684   0.1221614   0.1278021  )
         6           Si  tau(   6) = (   0.5053098   0.0027439   0.0031765  )
         7           Si  tau(   7) = (   0.5069308   0.2506490   0.2466600  )
         8           Si  tau(   8) = (   0.6352373   0.1250231   0.1209901  )
         9           Si  tau(   9) = (   0.7590986  -0.0041764   0.2534764  )
        10           Si  tau(  10) = (   0.7541156   0.2493308  -0.0000309  )
        11           Si  tau(  11) = (  -0.0022492   0.4897296   0.0042204  )
        12           Si  tau(  12) = (   0.2538494   0.4951529   0.2506360  )
        13           Si  tau(  13) = (   0.1295335   0.6192697   0.1235810  )
        14           Si  tau(  14) = (   0.3788911   0.3656969   0.1269615  )
        15           Si  tau(  15) = (   0.5052567   0.4954734  -0.0034907  )
        16           Si  tau(  16) = (   0.6301101   0.6128451   0.1223684  )
        17           Si  tau(  17) = (   0.8812669   0.3721411   0.1258777  )
        18           Si  tau(  18) = (   0.7623432   0.4958031   0.2528990  )
        19           Si  tau(  19) = (   0.0029492   0.7391102   0.2505192  )
        20           Si  tau(  20) = (   0.2484275   0.7390230   0.0027653  )
        21           Si  tau(  21) = (   0.3777889   0.8638527   0.1247114  )
        22           Si  tau(  22) = (   0.5044875   0.7343771   0.2492427  )
        23           Si  tau(  23) = (   0.7615988   0.7387498  -0.0001797  )
        24           Si  tau(  24) = (   0.8879176   0.8648698   0.1268651  )
        25           Si  tau(  25) = (  -0.0002090  -0.0029865   0.4967930  )
        26           Si  tau(  26) = (   0.2490915   0.2438193   0.4985799  )
        27           Si  tau(  27) = (   0.1220446   0.1190236   0.6259405  )
        28           Si  tau(  28) = (   0.3793197   0.1214398   0.3751018  )
        29           Si  tau(  29) = (   0.5055872   0.0040677   0.5041413  )
        30           Si  tau(  30) = (   0.6311340   0.1195624   0.6227698  )
        31           Si  tau(  31) = (   0.8837460   0.1200854   0.3792752  )
        32           Si  tau(  32) = (   0.7620514   0.2478691   0.4967202  )
        33           Si  tau(  33) = (   0.1284084   0.3714984   0.3794575  )
        34           Si  tau(  34) = (   0.0002397   0.4963329   0.4988414  )
        35           Si  tau(  35) = (   0.1298899   0.6117258   0.6219744  )
        36           Si  tau(  36) = (   0.6277890   0.3716293   0.3713248  )
        37           Si  tau(  37) = (   0.3750385   0.6186511   0.3709440  )
        38           Si  tau(  38) = (   0.3835256   0.3672033   0.6244910  )
        39           Si  tau(  39) = (   0.5087965   0.4912317   0.5031231  )
        40           Si  tau(  40) = (   0.6324381   0.6123349   0.6278289  )
        41           Si  tau(  41) = (   0.8803941   0.6190638   0.3795405  )
        42           Si  tau(  42) = (   0.8880462   0.3683547   0.6281902  )
        43           Si  tau(  43) = (   0.1295490   0.8595740   0.3734115  )
        44           Si  tau(  44) = (   0.2515337   0.7418493   0.4991686  )
        45           Si  tau(  45) = (   0.6359985   0.8649586   0.3729535  )
        46           Si  tau(  46) = (   0.3749436   0.8660070   0.6242584  )
        47           Si  tau(  47) = (   0.7598278   0.7401773   0.4988626  )
        48           Si  tau(  48) = (   0.8871743   0.8641743   0.6260148  )
        49           Si  tau(  49) = (  -0.0025213   0.2426097   0.7488757  )
        50           Si  tau(  50) = (   0.2523778  -0.0000557   0.7514908  )
        51           Si  tau(  51) = (   0.3780361   0.1219020   0.8789979  )
        52           Si  tau(  52) = (   0.5086111   0.2493781   0.7535415  )
        53           Si  tau(  53) = (   0.7621609  -0.0030394   0.7532659  )
        54           Si  tau(  54) = (   0.8801668   0.1253145   0.8784921  )
        55           Si  tau(  55) = (   0.1296675   0.3713284   0.8741530  )
        56           Si  tau(  56) = (   0.2558762   0.4965753   0.7506379  )
        57           Si  tau(  57) = (   0.6314217   0.3665533   0.8759635  )
        58           Si  tau(  58) = (   0.3772340   0.6194587   0.8762557  )
        59           Si  tau(  59) = (   0.7541164   0.4931432   0.7548381  )
        60           Si  tau(  60) = (   0.8876017   0.6148782   0.8767987  )
        61           Si  tau(  61) = (   0.0015647   0.7397708   0.7517608  )
        62           Si  tau(  62) = (   0.1253068   0.8580116   0.8743860  )
        63           Si  tau(  63) = (   0.5021697   0.7383937   0.7483508  )
        64           Si  tau(  64) = (   0.6358266   0.8630787   0.8801223  )

     number of k points=     1  Fermi-Dirac smearing, width (Ry)=  0.0100
                       cart. coord. in units 2pi/alat
        k(    1) = (   0.0000000   0.0000000   0.0000000), wk =   2.0000000

     Dense  grid:    98212 G-vectors     FFT dimensions: (  75,  72,  75)

     Estimated max dynamical RAM per process >     157.60 MB

     Estimated total dynamical RAM >     606.43 MB

     Initial potential from superposition of free atoms

     starting charge     255.9608, renormalised to     256.0000
     Starting wfcs are  256 randomized atomic wfcs

     total cpu time spent up to now is        4.4 secs

     Self-consistent Calculation

     iteration #  1     ecut=    30.00 Ry     beta= 0.50
     Davidson diagonalization with overlap
     ethr =  1.00E-02,  avg # of iterations =  3.0

     Threshold (ethr) on eigenvalues was too large:
     Diagonalizing with lowered threshold

     Davidson diagonalization with overlap
     ethr =  6.61E-04,  avg # of iterations =  3.0

     total cpu time spent up to now is        4.6 secs

     total energy              =    -503.86537746 Ry
     estimated scf accuracy    <       1.86989404 Ry

     iteration #  2     ecut=    30.00 Ry     beta= 0.50
     Davidson diagonalization with overlap
     ethr =  7.30E-04,  avg # of iterations =  1.0

     total cpu time spent up to now is        4.7 secs

     total energy              =    -503.84929612 Ry
     estimated scf accuracy    <       0.34701910 Ry

     iteration #  3     ecut=    30.00 Ry     beta= 0.50
     Davidson diagonalization with overlap
     ethr =  1.36E-04,  avg # of iterations = 16.0

     total cpu time spent up to now is        4.9 secs

     total energy              =    -503.87068343 Ry
     estimated scf accuracy    <       0.01629290 Ry

     iteration #  4     ecut=    30.00 Ry     beta= 0.50
     Davidson diagonalization with overlap
     c_bands:  1 eigenvalues not converged
     ethr =  6.36E-06,  avg # of iterations = 20.0

     total cpu time spent up to now is        5.1 secs

     total energy              =    -503.87431287 Ry
     estimated scf accuracy    <       0.00984158 Ry

     iteration #  5     ecut=    30.00 Ry     beta= 0.50
     Davidson diagonalization with overlap
     ethr =  3.84E-06,  avg # of iterations =  5.0

     total cpu time spent up to now is        5.2 secs

     total energy              =    -503.87603455 Ry
     estimated scf accuracy    <       0.00252010 Ry

     iteration #  6     ecut=    30.00 Ry     beta= 0.50
     Davidson diagonalization with overlap
     ethr =  9.84E-07,  avg # of iterations =  4.0

     total cpu time spent up to now is        5.3 secs

     total energy              =    -503.87627521 Ry
     estimated scf accuracy    <       0.00042724 Ry

     iteration #  7     ecut=    30.00 Ry     beta= 0.50
     Davidson diagonalization with overlap
     ethr =  1.67E-07,  avg # of iterations =  5.0

     total cpu time spent up to now is        5.4 secs

     total energy              =    -503.87634522 Ry
     estimated scf accuracy    <       0.00000991 Ry

     iteration #  8     ecut=    30.00 Ry     beta= 0.50
     Davidson diagonalization with overlap
     ethr =  3.87E-09,  avg # of iterations =  6.0

     total cpu time spent up to now is        5.6 secs

     total energy              =    -503.87635017 Ry
     estimated scf accuracy    <       0.00001288 Ry

     iteration #  9     ecut=    30.00 Ry     beta= 0.50
     Davidson diagonalization with overlap
     ethr =  3.87E-09,  avg # of iterations =  3.0

     total cpu time spent up to now is        5.7 secs

     total energy              =    -503.87635115 Ry
     estimated scf accuracy    <       0.00000203 Ry

     iteration # 10     ecut=    30.00 Ry     beta= 0.50
     Davidson diagonalization with overlap
     ethr =  7.94E-10,  avg # of iterations =  5.0

     total cpu time spent up to now is        5.8 secs

     End of self-consistent calculation

          k = 0.0000 0.0000 0.0000 ( 12276 PWs)   bands (ev):

    -5.8249  -4.8598  -4.7942  -4.7713  -4.7441  -4.7322  -4.6351  -3.9529
    -3.9295  -3.9260  -3.8882  -3.8526  -3.8223  -3.7814  -3.7662  -3.7479
    -3.6978  -3.6803  -3.6718  -3.5146  -3.5059  -3.4859  -3.4321  -1.9183
    -1.8867  -1.8191  -1.7533  -1.7357  -1.6904  -1.6720  -1.6503  -1.6241
    -1.6124  -1.5901  -1.5692  -1.5243  -1.5137  -1.4925  -1.4789  -1.4554
    -1.3852  -0.9052  -0.8708  -0.8314  -0.7660   0.4648   0.4712   0.5028
     0.5266   0.5389   0.5532   0.5671   0.5784   0.6131   0.6494   0.6806
     0.7276   2.0872   2.1074   2.1188   2.1574   2.1652   2.1905   2.2053
     2.2173   2.2305   2.2419   2.2650   2.2798   2.2972   2.3089   2.3258
     2.3268   2.3501   2.3725   2.3877   2.3944   2.4199   2.4408   2.4502
     2.4714   2.4995   2.5057   2.5440   2.5915   2.6397   2.6763   3.1302
     3.1386   3.1920   3.2706   3.2991   3.3071   4.0285   4.0503   4.0733
     4.1155   4.1317   4.1764   4.1799   4.2090   4.2289   4.2343   4.2890
     4.3171   4.4036   4.4949   4.5937   4.6190   4.6679   4.7259   4.7278
     4.7357   4.7777   4.7848   4.7930   4.8223   4.8355   4.8760   4.8972
     4.9142   4.9711   5.0082   5.0100   5.0347   5.9820   6.0078   6.1668
     6.5990   6.6312   6.6737   6.7828   6.8213   6.8414   7.0267   7.0368
     7.1614   7.1832   7.2276   7.2694   7.4108   7.4178   7.4357   7.4597
     8.2128   8.2545   8.2832   8.3127   8.3398   8.4322   8.4445   8.4585
     8.4737   8.5047

     the Fermi energy is     6.3285 ev

!    total energy              =    -503.87635158 Ry
     estimated scf accuracy    <       0.00000012 Ry
     smearing contrib. (-TS)   =      -0.05117669 Ry
     internal energy E=F+TS    =    -503.82517489 Ry

     The total energy is F=E-TS. E is the sum of the following terms:
     one-electron contribution =     145.52655696 Ry
     hartree contribution      =      36.96057451 Ry
     xc contribution           =    -153.59188419 Ry
     ewald contribution        =    -532.72042217 Ry

     convergence has been achieved in  10 iterations

     Forces acting on atoms (cartesian axes, Ry/au):

     atom    1 type  1   force =     0.02702754    0.01756352   -0.00189720
     atom    2 type  1   force =     0.04926893   -0.00377939    0.00533052
     atom    3 type  1   force =     0.02982143    0.03250186   -0.01480824
     atom    4 type  1   force =     0.00673225   -0.02004102    0.00597242
     atom    5 type  1   force =    -0.00953203    0.01332877   -0.00844210
     atom    6 type  1   force =     0.00338339   -0.00131792   -0.01549802
     atom    7 type  1   force =    -0.00434091   -0.03819991    0.00968614
     atom    8 type  1   force =    -0.00987446   -0.01055945    0.03595356
     atom    9 type  1   force =     0.00783448    0.04780184   -0.03042090
     atom   10 type  1   force =     0.01840334    0.00081025   -0.00131995
     atom   11 type  1   force =     0.06090310    0.01845679   -0.02661148
     atom   12 type  1   force =    -0.00936600   -0.01870485   -0.00911960
     atom   13 type  1   force =    -0.02342564   -0.03386268    0.01806897
     atom   14 type  1   force =    -0.00239997    0.03802541   -0.02185718
     atom   15 type  1   force =    -0.01465655   -0.02573371    0.00523327
     atom   16 type  1   force =     0.02282109    0.01175486    0.00825665
     atom   17 type  1   force =    -0.03298551   -0.02016372    0.01126330
     atom   18 type  1   force =    -0.03728922   -0.00351654   -0.00926728
     atom   19 type  1   force =     0.01728136   -0.00879794    0.00284868
     atom   20 type  1   force =     0.02796654    0.01673022   -0.02472747
     atom   21 type  1   force =     0.00448651   -0.02274218    0.00919943
     atom   22 type  1   force =     0.00873669    0.02812318   -0.00649145
     atom   23 type  1   force =    -0.00671462   -0.00163435    0.01171862
     atom   24 type  1   force =    -0.03530681   -0.02397692   -0.00630402
     atom   25 type  1   force =     0.04863334    0.00674930    0.00813481
     atom   26 type  1   force =     0.01827867   -0.00126401    0.02182140
     atom   27 type  1   force =     0.01726870    0.00601670   -0.00764876
     atom   28 type  1   force =     0.00158937    0.01304523   -0.00930772
     atom   29 type  1   force =    -0.00754011   -0.01777096   -0.03092003
     atom   30 type  1   force =     0.03165245    0.03242623    0.02971542
     atom   31 type  1   force =    -0.03179139    0.01337547   -0.02685486
     atom   32 type  1   force =    -0.03206003    0.00158280    0.01755393
     atom   33 type  1   force =    -0.01499610    0.00084716   -0.02903029
     atom   34 type  1   force =     0.02489588   -0.02150591    0.01458717
     atom   35 type  1   force =    -0.00633822    0.02886773    0.01449044
     atom   36 type  1   force =     0.03436264    0.00067111    0.01421961
     atom   37 type  1   force =     0.02628172   -0.01161259    0.03800481
     atom   38 type  1   force =    -0.02078467    0.00305719    0.00587759
     atom   39 type  1   force =    -0.02556888    0.01316012   -0.02365306
     atom   40 type  1   force =     0.00004683    0.02420341   -0.01021525
     atom   41 type  1   force =     0.00274592    0.00030892   -0.02524999
     atom   42 type  1   force =    -0.05398662    0.02617989   -0.01793642
     atom   43 type  1   force =    -0.02380307   -0.00998029    0.01389016
     atom   44 type  1   force =     0.00965185   -0.01471281    0.00487713
     atom   45 type  1   force =    -0.04583344   -0.03720045    0.02419588
     atom   46 type  1   force =     0.01974753   -0.02269268    0.00123086
     atom   47 type  1   force =    -0.02517175    0.01023141    0.03138560
     atom   48 type  1   force =    -0.03699492   -0.03022312    0.00116060
     atom   49 type  1   force =     0.04990048    0.00601574    0.02489131
     atom   50 type  1   force =    -0.00901324    0.01183142    0.00829709
     atom   51 type  1   force =     0.00638516    0.01849225   -0.00822757
     atom   52 type  1   force =    -0.01820959   -0.03975129   -0.01652333
     atom   53 type  1   force =    -0.02504360    0.02639338   -0.00984557
     atom   54 type  1   force =    -0.01477914   -0.00387082    0.00319150
     atom   55 type  1   force =    -0.02161433   -0.00265084   -0.00083201
     atom   56 type  1   force =     0.00435041   -0.02294606   -0.00845955
     atom   57 type  1   force =    -0.00473576    0.02942695    0.01038379
     atom   58 type  1   force =     0.00291284    0.00107124    0.00735711
     atom   59 type  1   force =     0.02819628   -0.01200819   -0.00630990
     atom   60 type  1   force =    -0.04159083   -0.00220654    0.00280478
     atom   61 type  1   force =     0.03180251   -0.02470700   -0.02235079
     atom   62 type  1   force =     0.01253916    0.01130175    0.01176113
     atom   63 type  1   force =     0.01386352    0.01748725    0.00933519
     atom   64 type  1   force =    -0.02402449   -0.01970522   -0.01256891

     Total force =     0.292848     Total SCF correction =     0.000465


     Computing stress (Cartesian axis) and pressure

          total   stress  (Ry/bohr**3)                   (kbar)     P=        9.98
   0.00003761   0.00001309   0.00000162            5.53        1.93        0.24
   0.00001309   0.00012774  -0.00005514            1.93       18.79       -8.11
   0.00000162  -0.00005514   0.00003817            0.24       -8.11        5.61

 
     init_run     :      1.02s CPU      4.35s WALL (       1 calls)
     electrons    :      1.22s CPU      1.35s WALL (       1 calls)
     forces       :      0.03s CPU      0.04s WALL (       1 calls)
     stress       :      0.15s CPU      0.15s WALL (       1 calls)

     Called by init_run:
     wfcinit      :      0.46s CPU      3.63s WALL (       1 calls)
                                        3.63s GPU  (       1 calls)
     potinit      :      0.15s CPU      0.24s WALL (       1 calls)
     hinit0       :      0.40s CPU      0.42s WALL (       1 calls)

     Called by electrons:
     c_bands      :      0.88s CPU      0.94s WALL (      11 calls)
     sum_band     :      0.19s CPU      0.23s WALL (      11 calls)
     v_of_rho     :      0.08s CPU      0.18s WALL (      11 calls)
     mix_rho      :      0.07s CPU      0.08s WALL (      11 calls)

     Called by c_bands:
     init_us_2    :      0.03s CPU      0.03s WALL (      23 calls)
     init_us_2:gp :      0.03s CPU      0.03s WALL (      23 calls)
     regterg      :      0.79s CPU      0.85s WALL (      11 calls)

     Called by *egterg:
     rdiaghg      :      0.35s CPU      1.00s WALL (      81 calls)
                                        0.98s GPU  (      81 calls)
     h_psi        :      0.77s CPU      3.33s WALL (      83 calls)
                                        3.33s GPU  (      83 calls)
     g_psi        :      0.00s CPU      0.00s WALL (      71 calls)
                                        0.00s GPU  (      71 calls)

     Called by h_psi:
     h_psi:calbec :      0.41s CPU      2.91s WALL (      83 calls)
                                        2.91s GPU  (      83 calls)
     vloc_psi     :      0.32s CPU      0.37s WALL (      83 calls)
                                        0.37s GPU  (      83 calls)
     add_vuspsi   :      0.03s CPU      0.04s WALL (      83 calls)
                                        0.04s GPU  (      83 calls)

     General routines
     calbec       :      0.41s CPU      2.91s WALL (      88 calls)
     fft          :      0.42s CPU      0.53s WALL (      95 calls)
                                        0.11s GPU  (      61 calls)
     ffts         :      0.02s CPU      0.02s WALL (      11 calls)
     fftw         :      0.35s CPU      0.47s WALL (    1237 calls)
                                        0.42s GPU  (    1237 calls)
 
     Parallel routines
 
     PWSCF        :      2.46s CPU      5.96s WALL

 
   This run was terminated on:  11:18:49  10May2023            

=------------------------------------------------------------------------------=
   JOB DONE.
=------------------------------------------------------------------------------=
