An instance of this daemon is already running

     Program PWSCF v.7.1 starts on 10May2023 at 11:13:10 

     This program is part of the open-source Quantum ESPRESSO suite
     for quantum simulation of materials; please cite
         "P. Giannozzi et al., J. Phys.:Condens. Matter 21 395502 (2009);
         "P. Giannozzi et al., J. Phys.:Condens. Matter 29 465901 (2017);
         "P. Giannozzi et al., J. Chem. Phys. 152 154105 (2020);
          URL http://www.quantum-espresso.org", 
     in publications or presentations arising from this work. More details at
     http://www.quantum-espresso.org/quote

     Parallel version (MPI & OpenMP), running on       4 processor cores
     Number of MPI processes:                 4
     Threads/MPI process:                     1

     MPI processes distributed on     1 nodes
     150149 MiB available memory on the printing compute node when the environment starts
 
     Reading input from pw-si-22.in
Warning: card &CELL ignored
Warning: card / ignored

     Current dimensions of program PWSCF are:
     Max number of different atomic species (ntypx) = 10
     Max number of k-points (npk) =  40000
     Max angular momentum in pseudopotentials (lmaxx) =  4

     IMPORTANT: XC functional enforced from input :
     Exchange-correlation= PBE
                           (   1   4   3   4   0   0   0)
     Any further DFT definition will be discarded
     Please, verify this is what you really want


     gamma-point specific algorithms are used
 
     K-points division:     npool     =       2
     R & G space division:  proc/nbgrp/npool/nimage =       2
     Subspace diagonalization in iterative solution of the eigenvalue problem:
     a serial algorithm will be used

     Message from routine divide_et_impera:
     suboptimal parallelization: some nodes have no k-points
 
     Parallelization info
     --------------------
     sticks:   dense  smooth     PW     G-vecs:    dense   smooth      PW
     Min        2080    2080    548               101172   101172   13728
     Max        2081    2081    549               101173   101173   13729
     Sum        4161    4161   1097               202345   202345   27457
 
     Using Slab Decomposition
 


     bravais-lattice index     =            0
     lattice parameter (alat)  =      20.8219  a.u.
     unit-cell volume          =    9110.0907 (a.u.)^3
     number of atoms/cell      =           64
     number of atomic types    =            1
     number of electrons       =       256.00
     number of Kohn-Sham states=          154
     kinetic-energy cutoff     =      30.0000  Ry
     charge density cutoff     =     120.0000  Ry
     scf convergence threshold =      1.0E-06
     mixing beta               =       0.5000
     number of iterations used =            8  plain     mixing
     Exchange-correlation= PBE
                           (   1   4   3   4   0   0   0)

     GPU acceleration is ACTIVE.
     GPU-aware MPI enabled

     Message from routine print_cuda_info:
     High GPU oversubscription detected. Are you sure this is what you want?

     celldm(1)=  20.821853  celldm(2)=   0.000000  celldm(3)=   0.000000
     celldm(4)=   0.000000  celldm(5)=   0.000000  celldm(6)=   0.000000

     crystal axes: (cart. coord. in units of alat)
               a(1) = (   1.000000   0.000000   0.000000 )  
               a(2) = (   0.000000   1.003063   0.000000 )  
               a(3) = (   0.000000   0.000000   1.006089 )  

     reciprocal axes: (cart. coord. in units 2 pi/alat)
               b(1) = (  1.000000  0.000000  0.000000 )  
               b(2) = (  0.000000  0.996946  0.000000 )  
               b(3) = (  0.000000  0.000000  0.993948 )  


     PseudoPot. # 1 for Si read from file:
     /home/ppiaggi/pseudos/Si_ONCV_PBE_sr.upf
     MD5 check sum: 8553c464762ac42b85b1eed164b4d029
     Pseudo is Norm-conserving, Zval =  4.0
     Generated using ONCVPSP code by D. R. Hamann
     Using radial grid of 1510 points,  4 beta functions with: 
                l(1) =   0
                l(2) =   0
                l(3) =   1
                l(4) =   1

     atomic species   valence    mass     pseudopotential
        Si             4.00    28.08500     Si( 1.00)

     No symmetry found



   Cartesian axes

     site n.     atom                  positions (alat units)
         1           Si  tau(   1) = (   0.0044179   0.0013772  -0.0021694  )
         2           Si  tau(   2) = (   0.0025635   0.2559526   0.2531545  )
         3           Si  tau(   3) = (   0.2494861   0.0037017   0.2568022  )
         4           Si  tau(   4) = (   0.2438478   0.2481971  -0.0042726  )
         5           Si  tau(   5) = (   0.1247411   0.1238638   0.1248531  )
         6           Si  tau(   6) = (   0.4938525   0.0022878  -0.0028347  )
         7           Si  tau(   7) = (   0.4971583   0.2500603   0.2543505  )
         8           Si  tau(   8) = (   0.6185131   0.1222340   0.1305938  )
         9           Si  tau(   9) = (   0.7379225  -0.0011391   0.2552309  )
        10           Si  tau(  10) = (   0.7376491   0.2499544  -0.0006114  )
        11           Si  tau(  11) = (  -0.0002760   0.5038525   0.0021252  )
        12           Si  tau(  12) = (   0.2509199   0.5088970   0.2495235  )
        13           Si  tau(  13) = (   0.1239575   0.6326035   0.1223162  )
        14           Si  tau(  14) = (   0.3700445   0.3805309   0.1246910  )
        15           Si  tau(  15) = (   0.4948354   0.5078035  -0.0013725  )
        16           Si  tau(  16) = (   0.6189972   0.6306385   0.1309730  )
        17           Si  tau(  17) = (   0.8623946   0.3804013   0.1228002  )
        18           Si  tau(  18) = (   0.7428668   0.5013772   0.2525779  )
        19           Si  tau(  19) = (   0.0005198   0.7623151   0.2509812  )
        20           Si  tau(  20) = (   0.2447769   0.7569517  -0.0001113  )
        21           Si  tau(  21) = (   0.3726317   0.8867019   0.1237273  )
        22           Si  tau(  22) = (   0.4939000   0.7604208   0.2525804  )
        23           Si  tau(  23) = (   0.7404954   0.7611777  -0.0034948  )
        24           Si  tau(  24) = (   0.8611890   0.8872879   0.1289504  )
        25           Si  tau(  25) = (   0.0010729  -0.0017389   0.5021596  )
        26           Si  tau(  26) = (   0.2448489   0.2567822   0.5090643  )
        27           Si  tau(  27) = (   0.1235038   0.1249810   0.6365588  )
        28           Si  tau(  28) = (   0.3749610   0.1268019   0.3749195  )
        29           Si  tau(  29) = (   0.4953103  -0.0004342   0.5021605  )
        30           Si  tau(  30) = (   0.6204137   0.1298373   0.6276475  )
        31           Si  tau(  31) = (   0.8680960   0.1245167   0.3807422  )
        32           Si  tau(  32) = (   0.7403546   0.2536943   0.5063830  )
        33           Si  tau(  33) = (   0.1233304   0.3753229   0.3824779  )
        34           Si  tau(  34) = (  -0.0042511   0.5045751   0.5076684  )
        35           Si  tau(  35) = (   0.1224280   0.6348619   0.6308486  )
        36           Si  tau(  36) = (   0.6225421   0.3832052   0.3836909  )
        37           Si  tau(  37) = (   0.3704765   0.6273332   0.3763555  )
        38           Si  tau(  38) = (   0.3728927   0.3766222   0.6353814  )
        39           Si  tau(  39) = (   0.4978989   0.5080459   0.5071753  )
        40           Si  tau(  40) = (   0.6214802   0.6354035   0.6344995  )
        41           Si  tau(  41) = (   0.8643155   0.6273863   0.3812912  )
        42           Si  tau(  42) = (   0.8677331   0.3807873   0.6329494  )
        43           Si  tau(  43) = (   0.1256825   0.8820778   0.3820578  )
        44           Si  tau(  44) = (   0.2462943   0.7554697   0.5031382  )
        45           Si  tau(  45) = (   0.6142375   0.8879093   0.3834256  )
        46           Si  tau(  46) = (   0.3743941   0.8862536   0.6329591  )
        47           Si  tau(  47) = (   0.7378265   0.7622961   0.5091694  )
        48           Si  tau(  48) = (   0.8643020   0.8857787   0.6336438  )
        49           Si  tau(  49) = (   0.0025895   0.2499138   0.7577535  )
        50           Si  tau(  50) = (   0.2488120  -0.0017700   0.7549999  )
        51           Si  tau(  51) = (   0.3675181   0.1241280   0.8857809  )
        52           Si  tau(  52) = (   0.4974433   0.2489040   0.7545843  )
        53           Si  tau(  53) = (   0.7416739   0.0023816   0.7557162  )
        54           Si  tau(  54) = (   0.8662539   0.1275614   0.8835787  )
        55           Si  tau(  55) = (   0.1278008   0.3829022   0.8830899  )
        56           Si  tau(  56) = (   0.2438760   0.5043719   0.7578759  )
        57           Si  tau(  57) = (   0.6186246   0.3751924   0.8884528  )
        58           Si  tau(  58) = (   0.3675280   0.6302150   0.8882192  )
        59           Si  tau(  59) = (   0.7445798   0.5078083   0.7586180  )
        60           Si  tau(  60) = (   0.8633162   0.6327542   0.8826032  )
        61           Si  tau(  61) = (  -0.0037609   0.7587621   0.7612206  )
        62           Si  tau(  62) = (   0.1220011   0.8834079   0.8809871  )
        63           Si  tau(  63) = (   0.4983227   0.7599289   0.7554201  )
        64           Si  tau(  64) = (   0.6156471   0.8801424   0.8834679  )

     number of k points=     1  Fermi-Dirac smearing, width (Ry)=  0.0100
                       cart. coord. in units 2pi/alat
        k(    1) = (   0.0000000   0.0000000   0.0000000), wk =   2.0000000

     Dense  grid:   101173 G-vectors     FFT dimensions: (  75,  75,  75)

     Estimated max dynamical RAM per process >     162.35 MB

     Estimated total dynamical RAM >     624.68 MB

     Initial potential from superposition of free atoms

     starting charge     255.9608, renormalised to     256.0000
     Starting wfcs are  256 randomized atomic wfcs

     total cpu time spent up to now is        4.1 secs

     Self-consistent Calculation

     iteration #  1     ecut=    30.00 Ry     beta= 0.50
     Davidson diagonalization with overlap
     ethr =  1.00E-02,  avg # of iterations =  3.0

     Threshold (ethr) on eigenvalues was too large:
     Diagonalizing with lowered threshold

     Davidson diagonalization with overlap
     ethr =  6.29E-04,  avg # of iterations =  4.0

     total cpu time spent up to now is        4.3 secs

     total energy              =    -503.85006233 Ry
     estimated scf accuracy    <       1.78737208 Ry

     iteration #  2     ecut=    30.00 Ry     beta= 0.50
     Davidson diagonalization with overlap
     ethr =  6.98E-04,  avg # of iterations =  1.0

     total cpu time spent up to now is        4.4 secs

     total energy              =    -503.83468970 Ry
     estimated scf accuracy    <       0.33862353 Ry

     iteration #  3     ecut=    30.00 Ry     beta= 0.50
     Davidson diagonalization with overlap
     ethr =  1.32E-04,  avg # of iterations =  5.0

     total cpu time spent up to now is        4.5 secs

     total energy              =    -503.85371094 Ry
     estimated scf accuracy    <       0.01725143 Ry

     iteration #  4     ecut=    30.00 Ry     beta= 0.50
     Davidson diagonalization with overlap
     c_bands:  1 eigenvalues not converged
     ethr =  6.74E-06,  avg # of iterations = 20.0

     total cpu time spent up to now is        4.7 secs

     total energy              =    -503.85777484 Ry
     estimated scf accuracy    <       0.00922762 Ry

     iteration #  5     ecut=    30.00 Ry     beta= 0.50
     Davidson diagonalization with overlap
     ethr =  3.60E-06,  avg # of iterations =  4.0

     total cpu time spent up to now is        4.9 secs

     total energy              =    -503.85944589 Ry
     estimated scf accuracy    <       0.00219765 Ry

     iteration #  6     ecut=    30.00 Ry     beta= 0.50
     Davidson diagonalization with overlap
     ethr =  8.58E-07,  avg # of iterations =  3.0

     total cpu time spent up to now is        5.0 secs

     total energy              =    -503.85963969 Ry
     estimated scf accuracy    <       0.00042018 Ry

     iteration #  7     ecut=    30.00 Ry     beta= 0.50
     Davidson diagonalization with overlap
     ethr =  1.64E-07,  avg # of iterations =  5.0

     total cpu time spent up to now is        5.1 secs

     total energy              =    -503.85970512 Ry
     estimated scf accuracy    <       0.00001883 Ry

     iteration #  8     ecut=    30.00 Ry     beta= 0.50
     Davidson diagonalization with overlap
     ethr =  7.35E-09,  avg # of iterations =  5.0

     total cpu time spent up to now is        5.2 secs

     total energy              =    -503.85971174 Ry
     estimated scf accuracy    <       0.00002291 Ry

     iteration #  9     ecut=    30.00 Ry     beta= 0.50
     Davidson diagonalization with overlap
     ethr =  7.35E-09,  avg # of iterations =  3.0

     total cpu time spent up to now is        5.3 secs

     total energy              =    -503.85971351 Ry
     estimated scf accuracy    <       0.00000226 Ry

     iteration # 10     ecut=    30.00 Ry     beta= 0.50
     Davidson diagonalization with overlap
     ethr =  8.81E-10,  avg # of iterations =  5.0

     total cpu time spent up to now is        5.5 secs

     End of self-consistent calculation

          k = 0.0000 0.0000 0.0000 ( 12667 PWs)   bands (ev):

    -5.9331  -5.0155  -4.9427  -4.9117  -4.8721  -4.8341  -4.7601  -4.1709
    -4.1280  -4.0842  -4.0466  -4.0240  -3.9790  -3.9510  -3.9075  -3.9026
    -3.8449  -3.8254  -3.7952  -3.7563  -3.6918  -3.6604  -3.4661  -2.1759
    -2.0471  -2.0275  -1.9937  -1.9534  -1.9200  -1.8965  -1.8791  -1.8480
    -1.8218  -1.7945  -1.7766  -1.7585  -1.7392  -1.7125  -1.6610  -1.6418
    -1.5744  -1.1268  -1.0294  -0.9590  -0.9102   0.1900   0.2285   0.2390
     0.2684   0.2882   0.3086   0.3409   0.3532   0.3743   0.3975   0.4139
     0.4985   1.8698   1.9128   1.9441   1.9702   1.9913   1.9951   2.0060
     2.0108   2.0367   2.0486   2.0591   2.0714   2.0936   2.1070   2.1283
     2.1377   2.1608   2.1618   2.1812   2.1960   2.2034   2.2254   2.2451
     2.2678   2.2904   2.3089   2.3259   2.3467   2.3827   2.3985   2.9471
     2.9570   2.9745   2.9897   3.0517   3.0853   3.7572   3.8073   3.8284
     3.8634   3.8933   3.9263   3.9560   3.9743   4.0022   4.0121   4.0390
     4.1287   4.2230   4.2748   4.2820   4.3598   4.3929   4.4222   4.4291
     4.4445   4.4759   4.5055   4.5322   4.5470   4.5819   4.5915   4.6261
     4.6384   4.6545   4.6884   4.7468   4.9468   5.6434   5.7731   5.8534
     6.3575   6.3735   6.4306   6.4844   6.5868   6.6285   6.7692   6.8451
     6.8854   6.9052   6.9196   6.9762   7.0200   7.0289   7.0385   7.0868
     7.9143   7.9623   7.9860   8.0055   8.0381   8.0632   8.0770   8.1193
     8.1427   8.1706

     the Fermi energy is     6.0563 ev

!    total energy              =    -503.85971397 Ry
     estimated scf accuracy    <       0.00000035 Ry
     smearing contrib. (-TS)   =      -0.04682459 Ry
     internal energy E=F+TS    =    -503.81288939 Ry

     The total energy is F=E-TS. E is the sum of the following terms:
     one-electron contribution =     138.15536267 Ry
     hartree contribution      =      38.00415672 Ry
     xc contribution           =    -152.65893720 Ry
     ewald contribution        =    -527.31347158 Ry

     convergence has been achieved in  10 iterations

     Forces acting on atoms (cartesian axes, Ry/au):

     atom    1 type  1   force =    -0.06032500    0.01626936    0.02463492
     atom    2 type  1   force =    -0.04173131   -0.01955814   -0.01484226
     atom    3 type  1   force =    -0.00540012   -0.00317530   -0.02227030
     atom    4 type  1   force =     0.01123031    0.02770914    0.03271266
     atom    5 type  1   force =    -0.00599591    0.01531614    0.01855129
     atom    6 type  1   force =     0.01062822    0.00998425    0.02249860
     atom    7 type  1   force =     0.00466531    0.03520705   -0.00858910
     atom    8 type  1   force =    -0.00744823    0.01471304   -0.01833276
     atom    9 type  1   force =     0.01997070    0.02680946    0.01241354
     atom   10 type  1   force =     0.02497866   -0.00909298    0.02997891
     atom   11 type  1   force =    -0.03214709    0.00932222   -0.00737619
     atom   12 type  1   force =    -0.03112301   -0.02773599    0.00561671
     atom   13 type  1   force =    -0.01351952    0.00029580    0.02614758
     atom   14 type  1   force =     0.00736590   -0.02086916   -0.00261876
     atom   15 type  1   force =     0.00599625   -0.01331804    0.02769443
     atom   16 type  1   force =     0.00131571    0.01038958   -0.01764085
     atom   17 type  1   force =     0.03832181   -0.01724033    0.01033283
     atom   18 type  1   force =     0.00442117    0.01729465    0.00237870
     atom   19 type  1   force =    -0.03323356   -0.02304928    0.00525275
     atom   20 type  1   force =     0.00871660    0.01717316    0.00780003
     atom   21 type  1   force =    -0.01875996   -0.02449276    0.01357819
     atom   22 type  1   force =     0.00106984   -0.00841597    0.00487371
     atom   23 type  1   force =     0.00831875   -0.02213019    0.04178724
     atom   24 type  1   force =     0.04783155   -0.02408756   -0.02254743
     atom   25 type  1   force =    -0.03001063    0.02533643    0.02977386
     atom   26 type  1   force =     0.02247460   -0.03235667   -0.00480290
     atom   27 type  1   force =    -0.00007728   -0.00232143   -0.03298092
     atom   28 type  1   force =    -0.02177453    0.01566619    0.03776661
     atom   29 type  1   force =    -0.01650092    0.05142222    0.02668750
     atom   30 type  1   force =    -0.01010993   -0.02442139    0.00588644
     atom   31 type  1   force =     0.01517905    0.01478254   -0.01028324
     atom   32 type  1   force =     0.03533752    0.00763903   -0.00598466
     atom   33 type  1   force =    -0.00035088    0.04114141   -0.01237391
     atom   34 type  1   force =    -0.00362977    0.00215541   -0.00851069
     atom   35 type  1   force =    -0.01415665   -0.01260394    0.00817565
     atom   36 type  1   force =    -0.01962095   -0.02079221   -0.01561331
     atom   37 type  1   force =     0.01317321    0.02449396    0.01448533
     atom   38 type  1   force =    -0.00361376    0.02032582   -0.01176485
     atom   39 type  1   force =    -0.00990950   -0.00489633    0.00740734
     atom   40 type  1   force =    -0.00807532   -0.01527232   -0.00617279
     atom   41 type  1   force =     0.02301462    0.02812544   -0.00414366
     atom   42 type  1   force =     0.01719979   -0.01556573    0.00393617
     atom   43 type  1   force =    -0.00255407   -0.00965963   -0.02209880
     atom   44 type  1   force =     0.02257873    0.00055869    0.01309361
     atom   45 type  1   force =     0.01836151   -0.05306998   -0.02472847
     atom   46 type  1   force =    -0.00779256   -0.03788217   -0.02441880
     atom   47 type  1   force =     0.02427638   -0.01433105   -0.01872366
     atom   48 type  1   force =     0.03855627   -0.02057313   -0.01285121
     atom   49 type  1   force =    -0.03586996    0.02625991    0.01191158
     atom   50 type  1   force =    -0.00730671    0.02183353    0.01699559
     atom   51 type  1   force =     0.01515226    0.00759237   -0.04000894
     atom   52 type  1   force =    -0.01059688    0.00616734    0.02682157
     atom   53 type  1   force =    -0.00642877    0.01750680    0.01419481
     atom   54 type  1   force =     0.02787008   -0.00375661   -0.00941394
     atom   55 type  1   force =    -0.03484848   -0.02691439   -0.00305986
     atom   56 type  1   force =     0.02513714    0.01870195   -0.01281310
     atom   57 type  1   force =    -0.01053676    0.02393797   -0.04364053
     atom   58 type  1   force =     0.01018767    0.01132667   -0.04409787
     atom   59 type  1   force =    -0.01174695   -0.02252752    0.00282534
     atom   60 type  1   force =     0.04182590   -0.00232483    0.00961743
     atom   61 type  1   force =    -0.02173336   -0.00571395   -0.02145045
     atom   62 type  1   force =     0.01133660   -0.02351541   -0.00689469
     atom   63 type  1   force =    -0.03017655   -0.02213002    0.01664521
     atom   64 type  1   force =     0.01061283    0.01833689   -0.02142719

     Total force =     0.292252     Total SCF correction =     0.001080


     Computing stress (Cartesian axis) and pressure

          total   stress  (Ry/bohr**3)                   (kbar)     P=      -14.16
  -0.00008305  -0.00004462  -0.00001988          -12.22       -6.56       -2.92
  -0.00004462  -0.00009692   0.00002299           -6.56      -14.26        3.38
  -0.00001988   0.00002299  -0.00010873           -2.92        3.38      -16.00

 
     init_run     :      0.75s CPU      4.02s WALL (       1 calls)
     electrons    :      1.22s CPU      1.38s WALL (       1 calls)
     forces       :      0.04s CPU      0.04s WALL (       1 calls)
     stress       :      0.15s CPU      0.16s WALL (       1 calls)

     Called by init_run:
     wfcinit      :      0.42s CPU      3.54s WALL (       1 calls)
                                        3.54s GPU  (       1 calls)
     potinit      :      0.14s CPU      0.21s WALL (       1 calls)
     hinit0       :      0.18s CPU      0.20s WALL (       1 calls)

     Called by electrons:
     c_bands      :      0.86s CPU      0.95s WALL (      11 calls)
     sum_band     :      0.20s CPU      0.25s WALL (      11 calls)
     v_of_rho     :      0.08s CPU      0.16s WALL (      11 calls)
     mix_rho      :      0.07s CPU      0.08s WALL (      11 calls)

     Called by c_bands:
     init_us_2    :      0.03s CPU      0.03s WALL (      23 calls)
     init_us_2:gp :      0.03s CPU      0.03s WALL (      23 calls)
     regterg      :      0.77s CPU      0.86s WALL (      11 calls)

     Called by *egterg:
     rdiaghg      :      0.30s CPU      0.91s WALL (      68 calls)
                                        0.90s GPU  (      68 calls)
     h_psi        :      0.76s CPU      3.33s WALL (      70 calls)
                                        3.33s GPU  (      70 calls)
     g_psi        :      0.00s CPU      0.00s WALL (      58 calls)
                                        0.00s GPU  (      58 calls)

     Called by h_psi:
     h_psi:calbec :      0.37s CPU      2.84s WALL (      70 calls)
                                        2.84s GPU  (      70 calls)
     vloc_psi     :      0.36s CPU      0.44s WALL (      70 calls)
                                        0.44s GPU  (      70 calls)
     add_vuspsi   :      0.02s CPU      0.04s WALL (      70 calls)
                                        0.04s GPU  (      70 calls)

     General routines
     calbec       :      0.37s CPU      2.85s WALL (      75 calls)
     fft          :      0.20s CPU      0.29s WALL (      95 calls)
                                        0.09s GPU  (      61 calls)
     ffts         :      0.02s CPU      0.03s WALL (      11 calls)
     fftw         :      0.39s CPU      0.55s WALL (    1215 calls)
                                        0.50s GPU  (    1215 calls)
 
     Parallel routines
 
     PWSCF        :      2.19s CPU      5.67s WALL

 
   This run was terminated on:  11:13:16  10May2023            

=------------------------------------------------------------------------------=
   JOB DONE.
=------------------------------------------------------------------------------=
