An instance of this daemon is already running

     Program PWSCF v.7.1 starts on 10May2023 at 11:23:26 

     This program is part of the open-source Quantum ESPRESSO suite
     for quantum simulation of materials; please cite
         "P. Giannozzi et al., J. Phys.:Condens. Matter 21 395502 (2009);
         "P. Giannozzi et al., J. Phys.:Condens. Matter 29 465901 (2017);
         "P. Giannozzi et al., J. Chem. Phys. 152 154105 (2020);
          URL http://www.quantum-espresso.org", 
     in publications or presentations arising from this work. More details at
     http://www.quantum-espresso.org/quote

     Parallel version (MPI & OpenMP), running on       4 processor cores
     Number of MPI processes:                 4
     Threads/MPI process:                     1

     MPI processes distributed on     1 nodes
     150887 MiB available memory on the printing compute node when the environment starts
 
     Reading input from pw-si-96.in
Warning: card &CELL ignored
Warning: card / ignored

     Current dimensions of program PWSCF are:
     Max number of different atomic species (ntypx) = 10
     Max number of k-points (npk) =  40000
     Max angular momentum in pseudopotentials (lmaxx) =  4

     IMPORTANT: XC functional enforced from input :
     Exchange-correlation= PBE
                           (   1   4   3   4   0   0   0)
     Any further DFT definition will be discarded
     Please, verify this is what you really want


     gamma-point specific algorithms are used
 
     K-points division:     npool     =       2
     R & G space division:  proc/nbgrp/npool/nimage =       2
     Subspace diagonalization in iterative solution of the eigenvalue problem:
     a serial algorithm will be used

     Message from routine divide_et_impera:
     suboptimal parallelization: some nodes have no k-points
 
     Parallelization info
     --------------------
     sticks:   dense  smooth     PW     G-vecs:    dense   smooth      PW
     Min        2057    2057    543                98729    98729   13403
     Max        2058    2058    546                98730    98730   13406
     Sum        4115    4115   1089               197459   197459   26809
 
     Using Slab Decomposition
 


     bravais-lattice index     =            0
     lattice parameter (alat)  =      21.0341  a.u.
     unit-cell volume          =    8894.0411 (a.u.)^3
     number of atoms/cell      =           64
     number of atomic types    =            1
     number of electrons       =       256.00
     number of Kohn-Sham states=          154
     kinetic-energy cutoff     =      30.0000  Ry
     charge density cutoff     =     120.0000  Ry
     scf convergence threshold =      1.0E-06
     mixing beta               =       0.5000
     number of iterations used =            8  plain     mixing
     Exchange-correlation= PBE
                           (   1   4   3   4   0   0   0)

     GPU acceleration is ACTIVE.
     GPU-aware MPI enabled

     Message from routine print_cuda_info:
     High GPU oversubscription detected. Are you sure this is what you want?

     celldm(1)=  21.034081  celldm(2)=   0.000000  celldm(3)=   0.000000
     celldm(4)=   0.000000  celldm(5)=   0.000000  celldm(6)=   0.000000

     crystal axes: (cart. coord. in units of alat)
               a(1) = (   1.000000   0.000000   0.000000 )  
               a(2) = (   0.000000   0.972470   0.000000 )  
               a(3) = (   0.000000   0.000000   0.982771 )  

     reciprocal axes: (cart. coord. in units 2 pi/alat)
               b(1) = (  1.000000  0.000000  0.000000 )  
               b(2) = (  0.000000  1.028310  0.000000 )  
               b(3) = (  0.000000  0.000000  1.017531 )  


     PseudoPot. # 1 for Si read from file:
     /home/ppiaggi/pseudos/Si_ONCV_PBE_sr.upf
     MD5 check sum: 8553c464762ac42b85b1eed164b4d029
     Pseudo is Norm-conserving, Zval =  4.0
     Generated using ONCVPSP code by D. R. Hamann
     Using radial grid of 1510 points,  4 beta functions with: 
                l(1) =   0
                l(2) =   0
                l(3) =   1
                l(4) =   1

     atomic species   valence    mass     pseudopotential
        Si             4.00    28.08500     Si( 1.00)

     No symmetry found



   Cartesian axes

     site n.     atom                  positions (alat units)
         1           Si  tau(   1) = (   0.0019019   0.0008963  -0.0016694  )
         2           Si  tau(   2) = (  -0.0034103   0.2451280   0.2522008  )
         3           Si  tau(   3) = (   0.2549663  -0.0038654   0.2485673  )
         4           Si  tau(   4) = (   0.2571004   0.2403317  -0.0041491  )
         5           Si  tau(   5) = (   0.1231651   0.1210675   0.1227210  )
         6           Si  tau(   6) = (   0.5103155   0.0029561   0.0024992  )
         7           Si  tau(   7) = (   0.5100143   0.2471048   0.2459651  )
         8           Si  tau(   8) = (   0.6349575   0.1203102   0.1236318  )
         9           Si  tau(   9) = (   0.7686624  -0.0012630   0.2507309  )
        10           Si  tau(  10) = (   0.7603042   0.2386070  -0.0019288  )
        11           Si  tau(  11) = (  -0.0010079   0.4838592   0.0040173  )
        12           Si  tau(  12) = (   0.2520252   0.4883299   0.2517703  )
        13           Si  tau(  13) = (   0.1245963   0.6064621   0.1236654  )
        14           Si  tau(  14) = (   0.3857022   0.3612354   0.1210484  )
        15           Si  tau(  15) = (   0.5104245   0.4819638  -0.0027537  )
        16           Si  tau(  16) = (   0.6345387   0.6077510   0.1230523  )
        17           Si  tau(  17) = (   0.8886073   0.3685690   0.1233135  )
        18           Si  tau(  18) = (   0.7656074   0.4830175   0.2527311  )
        19           Si  tau(  19) = (  -0.0004224   0.7317142   0.2528619  )
        20           Si  tau(  20) = (   0.2503073   0.7272547  -0.0041419  )
        21           Si  tau(  21) = (   0.3818034   0.8488335   0.1277750  )
        22           Si  tau(  22) = (   0.5131355   0.7272868   0.2500857  )
        23           Si  tau(  23) = (   0.7605847   0.7308072  -0.0017150  )
        24           Si  tau(  24) = (   0.8912638   0.8497912   0.1204143  )
        25           Si  tau(  25) = (   0.0017609  -0.0014692   0.4959536  )
        26           Si  tau(  26) = (   0.2554967   0.2435493   0.5017497  )
        27           Si  tau(  27) = (   0.1296688   0.1209023   0.6238743  )
        28           Si  tau(  28) = (   0.3805034   0.1252625   0.3719088  )
        29           Si  tau(  29) = (   0.5072521  -0.0010403   0.5012567  )
        30           Si  tau(  30) = (   0.6376790   0.1177434   0.6215831  )
        31           Si  tau(  31) = (   0.8930533   0.1182797   0.3704647  )
        32           Si  tau(  32) = (   0.7640704   0.2430955   0.4997126  )
        33           Si  tau(  33) = (   0.1287970   0.3653587   0.3768222  )
        34           Si  tau(  34) = (   0.0042494   0.4864297   0.5004528  )
        35           Si  tau(  35) = (   0.1267490   0.6036618   0.6244642  )
        36           Si  tau(  36) = (   0.6368789   0.3641086   0.3721280  )
        37           Si  tau(  37) = (   0.3861243   0.6046511   0.3731978  )
        38           Si  tau(  38) = (   0.3858303   0.3670231   0.6224639  )
        39           Si  tau(  39) = (   0.5133778   0.4860481   0.5011318  )
        40           Si  tau(  40) = (   0.6362421   0.6113753   0.6244017  )
        41           Si  tau(  41) = (   0.8921710   0.6033637   0.3758306  )
        42           Si  tau(  42) = (   0.8890155   0.3687186   0.6262747  )
        43           Si  tau(  43) = (   0.1274413   0.8472200   0.3762493  )
        44           Si  tau(  44) = (   0.2592164   0.7319779   0.4997657  )
        45           Si  tau(  45) = (   0.6388289   0.8489626   0.3765928  )
        46           Si  tau(  46) = (   0.3816982   0.8530403   0.6247415  )
        47           Si  tau(  47) = (   0.7617309   0.7246195   0.4974399  )
        48           Si  tau(  48) = (   0.8880992   0.8474356   0.6237902  )
        49           Si  tau(  49) = (   0.0001629   0.2427528   0.7496022  )
        50           Si  tau(  50) = (   0.2554387   0.0003948   0.7472732  )
        51           Si  tau(  51) = (   0.3793665   0.1250501   0.8742859  )
        52           Si  tau(  52) = (   0.5085923   0.2455671   0.7519094  )
        53           Si  tau(  53) = (   0.7631209   0.0042816   0.7437453  )
        54           Si  tau(  54) = (   0.8942827   0.1255044   0.8693600  )
        55           Si  tau(  55) = (   0.1279182   0.3602259   0.8764925  )
        56           Si  tau(  56) = (   0.2551722   0.4813925   0.7482785  )
        57           Si  tau(  57) = (   0.6327938   0.3624872   0.8680936  )
        58           Si  tau(  58) = (   0.3825636   0.6054117   0.8702645  )
        59           Si  tau(  59) = (   0.7664918   0.4853264   0.7498021  )
        60           Si  tau(  60) = (   0.8895371   0.6062272   0.8710044  )
        61           Si  tau(  61) = (   0.0023612   0.7269855   0.7446275  )
        62           Si  tau(  62) = (   0.1299987   0.8499118   0.8709508  )
        63           Si  tau(  63) = (   0.5087342   0.7314030   0.7464972  )
        64           Si  tau(  64) = (   0.6418338   0.8465641   0.8676037  )

     number of k points=     1  Fermi-Dirac smearing, width (Ry)=  0.0100
                       cart. coord. in units 2pi/alat
        k(    1) = (   0.0000000   0.0000000   0.0000000), wk =   2.0000000

     Dense  grid:    98730 G-vectors     FFT dimensions: (  75,  72,  75)

     Estimated max dynamical RAM per process >     158.34 MB

     Estimated total dynamical RAM >     609.24 MB

     Initial potential from superposition of free atoms

     starting charge     255.9608, renormalised to     256.0000
     Starting wfcs are  256 randomized atomic wfcs

     total cpu time spent up to now is        4.2 secs

     Self-consistent Calculation

     iteration #  1     ecut=    30.00 Ry     beta= 0.50
     Davidson diagonalization with overlap
     ethr =  1.00E-02,  avg # of iterations =  3.0

     Threshold (ethr) on eigenvalues was too large:
     Diagonalizing with lowered threshold

     Davidson diagonalization with overlap
     ethr =  6.53E-04,  avg # of iterations =  4.0

     total cpu time spent up to now is        4.4 secs

     total energy              =    -503.78106086 Ry
     estimated scf accuracy    <       1.85082435 Ry

     iteration #  2     ecut=    30.00 Ry     beta= 0.50
     Davidson diagonalization with overlap
     ethr =  7.23E-04,  avg # of iterations =  1.0

     total cpu time spent up to now is        4.5 secs

     total energy              =    -503.76671784 Ry
     estimated scf accuracy    <       0.34404831 Ry

     iteration #  3     ecut=    30.00 Ry     beta= 0.50
     Davidson diagonalization with overlap
     ethr =  1.34E-04,  avg # of iterations =  4.0

     total cpu time spent up to now is        4.6 secs

     total energy              =    -503.78296013 Ry
     estimated scf accuracy    <       0.04733772 Ry

     iteration #  4     ecut=    30.00 Ry     beta= 0.50
     Davidson diagonalization with overlap
     ethr =  1.85E-05,  avg # of iterations = 18.0

     total cpu time spent up to now is        4.8 secs

     total energy              =    -503.79297561 Ry
     estimated scf accuracy    <       0.01005136 Ry

     iteration #  5     ecut=    30.00 Ry     beta= 0.50
     Davidson diagonalization with overlap
     ethr =  3.93E-06,  avg # of iterations = 11.0

     total cpu time spent up to now is        5.0 secs

     total energy              =    -503.79457409 Ry
     estimated scf accuracy    <       0.00171714 Ry

     iteration #  6     ecut=    30.00 Ry     beta= 0.50
     Davidson diagonalization with overlap
     ethr =  6.71E-07,  avg # of iterations =  4.0

     total cpu time spent up to now is        5.1 secs

     total energy              =    -503.79479565 Ry
     estimated scf accuracy    <       0.00037062 Ry

     iteration #  7     ecut=    30.00 Ry     beta= 0.50
     Davidson diagonalization with overlap
     ethr =  1.45E-07,  avg # of iterations =  5.0

     total cpu time spent up to now is        5.2 secs

     total energy              =    -503.79484576 Ry
     estimated scf accuracy    <       0.00007094 Ry

     iteration #  8     ecut=    30.00 Ry     beta= 0.50
     Davidson diagonalization with overlap
     ethr =  2.77E-08,  avg # of iterations =  5.0

     total cpu time spent up to now is        5.4 secs

     total energy              =    -503.79486125 Ry
     estimated scf accuracy    <       0.00001612 Ry

     iteration #  9     ecut=    30.00 Ry     beta= 0.50
     Davidson diagonalization with overlap
     ethr =  6.30E-09,  avg # of iterations =  4.0

     total cpu time spent up to now is        5.5 secs

     total energy              =    -503.79486309 Ry
     estimated scf accuracy    <       0.00000179 Ry

     iteration # 10     ecut=    30.00 Ry     beta= 0.50
     Davidson diagonalization with overlap
     ethr =  7.01E-10,  avg # of iterations =  5.0

     total cpu time spent up to now is        5.6 secs

     End of self-consistent calculation

          k = 0.0000 0.0000 0.0000 ( 12332 PWs)   bands (ev):

    -5.8965  -4.9324  -4.9058  -4.8312  -4.8000  -4.7176  -4.7071  -4.1362
    -4.0491  -4.0120  -3.9020  -3.8801  -3.8655  -3.8511  -3.8337  -3.7398
    -3.6915  -3.6765  -3.6119  -3.5265  -3.5094  -3.4561  -3.3842  -2.0408
    -2.0178  -1.9462  -1.8578  -1.7737  -1.7329  -1.7023  -1.6824  -1.6512
    -1.6373  -1.6199  -1.5430  -1.5334  -1.5275  -1.5174  -1.4791  -1.4540
    -1.4271  -0.9668  -0.9590  -0.8697  -0.7373   0.3596   0.4065   0.4345
     0.4568   0.4989   0.5091   0.5281   0.5730   0.5784   0.5867   0.6123
     0.6257   1.9387   1.9891   2.0025   2.0125   2.0511   2.1055   2.1447
     2.1560   2.1721   2.2078   2.2377   2.2446   2.2573   2.2636   2.2817
     2.3252   2.3605   2.3734   2.3967   2.4154   2.4311   2.4439   2.4579
     2.4758   2.5069   2.5193   2.5349   2.5515   2.6082   2.6605   3.0708
     3.0923   3.1139   3.1721   3.1936   3.3112   3.9686   4.0081   4.0147
     4.0352   4.0744   4.0858   4.0970   4.1443   4.2074   4.2272   4.2658
     4.2791   4.3273   4.3607   4.5123   4.5642   4.5976   4.6412   4.6805
     4.7012   4.7113   4.7419   4.7543   4.7849   4.8085   4.8586   4.8828
     4.9388   4.9804   4.9982   5.0601   5.1092   5.8668   5.9789   6.1519
     6.4541   6.5213   6.6034   6.6958   6.7599   6.8757   6.9688   6.9899
     7.0985   7.1584   7.2293   7.2380   7.3165   7.3191   7.3438   7.3610
     8.1046   8.1205   8.1894   8.1977   8.2286   8.2664   8.3181   8.3589
     8.3954   8.4295

     the Fermi energy is     6.2583 ev

!    total energy              =    -503.79486355 Ry
     estimated scf accuracy    <       0.00000039 Ry
     smearing contrib. (-TS)   =      -0.05547698 Ry
     internal energy E=F+TS    =    -503.73938657 Ry

     The total energy is F=E-TS. E is the sum of the following terms:
     one-electron contribution =     142.88429680 Ry
     hartree contribution      =      37.75218102 Ry
     xc contribution           =    -153.40216032 Ry
     ewald contribution        =    -530.97370408 Ry

     convergence has been achieved in  10 iterations

     Forces acting on atoms (cartesian axes, Ry/au):

     atom    1 type  1   force =     0.05012123   -0.01913561    0.03586714
     atom    2 type  1   force =     0.06893665    0.01315120   -0.02435473
     atom    3 type  1   force =    -0.01438141    0.01690404    0.00617430
     atom    4 type  1   force =    -0.02716455    0.01474099    0.08834776
     atom    5 type  1   force =     0.02873714    0.00627129    0.02133559
     atom    6 type  1   force =    -0.00803352   -0.03453286    0.01461449
     atom    7 type  1   force =    -0.00058966   -0.02068480    0.01163112
     atom    8 type  1   force =     0.01689771    0.00133313    0.02646766
     atom    9 type  1   force =    -0.03341343   -0.00659372   -0.01690495
     atom   10 type  1   force =     0.00036223    0.02253000    0.04022090
     atom   11 type  1   force =     0.06760750    0.01016222    0.01103940
     atom   12 type  1   force =     0.01876538   -0.01465379   -0.01905148
     atom   13 type  1   force =     0.01051571    0.01243319    0.01881318
     atom   14 type  1   force =    -0.02766623    0.02025589    0.01185511
     atom   15 type  1   force =    -0.01014408    0.02115714    0.04716966
     atom   16 type  1   force =     0.01511002   -0.01352364    0.00944191
     atom   17 type  1   force =    -0.06699442   -0.04543695    0.02400383
     atom   18 type  1   force =    -0.01945554    0.02116705   -0.01897665
     atom   19 type  1   force =     0.04436538   -0.01671669   -0.01662283
     atom   20 type  1   force =     0.03083763   -0.01062103    0.06416659
     atom   21 type  1   force =     0.00715600   -0.00573787   -0.01660716
     atom   22 type  1   force =    -0.01441121    0.00691019   -0.00014019
     atom   23 type  1   force =     0.01954746   -0.02945582    0.05177114
     atom   24 type  1   force =    -0.05017672    0.00148757    0.01757615
     atom   25 type  1   force =     0.04630975   -0.00898642    0.02265647
     atom   26 type  1   force =     0.00546496    0.00449914   -0.01019741
     atom   27 type  1   force =    -0.00874071    0.00064860   -0.00333341
     atom   28 type  1   force =     0.00971883   -0.01410397    0.00485243
     atom   29 type  1   force =     0.00281524    0.00812190   -0.02568362
     atom   30 type  1   force =    -0.02040654    0.03009559    0.00407889
     atom   31 type  1   force =    -0.06096978    0.01272625    0.02886077
     atom   32 type  1   force =    -0.00205116   -0.00613609   -0.01101566
     atom   33 type  1   force =     0.00318238   -0.00949296   -0.00276015
     atom   34 type  1   force =     0.03699274   -0.01214334   -0.00049794
     atom   35 type  1   force =     0.03534591    0.01737579   -0.00415227
     atom   36 type  1   force =     0.00204184   -0.00396517    0.01751059
     atom   37 type  1   force =    -0.00417070    0.01214137    0.01223139
     atom   38 type  1   force =    -0.00582392   -0.01436614    0.00655005
     atom   39 type  1   force =    -0.00483991    0.00316487   -0.01422544
     atom   40 type  1   force =     0.00516888   -0.02022104    0.00624771
     atom   41 type  1   force =    -0.05197287    0.01431597   -0.00531606
     atom   42 type  1   force =    -0.03324138   -0.02160906   -0.01417347
     atom   43 type  1   force =     0.02109482    0.01357615   -0.00391788
     atom   44 type  1   force =    -0.01110573   -0.02925021   -0.00164699
     atom   45 type  1   force =    -0.00594624    0.00924519   -0.00671784
     atom   46 type  1   force =     0.00431962   -0.00261269   -0.00024255
     atom   47 type  1   force =     0.00764594    0.00866525    0.00361733
     atom   48 type  1   force =    -0.04198548    0.01711892   -0.01962208
     atom   49 type  1   force =     0.07017723    0.02504855   -0.03572138
     atom   50 type  1   force =     0.00171243    0.00343790    0.00539461
     atom   51 type  1   force =     0.03898417   -0.03920759   -0.06305748
     atom   52 type  1   force =    -0.01002137   -0.02535775   -0.04051677
     atom   53 type  1   force =     0.01216628   -0.02404166    0.01316160
     atom   54 type  1   force =    -0.08445382   -0.02257314   -0.02525749
     atom   55 type  1   force =    -0.00163511    0.01956982   -0.05325979
     atom   56 type  1   force =    -0.00507960    0.00737448   -0.00179588
     atom   57 type  1   force =     0.03826486    0.00335475   -0.02221054
     atom   58 type  1   force =    -0.00057969    0.00496732   -0.03631960
     atom   59 type  1   force =    -0.03823480    0.01057212   -0.00984354
     atom   60 type  1   force =    -0.04036260    0.01782165   -0.02972407
     atom   61 type  1   force =     0.04300163    0.00156595    0.01355893
     atom   62 type  1   force =    -0.01348199    0.01229554   -0.05294197
     atom   63 type  1   force =    -0.00563471   -0.00767163    0.00172930
     atom   64 type  1   force =    -0.04019867    0.05262467   -0.03413675

     Total force =     0.364430     Total SCF correction =     0.001060


     Computing stress (Cartesian axis) and pressure

          total   stress  (Ry/bohr**3)                   (kbar)     P=        6.80
  -0.00003913  -0.00004268   0.00001027           -5.76       -6.28        1.51
  -0.00004268   0.00011997  -0.00007353           -6.28       17.65      -10.82
   0.00001027  -0.00007353   0.00005780            1.51      -10.82        8.50

 
     init_run     :      1.02s CPU      4.19s WALL (       1 calls)
     electrons    :      1.23s CPU      1.35s WALL (       1 calls)
     forces       :      0.03s CPU      0.04s WALL (       1 calls)
     stress       :      0.15s CPU      0.16s WALL (       1 calls)

     Called by init_run:
     wfcinit      :      0.45s CPU      3.46s WALL (       1 calls)
                                        3.46s GPU  (       1 calls)
     potinit      :      0.15s CPU      0.23s WALL (       1 calls)
     hinit0       :      0.40s CPU      0.43s WALL (       1 calls)

     Called by electrons:
     c_bands      :      0.87s CPU      0.94s WALL (      11 calls)
     sum_band     :      0.20s CPU      0.22s WALL (      11 calls)
     v_of_rho     :      0.09s CPU      0.17s WALL (      11 calls)
     mix_rho      :      0.07s CPU      0.08s WALL (      11 calls)

     Called by c_bands:
     init_us_2    :      0.03s CPU      0.03s WALL (      23 calls)
     init_us_2:gp :      0.03s CPU      0.03s WALL (      23 calls)
     regterg      :      0.79s CPU      0.85s WALL (      11 calls)

     Called by *egterg:
     rdiaghg      :      0.35s CPU      0.99s WALL (      74 calls)
                                        0.98s GPU  (      74 calls)
     h_psi        :      0.76s CPU      3.17s WALL (      76 calls)
                                        3.17s GPU  (      76 calls)
     g_psi        :      0.00s CPU      0.00s WALL (      64 calls)
                                        0.00s GPU  (      64 calls)

     Called by h_psi:
     h_psi:calbec :      0.41s CPU      2.77s WALL (      76 calls)
                                        2.76s GPU  (      76 calls)
     vloc_psi     :      0.31s CPU      0.36s WALL (      76 calls)
                                        0.36s GPU  (      76 calls)
     add_vuspsi   :      0.03s CPU      0.04s WALL (      76 calls)
                                        0.04s GPU  (      76 calls)

     General routines
     calbec       :      0.41s CPU      2.77s WALL (      81 calls)
     fft          :      0.42s CPU      0.54s WALL (      95 calls)
                                        0.10s GPU  (      61 calls)
     ffts         :      0.02s CPU      0.03s WALL (      11 calls)
     fftw         :      0.35s CPU      0.45s WALL (    1217 calls)
                                        0.41s GPU  (    1217 calls)
 
     Parallel routines
 
     PWSCF        :      2.47s CPU      5.80s WALL

 
   This run was terminated on:  11:23:32  10May2023            

=------------------------------------------------------------------------------=
   JOB DONE.
=------------------------------------------------------------------------------=
