An instance of this daemon is already running
An instance of this daemon is already running

     Program PWSCF v.7.1 starts on 10May2023 at 11:14:33 

     This program is part of the open-source Quantum ESPRESSO suite
     for quantum simulation of materials; please cite
         "P. Giannozzi et al., J. Phys.:Condens. Matter 21 395502 (2009);
         "P. Giannozzi et al., J. Phys.:Condens. Matter 29 465901 (2017);
         "P. Giannozzi et al., J. Chem. Phys. 152 154105 (2020);
          URL http://www.quantum-espresso.org", 
     in publications or presentations arising from this work. More details at
     http://www.quantum-espresso.org/quote

     Parallel version (MPI & OpenMP), running on       4 processor cores
     Number of MPI processes:                 4
     Threads/MPI process:                     1

     MPI processes distributed on     1 nodes
     150144 MiB available memory on the printing compute node when the environment starts
 
     Reading input from pw-si-32.in
Warning: card &CELL ignored
Warning: card / ignored

     Current dimensions of program PWSCF are:
     Max number of different atomic species (ntypx) = 10
     Max number of k-points (npk) =  40000
     Max angular momentum in pseudopotentials (lmaxx) =  4

     IMPORTANT: XC functional enforced from input :
     Exchange-correlation= PBE
                           (   1   4   3   4   0   0   0)
     Any further DFT definition will be discarded
     Please, verify this is what you really want


     gamma-point specific algorithms are used
 
     K-points division:     npool     =       2
     R & G space division:  proc/nbgrp/npool/nimage =       2
     Subspace diagonalization in iterative solution of the eigenvalue problem:
     a serial algorithm will be used

     Message from routine divide_et_impera:
     suboptimal parallelization: some nodes have no k-points
 
     Parallelization info
     --------------------
     sticks:   dense  smooth     PW     G-vecs:    dense   smooth      PW
     Min        2051    2051    544                98409    98409   13341
     Max        2052    2052    545                98412    98412   13344
     Sum        4103    4103   1089               196821   196821   26685
 
     Using Slab Decomposition
 


     bravais-lattice index     =            0
     lattice parameter (alat)  =      20.3528  a.u.
     unit-cell volume          =    8861.3699 (a.u.)^3
     number of atoms/cell      =           64
     number of atomic types    =            1
     number of electrons       =       256.00
     number of Kohn-Sham states=          154
     kinetic-energy cutoff     =      30.0000  Ry
     charge density cutoff     =     120.0000  Ry
     scf convergence threshold =      1.0E-06
     mixing beta               =       0.5000
     number of iterations used =            8  plain     mixing
     Exchange-correlation= PBE
                           (   1   4   3   4   0   0   0)

     GPU acceleration is ACTIVE.
     GPU-aware MPI enabled

     Message from routine print_cuda_info:
     High GPU oversubscription detected. Are you sure this is what you want?

     celldm(1)=  20.352805  celldm(2)=   0.000000  celldm(3)=   0.000000
     celldm(4)=   0.000000  celldm(5)=   0.000000  celldm(6)=   0.000000

     crystal axes: (cart. coord. in units of alat)
               a(1) = (   1.000000   0.000000   0.000000 )  
               a(2) = (   0.000000   1.037159   0.000000 )  
               a(3) = (   0.000000   0.000000   1.013404 )  

     reciprocal axes: (cart. coord. in units 2 pi/alat)
               b(1) = (  1.000000  0.000000  0.000000 )  
               b(2) = (  0.000000  0.964173  0.000000 )  
               b(3) = (  0.000000  0.000000  0.986773 )  


     PseudoPot. # 1 for Si read from file:
     /home/ppiaggi/pseudos/Si_ONCV_PBE_sr.upf
     MD5 check sum: 8553c464762ac42b85b1eed164b4d029
     Pseudo is Norm-conserving, Zval =  4.0
     Generated using ONCVPSP code by D. R. Hamann
     Using radial grid of 1510 points,  4 beta functions with: 
                l(1) =   0
                l(2) =   0
                l(3) =   1
                l(4) =   1

     atomic species   valence    mass     pseudopotential
        Si             4.00    28.08500     Si( 1.00)

     No symmetry found



   Cartesian axes

     site n.     atom                  positions (alat units)
         1           Si  tau(   1) = (  -0.0004473  -0.0019418  -0.0044758  )
         2           Si  tau(   2) = (  -0.0026766   0.2546722   0.2568375  )
         3           Si  tau(   3) = (   0.2512237   0.0042296   0.2537102  )
         4           Si  tau(   4) = (   0.2487992   0.2540890  -0.0014671  )
         5           Si  tau(   5) = (   0.1206034   0.1284028   0.1304865  )
         6           Si  tau(   6) = (   0.4977352   0.0039737  -0.0027503  )
         7           Si  tau(   7) = (   0.4954186   0.2579403   0.2527060  )
         8           Si  tau(   8) = (   0.6241844   0.1315038   0.1264586  )
         9           Si  tau(   9) = (   0.7445921   0.0016500   0.2524191  )
        10           Si  tau(  10) = (   0.7465429   0.2527504   0.0041656  )
        11           Si  tau(  11) = (  -0.0018646   0.5093636  -0.0013213  )
        12           Si  tau(  12) = (   0.2484434   0.5072539   0.2498231  )
        13           Si  tau(  13) = (   0.1216153   0.6404693   0.1227894  )
        14           Si  tau(  14) = (   0.3693512   0.3784204   0.1295388  )
        15           Si  tau(  15) = (   0.5003450   0.5123930  -0.0026814  )
        16           Si  tau(  16) = (   0.6233695   0.6401786   0.1228357  )
        17           Si  tau(  17) = (   0.8763902   0.3827752   0.1284654  )
        18           Si  tau(  18) = (   0.7517314   0.5045792   0.2513693  )
        19           Si  tau(  19) = (  -0.0013363   0.7621151   0.2543141  )
        20           Si  tau(  20) = (   0.2536420   0.7635831   0.0030872  )
        21           Si  tau(  21) = (   0.3694036   0.8934978   0.1266907  )
        22           Si  tau(  22) = (   0.4980022   0.7627222   0.2510200  )
        23           Si  tau(  23) = (   0.7486898   0.7608739  -0.0041040  )
        24           Si  tau(  24) = (   0.8717622   0.8886400   0.1300908  )
        25           Si  tau(  25) = (  -0.0035922  -0.0023454   0.5057764  )
        26           Si  tau(  26) = (   0.2467424   0.2546791   0.5082267  )
        27           Si  tau(  27) = (   0.1272137   0.1265916   0.6342627  )
        28           Si  tau(  28) = (   0.3752161   0.1318107   0.3793980  )
        29           Si  tau(  29) = (   0.4939996   0.0039540   0.5067521  )
        30           Si  tau(  30) = (   0.6211335   0.1275333   0.6317297  )
        31           Si  tau(  31) = (   0.8708512   0.1279584   0.3829505  )
        32           Si  tau(  32) = (   0.7505556   0.2518953   0.5042286  )
        33           Si  tau(  33) = (   0.1283318   0.3819937   0.3824599  )
        34           Si  tau(  34) = (  -0.0029625   0.5134597   0.5095256  )
        35           Si  tau(  35) = (   0.1263637   0.6343345   0.6380905  )
        36           Si  tau(  36) = (   0.6211061   0.3798835   0.3835548  )
        37           Si  tau(  37) = (   0.3716229   0.6352581   0.3811244  )
        38           Si  tau(  38) = (   0.3759486   0.3840280   0.6361088  )
        39           Si  tau(  39) = (   0.5017261   0.5061432   0.5042756  )
        40           Si  tau(  40) = (   0.6261607   0.6403539   0.6347321  )
        41           Si  tau(  41) = (   0.8709638   0.6372355   0.3772495  )
        42           Si  tau(  42) = (   0.8686300   0.3797777   0.6339336  )
        43           Si  tau(  43) = (   0.1282428   0.8883864   0.3816176  )
        44           Si  tau(  44) = (   0.2523474   0.7610629   0.5101695  )
        45           Si  tau(  45) = (   0.6238386   0.8861936   0.3786839  )
        46           Si  tau(  46) = (   0.3775063   0.8882657   0.6344074  )
        47           Si  tau(  47) = (   0.7493365   0.7630708   0.5075140  )
        48           Si  tau(  48) = (   0.8693954   0.8905441   0.6311976  )
        49           Si  tau(  49) = (  -0.0045117   0.2525868   0.7566160  )
        50           Si  tau(  50) = (   0.2503161   0.0038309   0.7606745  )
        51           Si  tau(  51) = (   0.3743815   0.1286269   0.8832937  )
        52           Si  tau(  52) = (   0.4995256   0.2500626   0.7571755  )
        53           Si  tau(  53) = (   0.7489409  -0.0007357   0.7598601  )
        54           Si  tau(  54) = (   0.8758455   0.1284382   0.8838876  )
        55           Si  tau(  55) = (   0.1264573   0.3851595   0.8851041  )
        56           Si  tau(  56) = (   0.2503662   0.5079219   0.7619603  )
        57           Si  tau(  57) = (   0.6266831   0.3778530   0.8880455  )
        58           Si  tau(  58) = (   0.3695230   0.6338270   0.8870275  )
        59           Si  tau(  59) = (   0.7503046   0.5073028   0.7574188  )
        60           Si  tau(  60) = (   0.8754497   0.6406569   0.8867847  )
        61           Si  tau(  61) = (  -0.0000845   0.7623237   0.7576286  )
        62           Si  tau(  62) = (   0.1283163   0.8860887   0.8878515  )
        63           Si  tau(  63) = (   0.4987931   0.7666778   0.7611389  )
        64           Si  tau(  64) = (   0.6198611   0.8899912   0.8851820  )

     number of k points=     1  Fermi-Dirac smearing, width (Ry)=  0.0100
                       cart. coord. in units 2pi/alat
        k(    1) = (   0.0000000   0.0000000   0.0000000), wk =   2.0000000

     Dense  grid:    98411 G-vectors     FFT dimensions: (  72,  75,  72)

     Estimated max dynamical RAM per process >     157.08 MB

     Estimated total dynamical RAM >     604.29 MB

     Initial potential from superposition of free atoms

     starting charge     255.9608, renormalised to     256.0000
     Starting wfcs are  256 randomized atomic wfcs

     total cpu time spent up to now is        4.2 secs

     Self-consistent Calculation

     iteration #  1     ecut=    30.00 Ry     beta= 0.50
     Davidson diagonalization with overlap
     ethr =  1.00E-02,  avg # of iterations =  3.0

     Threshold (ethr) on eigenvalues was too large:
     Diagonalizing with lowered threshold

     Davidson diagonalization with overlap
     ethr =  6.51E-04,  avg # of iterations =  3.0

     total cpu time spent up to now is        4.4 secs

     total energy              =    -503.79796910 Ry
     estimated scf accuracy    <       1.84714338 Ry

     iteration #  2     ecut=    30.00 Ry     beta= 0.50
     Davidson diagonalization with overlap
     ethr =  7.22E-04,  avg # of iterations =  1.0

     total cpu time spent up to now is        4.5 secs

     total energy              =    -503.78218728 Ry
     estimated scf accuracy    <       0.34469428 Ry

     iteration #  3     ecut=    30.00 Ry     beta= 0.50
     Davidson diagonalization with overlap
     ethr =  1.35E-04,  avg # of iterations =  9.0

     total cpu time spent up to now is        4.6 secs

     total energy              =    -503.79242208 Ry
     estimated scf accuracy    <       0.10266866 Ry

     iteration #  4     ecut=    30.00 Ry     beta= 0.50
     Davidson diagonalization with overlap
     ethr =  4.01E-05,  avg # of iterations =  5.0

     total cpu time spent up to now is        4.7 secs

     total energy              =    -503.81029851 Ry
     estimated scf accuracy    <       0.00915694 Ry

     iteration #  5     ecut=    30.00 Ry     beta= 0.50
     Davidson diagonalization with overlap
     c_bands:  3 eigenvalues not converged
     ethr =  3.58E-06,  avg # of iterations = 20.0

     total cpu time spent up to now is        4.9 secs

     total energy              =    -503.81162757 Ry
     estimated scf accuracy    <       0.00177725 Ry

     iteration #  6     ecut=    30.00 Ry     beta= 0.50
     Davidson diagonalization with overlap
     ethr =  6.94E-07,  avg # of iterations = 11.0

     total cpu time spent up to now is        5.1 secs

     total energy              =    -503.81190388 Ry
     estimated scf accuracy    <       0.00031549 Ry

     iteration #  7     ecut=    30.00 Ry     beta= 0.50
     Davidson diagonalization with overlap
     ethr =  1.23E-07,  avg # of iterations =  4.0

     total cpu time spent up to now is        5.2 secs

     total energy              =    -503.81195442 Ry
     estimated scf accuracy    <       0.00009140 Ry

     iteration #  8     ecut=    30.00 Ry     beta= 0.50
     Davidson diagonalization with overlap
     ethr =  3.57E-08,  avg # of iterations =  4.0

     total cpu time spent up to now is        5.3 secs

     total energy              =    -503.81197026 Ry
     estimated scf accuracy    <       0.00000900 Ry

     iteration #  9     ecut=    30.00 Ry     beta= 0.50
     Davidson diagonalization with overlap
     ethr =  3.51E-09,  avg # of iterations =  4.0

     total cpu time spent up to now is        5.4 secs

     End of self-consistent calculation

          k = 0.0000 0.0000 0.0000 ( 12303 PWs)   bands (ev):

    -5.8515  -4.9694  -4.8228  -4.7964  -4.7584  -4.7167  -4.6145  -4.0409
    -4.0117  -3.9824  -3.9503  -3.9079  -3.8882  -3.8277  -3.7503  -3.7145
    -3.7030  -3.6865  -3.6492  -3.5864  -3.5566  -3.5299  -3.1762  -1.9493
    -1.8775  -1.8084  -1.8007  -1.7726  -1.7351  -1.7141  -1.6858  -1.6719
    -1.6527  -1.6261  -1.6011  -1.5658  -1.5557  -1.5239  -1.4780  -1.3465
    -1.3102  -1.0374  -0.8505  -0.8050  -0.7772   0.3982   0.4443   0.4748
     0.4895   0.5311   0.5428   0.5686   0.5843   0.6157   0.6430   0.6451
     0.6472   2.0925   2.1000   2.1112   2.1307   2.1426   2.1553   2.1623
     2.1860   2.1979   2.2128   2.2221   2.2414   2.2504   2.2674   2.2733
     2.2887   2.3072   2.3286   2.3333   2.3486   2.3587   2.3823   2.3963
     2.4136   2.4164   2.4621   2.6975   2.7355   2.7513   2.7819   3.0692
     3.0810   3.2278   3.2632   3.3071   3.3098   3.9764   4.0202   4.0499
     4.0693   4.0915   4.1046   4.1167   4.1560   4.1896   4.2079   4.3528
     4.4604   4.5138   4.5332   4.5650   4.6031   4.6196   4.6359   4.6813
     4.7065   4.7104   4.7287   4.7530   4.7704   4.7973   4.8119   4.8303
     4.8457   4.8829   4.9117   4.9535   5.6570   5.8674   5.9921   6.2776
     6.4459   6.4842   6.7861   6.8089   6.8200   6.8720   6.9609   7.0160
     7.0881   7.1050   7.2090   7.3151   7.3376   7.3588   7.3973   7.4603
     8.1510   8.2029   8.2301   8.2717   8.2904   8.3028   8.3475   8.3745
     8.4128   8.4563

     the Fermi energy is     6.3054 ev

!    total energy              =    -503.81197250 Ry
     estimated scf accuracy    <       0.00000077 Ry
     smearing contrib. (-TS)   =      -0.05753609 Ry
     internal energy E=F+TS    =    -503.75443640 Ry

     The total energy is F=E-TS. E is the sum of the following terms:
     one-electron contribution =     144.32343404 Ry
     hartree contribution      =      37.33409377 Ry
     xc contribution           =    -153.49071826 Ry
     ewald contribution        =    -531.92124595 Ry

     convergence has been achieved in   9 iterations

     Forces acting on atoms (cartesian axes, Ry/au):

     atom    1 type  1   force =     0.00414629   -0.04349356    0.02095051
     atom    2 type  1   force =     0.00726887    0.00778472    0.00673668
     atom    3 type  1   force =    -0.01172670   -0.05570319    0.00344277
     atom    4 type  1   force =    -0.01066924   -0.00417543    0.00531201
     atom    5 type  1   force =     0.00399086   -0.01432278   -0.02405195
     atom    6 type  1   force =     0.00333981   -0.05603785    0.01043829
     atom    7 type  1   force =     0.02050724   -0.00760471    0.00386231
     atom    8 type  1   force =    -0.02730246   -0.02631501    0.01097576
     atom    9 type  1   force =     0.01150839   -0.05155119    0.00954939
     atom   10 type  1   force =     0.03911837    0.01361578   -0.01929917
     atom   11 type  1   force =     0.00462690    0.01110072   -0.00303634
     atom   12 type  1   force =    -0.01461391    0.02720385    0.01183584
     atom   13 type  1   force =     0.00735539   -0.02264911    0.01513606
     atom   14 type  1   force =     0.02124127    0.01937159   -0.03561363
     atom   15 type  1   force =    -0.01189061   -0.02547945    0.01183828
     atom   16 type  1   force =     0.00972125   -0.02759582    0.01627306
     atom   17 type  1   force =    -0.00035171   -0.02185524   -0.01457667
     atom   18 type  1   force =    -0.03560776    0.02687597    0.00857324
     atom   19 type  1   force =     0.00652523    0.01962212    0.00210867
     atom   20 type  1   force =    -0.01759913    0.00285094   -0.01314266
     atom   21 type  1   force =     0.02954572    0.05531470    0.01085685
     atom   22 type  1   force =    -0.01254673    0.01174562    0.00448046
     atom   23 type  1   force =    -0.00374580    0.03763207    0.01385522
     atom   24 type  1   force =    -0.00277631    0.05231703   -0.01991135
     atom   25 type  1   force =     0.01632969   -0.04105785    0.00726266
     atom   26 type  1   force =     0.02573963    0.00773733    0.00615009
     atom   27 type  1   force =    -0.03056428   -0.01296358   -0.01025616
     atom   28 type  1   force =    -0.01480935   -0.01201485    0.00564508
     atom   29 type  1   force =     0.01664223   -0.06719557   -0.00488083
     atom   30 type  1   force =     0.02287582   -0.02081531   -0.00311865
     atom   31 type  1   force =     0.01391429   -0.02806120   -0.02530231
     atom   32 type  1   force =    -0.02805730    0.01332721    0.02044493
     atom   33 type  1   force =    -0.03268469    0.00745348   -0.00364118
     atom   34 type  1   force =     0.00399640   -0.01578837   -0.00970355
     atom   35 type  1   force =    -0.00511170    0.00343546   -0.01622344
     atom   36 type  1   force =     0.02741768   -0.00950173   -0.03112817
     atom   37 type  1   force =     0.01542442   -0.01083037   -0.01568293
     atom   38 type  1   force =    -0.00174007   -0.01911409   -0.01433683
     atom   39 type  1   force =    -0.01451317    0.03767465    0.02631032
     atom   40 type  1   force =    -0.01579806   -0.02427655   -0.00310445
     atom   41 type  1   force =     0.00884708   -0.01076638    0.01265068
     atom   42 type  1   force =     0.02501995    0.00007712   -0.01910363
     atom   43 type  1   force =    -0.00974882    0.05107752   -0.00365255
     atom   44 type  1   force =    -0.01068491    0.00985882    0.00042219
     atom   45 type  1   force =    -0.00954489    0.06464926    0.00416267
     atom   46 type  1   force =    -0.01713950    0.06907173   -0.00686665
     atom   47 type  1   force =    -0.00499497    0.00672677   -0.01554933
     atom   48 type  1   force =     0.02328877    0.04850813    0.01508078
     atom   49 type  1   force =     0.02717944    0.02104408    0.00615225
     atom   50 type  1   force =     0.00034869   -0.07579175   -0.00106500
     atom   51 type  1   force =    -0.00400827   -0.00366329    0.01464910
     atom   52 type  1   force =     0.00350180    0.03192802    0.01421498
     atom   53 type  1   force =    -0.01203356   -0.04162098   -0.00545808
     atom   54 type  1   force =    -0.01913446   -0.01668276    0.01904124
     atom   55 type  1   force =    -0.02550108   -0.03249035    0.00418343
     atom   56 type  1   force =    -0.00032499    0.00582194   -0.01148426
     atom   57 type  1   force =    -0.01449969    0.00790925   -0.01242396
     atom   58 type  1   force =     0.02832401    0.01945463   -0.00181829
     atom   59 type  1   force =    -0.00970505    0.02112314    0.02684385
     atom   60 type  1   force =    -0.00200403   -0.03303098   -0.01731934
     atom   61 type  1   force =    -0.00103270    0.02591804    0.00443330
     atom   62 type  1   force =    -0.00994220    0.05841539   -0.01143751
     atom   63 type  1   force =    -0.00849639   -0.02550583    0.00158543
     atom   64 type  1   force =     0.02315899    0.06130803    0.01773049

     Total force =     0.318427     Total SCF correction =     0.001256


     Computing stress (Cartesian axis) and pressure

          total   stress  (Ry/bohr**3)                   (kbar)     P=        9.07
   0.00013791  -0.00002623   0.00003849           20.29       -3.86        5.66
  -0.00002623  -0.00004681   0.00000630           -3.86       -6.89        0.93
   0.00003849   0.00000630   0.00009391            5.66        0.93       13.81

 
     init_run     :      1.04s CPU      4.14s WALL (       1 calls)
     electrons    :      1.09s CPU      1.19s WALL (       1 calls)
     forces       :      0.03s CPU      0.04s WALL (       1 calls)
     stress       :      0.15s CPU      0.15s WALL (       1 calls)

     Called by init_run:
     wfcinit      :      0.48s CPU      3.43s WALL (       1 calls)
                                        3.43s GPU  (       1 calls)
     potinit      :      0.15s CPU      0.23s WALL (       1 calls)
     hinit0       :      0.39s CPU      0.41s WALL (       1 calls)

     Called by electrons:
     c_bands      :      0.78s CPU      0.84s WALL (      10 calls)
     sum_band     :      0.17s CPU      0.19s WALL (      10 calls)
     v_of_rho     :      0.08s CPU      0.17s WALL (      10 calls)
     mix_rho      :      0.05s CPU      0.06s WALL (      10 calls)

     Called by c_bands:
     init_us_2    :      0.02s CPU      0.03s WALL (      21 calls)
     init_us_2:gp :      0.02s CPU      0.03s WALL (      21 calls)
     regterg      :      0.70s CPU      0.76s WALL (      10 calls)

     Called by *egterg:
     rdiaghg      :      0.34s CPU      0.94s WALL (      73 calls)
                                        0.92s GPU  (      73 calls)
     h_psi        :      0.73s CPU      3.10s WALL (      75 calls)
                                        3.09s GPU  (      75 calls)
     g_psi        :      0.00s CPU      0.00s WALL (      64 calls)
                                        0.00s GPU  (      64 calls)

     Called by h_psi:
     h_psi:calbec :      0.44s CPU      2.75s WALL (      75 calls)
                                        2.75s GPU  (      75 calls)
     vloc_psi     :      0.25s CPU      0.30s WALL (      75 calls)
                                        0.30s GPU  (      75 calls)
     add_vuspsi   :      0.03s CPU      0.04s WALL (      75 calls)
                                        0.04s GPU  (      75 calls)

     General routines
     calbec       :      0.45s CPU      2.76s WALL (      80 calls)
     fft          :      0.41s CPU      0.51s WALL (      87 calls)
                                        0.10s GPU  (      56 calls)
     ffts         :      0.02s CPU      0.02s WALL (      10 calls)
     fftw         :      0.28s CPU      0.39s WALL (    1126 calls)
                                        0.34s GPU  (    1126 calls)
 
     Parallel routines
 
     PWSCF        :      2.35s CPU      5.59s WALL

 
   This run was terminated on:  11:14:38  10May2023            

=------------------------------------------------------------------------------=
   JOB DONE.
=------------------------------------------------------------------------------=
