An instance of this daemon is already running
An instance of this daemon is already running
An instance of this daemon is already running

     Program PWSCF v.7.1 starts on 10May2023 at 11:11:54 

     This program is part of the open-source Quantum ESPRESSO suite
     for quantum simulation of materials; please cite
         "P. Giannozzi et al., J. Phys.:Condens. Matter 21 395502 (2009);
         "P. Giannozzi et al., J. Phys.:Condens. Matter 29 465901 (2017);
         "P. Giannozzi et al., J. Chem. Phys. 152 154105 (2020);
          URL http://www.quantum-espresso.org", 
     in publications or presentations arising from this work. More details at
     http://www.quantum-espresso.org/quote

     Parallel version (MPI & OpenMP), running on       4 processor cores
     Number of MPI processes:                 4
     Threads/MPI process:                     1

     MPI processes distributed on     1 nodes
     150767 MiB available memory on the printing compute node when the environment starts
 
     Reading input from pw-si-13.in
Warning: card &CELL ignored
Warning: card / ignored

     Current dimensions of program PWSCF are:
     Max number of different atomic species (ntypx) = 10
     Max number of k-points (npk) =  40000
     Max angular momentum in pseudopotentials (lmaxx) =  4

     IMPORTANT: XC functional enforced from input :
     Exchange-correlation= PBE
                           (   1   4   3   4   0   0   0)
     Any further DFT definition will be discarded
     Please, verify this is what you really want


     gamma-point specific algorithms are used
 
     K-points division:     npool     =       2
     R & G space division:  proc/nbgrp/npool/nimage =       2
     Subspace diagonalization in iterative solution of the eigenvalue problem:
     a serial algorithm will be used

     Message from routine divide_et_impera:
     suboptimal parallelization: some nodes have no k-points
 
     Parallelization info
     --------------------
     sticks:   dense  smooth     PW     G-vecs:    dense   smooth      PW
     Min        2025    2025    538                98757    98757   13411
     Max        2026    2026    539                98758    98758   13414
     Sum        4051    4051   1077               197515   197515   26825
 
     Using Slab Decomposition
 


     bravais-lattice index     =            0
     lattice parameter (alat)  =      20.4600  a.u.
     unit-cell volume          =    8898.1784 (a.u.)^3
     number of atoms/cell      =           64
     number of atomic types    =            1
     number of electrons       =       256.00
     number of Kohn-Sham states=          154
     kinetic-energy cutoff     =      30.0000  Ry
     charge density cutoff     =     120.0000  Ry
     scf convergence threshold =      1.0E-06
     mixing beta               =       0.5000
     number of iterations used =            8  plain     mixing
     Exchange-correlation= PBE
                           (   1   4   3   4   0   0   0)

     GPU acceleration is ACTIVE.
     GPU-aware MPI enabled

     Message from routine print_cuda_info:
     High GPU oversubscription detected. Are you sure this is what you want?

     celldm(1)=  20.460032  celldm(2)=   0.000000  celldm(3)=   0.000000
     celldm(4)=   0.000000  celldm(5)=   0.000000  celldm(6)=   0.000000

     crystal axes: (cart. coord. in units of alat)
               a(1) = (   1.000000   0.000000   0.000000 )  
               a(2) = (   0.000000   1.015256   0.000000 )  
               a(3) = (   0.000000   0.000000   1.023308 )  

     reciprocal axes: (cart. coord. in units 2 pi/alat)
               b(1) = (  1.000000  0.000000  0.000000 )  
               b(2) = (  0.000000  0.984973  0.000000 )  
               b(3) = (  0.000000  0.000000  0.977223 )  


     PseudoPot. # 1 for Si read from file:
     /home/ppiaggi/pseudos/Si_ONCV_PBE_sr.upf
     MD5 check sum: 8553c464762ac42b85b1eed164b4d029
     Pseudo is Norm-conserving, Zval =  4.0
     Generated using ONCVPSP code by D. R. Hamann
     Using radial grid of 1510 points,  4 beta functions with: 
                l(1) =   0
                l(2) =   0
                l(3) =   1
                l(4) =   1

     atomic species   valence    mass     pseudopotential
        Si             4.00    28.08500     Si( 1.00)

     No symmetry found



   Cartesian axes

     site n.     atom                  positions (alat units)
         1           Si  tau(   1) = (  -0.0041440   0.0015887   0.0030185  )
         2           Si  tau(   2) = (  -0.0017251   0.2559350   0.2545139  )
         3           Si  tau(   3) = (   0.2451318  -0.0037263   0.2531095  )
         4           Si  tau(   4) = (   0.2448966   0.2561255  -0.0033650  )
         5           Si  tau(   5) = (   0.1232248   0.1238646   0.1294941  )
         6           Si  tau(   6) = (   0.4976183  -0.0043664  -0.0041912  )
         7           Si  tau(   7) = (   0.4914313   0.2505464   0.2594963  )
         8           Si  tau(   8) = (   0.6229737   0.1301000   0.1310692  )
         9           Si  tau(   9) = (   0.7460201   0.0034269   0.2610510  )
        10           Si  tau(  10) = (   0.7442249   0.2563358  -0.0006560  )
        11           Si  tau(  11) = (  -0.0038740   0.5024578   0.0042570  )
        12           Si  tau(  12) = (   0.2459894   0.5033716   0.2571349  )
        13           Si  tau(  13) = (   0.1275769   0.6308701   0.1268018  )
        14           Si  tau(  14) = (   0.3673412   0.3818513   0.1248327  )
        15           Si  tau(  15) = (   0.4993559   0.5013344  -0.0041309  )
        16           Si  tau(  16) = (   0.6223841   0.6330591   0.1282806  )
        17           Si  tau(  17) = (   0.8639869   0.3763778   0.1266454  )
        18           Si  tau(  18) = (   0.7418876   0.5045448   0.2565925  )
        19           Si  tau(  19) = (   0.0026619   0.7554880   0.2544306  )
        20           Si  tau(  20) = (   0.2471757   0.7604131  -0.0026327  )
        21           Si  tau(  21) = (   0.3758149   0.8877787   0.1282488  )
        22           Si  tau(  22) = (   0.4996341   0.7565907   0.2563730  )
        23           Si  tau(  23) = (   0.7456394   0.7588707  -0.0037181  )
        24           Si  tau(  24) = (   0.8670384   0.8866920   0.1325427  )
        25           Si  tau(  25) = (  -0.0001503   0.0036133   0.5106870  )
        26           Si  tau(  26) = (   0.2482711   0.2493100   0.5187290  )
        27           Si  tau(  27) = (   0.1214723   0.1234660   0.6460221  )
        28           Si  tau(  28) = (   0.3748718   0.1222240   0.3868331  )
        29           Si  tau(  29) = (   0.4917428   0.0018516   0.5119265  )
        30           Si  tau(  30) = (   0.6155993   0.1267590   0.6459690  )
        31           Si  tau(  31) = (   0.8656669   0.1233245   0.3840693  )
        32           Si  tau(  32) = (   0.7394049   0.2479706   0.5151871  )
        33           Si  tau(  33) = (   0.1217458   0.3760639   0.3900108  )
        34           Si  tau(  34) = (  -0.0027142   0.5093458   0.5129684  )
        35           Si  tau(  35) = (   0.1258737   0.6306776   0.6441351  )
        36           Si  tau(  36) = (   0.6168786   0.3758812   0.3823840  )
        37           Si  tau(  37) = (   0.3717688   0.6295235   0.3853763  )
        38           Si  tau(  38) = (   0.3706401   0.3759147   0.6466652  )
        39           Si  tau(  39) = (   0.4912506   0.5016351   0.5121770  )
        40           Si  tau(  40) = (   0.6207742   0.6312261   0.6391737  )
        41           Si  tau(  41) = (   0.8656611   0.6297923   0.3876337  )
        42           Si  tau(  42) = (   0.8678408   0.3806473   0.6418971  )
        43           Si  tau(  43) = (   0.1207572   0.8859189   0.3828633  )
        44           Si  tau(  44) = (   0.2454005   0.7566835   0.5173745  )
        45           Si  tau(  45) = (   0.6213620   0.8854634   0.3833070  )
        46           Si  tau(  46) = (   0.3709075   0.8804333   0.6444830  )
        47           Si  tau(  47) = (   0.7405799   0.7601424   0.5107801  )
        48           Si  tau(  48) = (   0.8646883   0.8808401   0.6429562  )
        49           Si  tau(  49) = (  -0.0044883   0.2526421   0.7698524  )
        50           Si  tau(  50) = (   0.2465500   0.0024247   0.7750036  )
        51           Si  tau(  51) = (   0.3720650   0.1266091   0.9045753  )
        52           Si  tau(  52) = (   0.4965172   0.2563030   0.7743956  )
        53           Si  tau(  53) = (   0.7454888   0.0019295   0.7730739  )
        54           Si  tau(  54) = (   0.8631449   0.1224185   0.9036965  )
        55           Si  tau(  55) = (   0.1214478   0.3755334   0.9048842  )
        56           Si  tau(  56) = (   0.2484980   0.5041146   0.7702046  )
        57           Si  tau(  57) = (   0.6155847   0.3826783   0.8983445  )
        58           Si  tau(  58) = (   0.3711138   0.6274370   0.8971521  )
        59           Si  tau(  59) = (   0.7443586   0.5041514   0.7737549  )
        60           Si  tau(  60) = (   0.8674608   0.6352373   0.9011622  )
        61           Si  tau(  61) = (   0.0020926   0.7576274   0.7681073  )
        62           Si  tau(  62) = (   0.1230872   0.8813455   0.9032028  )
        63           Si  tau(  63) = (   0.4990053   0.7555769   0.7684208  )
        64           Si  tau(  64) = (   0.6196920   0.8843048   0.8998882  )

     number of k points=     1  Fermi-Dirac smearing, width (Ry)=  0.0100
                       cart. coord. in units 2pi/alat
        k(    1) = (   0.0000000   0.0000000   0.0000000), wk =   2.0000000

     Dense  grid:    98758 G-vectors     FFT dimensions: (  72,  75,  75)

     Estimated max dynamical RAM per process >     158.38 MB

     Estimated total dynamical RAM >     609.41 MB

     Initial potential from superposition of free atoms

     starting charge     255.9608, renormalised to     256.0000
     Starting wfcs are  256 randomized atomic wfcs

     total cpu time spent up to now is        4.2 secs

     Self-consistent Calculation

     iteration #  1     ecut=    30.00 Ry     beta= 0.50
     Davidson diagonalization with overlap
     ethr =  1.00E-02,  avg # of iterations =  3.0

     Threshold (ethr) on eigenvalues was too large:
     Diagonalizing with lowered threshold

     Davidson diagonalization with overlap
     ethr =  6.53E-04,  avg # of iterations =  3.0

     total cpu time spent up to now is        4.4 secs

     total energy              =    -503.87864890 Ry
     estimated scf accuracy    <       1.85174665 Ry

     iteration #  2     ecut=    30.00 Ry     beta= 0.50
     Davidson diagonalization with overlap
     ethr =  7.23E-04,  avg # of iterations =  2.0

     total cpu time spent up to now is        4.5 secs

     total energy              =    -503.86297488 Ry
     estimated scf accuracy    <       0.34434099 Ry

     iteration #  3     ecut=    30.00 Ry     beta= 0.50
     Davidson diagonalization with overlap
     ethr =  1.35E-04,  avg # of iterations =  4.0

     total cpu time spent up to now is        4.6 secs

     total energy              =    -503.88407012 Ry
     estimated scf accuracy    <       0.01379143 Ry

     iteration #  4     ecut=    30.00 Ry     beta= 0.50
     Davidson diagonalization with overlap
     ethr =  5.39E-06,  avg # of iterations = 20.0

     total cpu time spent up to now is        4.8 secs

     total energy              =    -503.88728350 Ry
     estimated scf accuracy    <       0.00942520 Ry

     iteration #  5     ecut=    30.00 Ry     beta= 0.50
     Davidson diagonalization with overlap
     ethr =  3.68E-06,  avg # of iterations =  4.0

     total cpu time spent up to now is        4.9 secs

     total energy              =    -503.88901217 Ry
     estimated scf accuracy    <       0.00235808 Ry

     iteration #  6     ecut=    30.00 Ry     beta= 0.50
     Davidson diagonalization with overlap
     ethr =  9.21E-07,  avg # of iterations =  3.0

     total cpu time spent up to now is        5.0 secs

     total energy              =    -503.88921725 Ry
     estimated scf accuracy    <       0.00040130 Ry

     iteration #  7     ecut=    30.00 Ry     beta= 0.50
     Davidson diagonalization with overlap
     ethr =  1.57E-07,  avg # of iterations =  5.0

     total cpu time spent up to now is        5.1 secs

     total energy              =    -503.88928811 Ry
     estimated scf accuracy    <       0.00001491 Ry

     iteration #  8     ecut=    30.00 Ry     beta= 0.50
     Davidson diagonalization with overlap
     ethr =  5.83E-09,  avg # of iterations =  4.0

     total cpu time spent up to now is        5.2 secs

     total energy              =    -503.88929278 Ry
     estimated scf accuracy    <       0.00001592 Ry

     iteration #  9     ecut=    30.00 Ry     beta= 0.50
     Davidson diagonalization with overlap
     ethr =  5.83E-09,  avg # of iterations =  3.0

     total cpu time spent up to now is        5.3 secs

     total energy              =    -503.88929436 Ry
     estimated scf accuracy    <       0.00000136 Ry

     iteration # 10     ecut=    30.00 Ry     beta= 0.50
     Davidson diagonalization with overlap
     ethr =  5.32E-10,  avg # of iterations =  5.0

     total cpu time spent up to now is        5.4 secs

     End of self-consistent calculation

          k = 0.0000 0.0000 0.0000 ( 12360 PWs)   bands (ev):

    -5.8359  -4.8594  -4.8196  -4.7941  -4.7796  -4.7383  -4.6700  -3.9949
    -3.9519  -3.9094  -3.8975  -3.8653  -3.8372  -3.8267  -3.8042  -3.7761
    -3.7641  -3.7250  -3.6990  -3.6012  -3.5685  -3.5060  -3.4113  -1.9408
    -1.8946  -1.8681  -1.8125  -1.7694  -1.7519  -1.6997  -1.6779  -1.6678
    -1.6463  -1.6189  -1.5857  -1.5681  -1.5525  -1.5343  -1.5156  -1.5022
    -1.4721  -0.9504  -0.9211  -0.8694  -0.7730   0.3980   0.4097   0.4475
     0.4711   0.4872   0.5309   0.5427   0.5626   0.5767   0.5983   0.6314
     0.6597   2.0656   2.0906   2.1065   2.1290   2.1415   2.1605   2.1897
     2.2038   2.2051   2.2221   2.2379   2.2473   2.2529   2.2621   2.2750
     2.2841   2.2998   2.3146   2.3304   2.3408   2.3671   2.3750   2.4045
     2.4365   2.4698   2.4857   2.4912   2.5162   2.5753   2.5883   3.0738
     3.0989   3.1828   3.2133   3.2311   3.3105   3.9613   3.9781   4.0578
     4.0772   4.0909   4.1130   4.1502   4.1583   4.1864   4.2030   4.2380
     4.2688   4.4479   4.4959   4.5145   4.5697   4.6045   4.6333   4.6545
     4.6579   4.6722   4.7202   4.7275   4.7611   4.7812   4.8222   4.8302
     4.8546   4.9163   4.9315   5.0017   5.0484   5.8844   5.9345   6.1474
     6.5424   6.5816   6.6593   6.7037   6.7550   6.8474   6.9484   7.0347
     7.1104   7.1223   7.1774   7.2062   7.3230   7.3522   7.3625   7.3705
     8.1647   8.1820   8.2080   8.3039   8.3309   8.3491   8.3611   8.3771
     8.3846   8.4242

     the Fermi energy is     6.2819 ev

!    total energy              =    -503.88929468 Ry
     estimated scf accuracy    <       0.00000020 Ry
     smearing contrib. (-TS)   =      -0.05013691 Ry
     internal energy E=F+TS    =    -503.83915777 Ry

     The total energy is F=E-TS. E is the sum of the following terms:
     one-electron contribution =     144.43921143 Ry
     hartree contribution      =      36.99343932 Ry
     xc contribution           =    -153.40240988 Ry
     ewald contribution        =    -531.86939865 Ry

     convergence has been achieved in  10 iterations

     Forces acting on atoms (cartesian axes, Ry/au):

     atom    1 type  1   force =    -0.00746547   -0.02851351    0.00760802
     atom    2 type  1   force =    -0.02091367   -0.02068356    0.01110977
     atom    3 type  1   force =     0.02076627    0.00095175    0.02004442
     atom    4 type  1   force =     0.01483735   -0.03458058    0.04852621
     atom    5 type  1   force =    -0.00463028    0.02310889   -0.00805622
     atom    6 type  1   force =     0.00901421    0.02176124    0.04511197
     atom    7 type  1   force =     0.00155897    0.01085625   -0.02963246
     atom    8 type  1   force =    -0.01737985   -0.01755809   -0.01028689
     atom    9 type  1   force =    -0.01712722   -0.03134737   -0.02696819
     atom   10 type  1   force =    -0.02174152   -0.01187887    0.00118760
     atom   11 type  1   force =    -0.01217226    0.01957023    0.00138396
     atom   12 type  1   force =     0.00040493    0.00444875    0.00874963
     atom   13 type  1   force =    -0.01497958   -0.00419511    0.00173084
     atom   14 type  1   force =     0.01799392   -0.01720371    0.01466914
     atom   15 type  1   force =    -0.03122477    0.04292830    0.05190783
     atom   16 type  1   force =    -0.00298761   -0.01207516   -0.01605689
     atom   17 type  1   force =     0.03168401    0.01890505    0.02163498
     atom   18 type  1   force =     0.00647367   -0.00368825    0.00262400
     atom   19 type  1   force =    -0.03797415    0.00321960    0.00817180
     atom   20 type  1   force =     0.03178042   -0.01913610    0.03087883
     atom   21 type  1   force =    -0.01222750   -0.01498064   -0.00311125
     atom   22 type  1   force =    -0.01585170    0.00827215    0.00191687
     atom   23 type  1   force =    -0.00551020    0.01902556    0.04514055
     atom   24 type  1   force =     0.01972914   -0.00238195   -0.00702768
     atom   25 type  1   force =    -0.02852085   -0.03221348    0.01086613
     atom   26 type  1   force =    -0.00221190   -0.00594382   -0.01149871
     atom   27 type  1   force =    -0.00246783    0.00865761   -0.00592808
     atom   28 type  1   force =    -0.04855917    0.01257223   -0.01534117
     atom   29 type  1   force =     0.02670602   -0.04527352    0.02757691
     atom   30 type  1   force =     0.00437926   -0.01000301   -0.00305791
     atom   31 type  1   force =     0.03981132    0.03586502    0.02059473
     atom   32 type  1   force =     0.01469867    0.01854212   -0.00743463
     atom   33 type  1   force =     0.00183211    0.00824108   -0.00734410
     atom   34 type  1   force =    -0.00840398   -0.01449500    0.01165532
     atom   35 type  1   force =    -0.01507222   -0.00794839   -0.00674050
     atom   36 type  1   force =     0.00228105    0.00316404    0.01797969
     atom   37 type  1   force =    -0.00970588    0.01153961   -0.00071284
     atom   38 type  1   force =     0.00045727    0.00649397   -0.01506415
     atom   39 type  1   force =     0.01865925    0.00224303    0.00928139
     atom   40 type  1   force =    -0.00311711   -0.01766967    0.00127138
     atom   41 type  1   force =     0.02340788    0.01390992   -0.01956534
     atom   42 type  1   force =     0.00849515   -0.01042604   -0.00466497
     atom   43 type  1   force =     0.00776575   -0.00400808    0.01547637
     atom   44 type  1   force =     0.00681285    0.01102116   -0.02863159
     atom   45 type  1   force =    -0.01553842    0.02321270    0.00655323
     atom   46 type  1   force =    -0.00318571    0.03434337   -0.00027271
     atom   47 type  1   force =     0.01250518   -0.00925879    0.00724610
     atom   48 type  1   force =     0.03455769    0.03123739   -0.00555833
     atom   49 type  1   force =    -0.01570329   -0.00633435    0.01398928
     atom   50 type  1   force =     0.00747457   -0.03374302   -0.00154765
     atom   51 type  1   force =     0.00050978    0.00541386   -0.03147298
     atom   52 type  1   force =    -0.01283203   -0.02438033   -0.00293934
     atom   53 type  1   force =    -0.01774024   -0.03081405   -0.01535243
     atom   54 type  1   force =     0.03943109    0.02398573   -0.02203308
     atom   55 type  1   force =    -0.02408391    0.02787081   -0.05742905
     atom   56 type  1   force =    -0.01806922   -0.01367465    0.01374890
     atom   57 type  1   force =     0.04369082   -0.02931407   -0.01869566
     atom   58 type  1   force =     0.01005876    0.02010101   -0.00586151
     atom   59 type  1   force =     0.00257925    0.01984969   -0.01658943
     atom   60 type  1   force =     0.04126207   -0.02728962   -0.02863636
     atom   61 type  1   force =    -0.03066898    0.00328103    0.01291738
     atom   62 type  1   force =    -0.02308291    0.04363406   -0.03159038
     atom   63 type  1   force =    -0.00816843    0.00160933    0.00931413
     atom   64 type  1   force =     0.00769916    0.00117627   -0.03576489

     Total force =     0.282481     Total SCF correction =     0.000772


     Computing stress (Cartesian axis) and pressure

          total   stress  (Ry/bohr**3)                   (kbar)     P=        4.58
   0.00008938  -0.00005199   0.00003544           13.15       -7.65        5.21
  -0.00005199   0.00002482   0.00002765           -7.65        3.65        4.07
   0.00003544   0.00002765  -0.00002080            5.21        4.07       -3.06

 
     init_run     :      0.90s CPU      4.11s WALL (       1 calls)
     electrons    :      1.15s CPU      1.27s WALL (       1 calls)
     forces       :      0.04s CPU      0.05s WALL (       1 calls)
     stress       :      0.15s CPU      0.16s WALL (       1 calls)

     Called by init_run:
     wfcinit      :      0.43s CPU      3.48s WALL (       1 calls)
                                        3.48s GPU  (       1 calls)
     potinit      :      0.15s CPU      0.24s WALL (       1 calls)
     hinit0       :      0.30s CPU      0.33s WALL (       1 calls)

     Called by electrons:
     c_bands      :      0.80s CPU      0.86s WALL (      11 calls)
     sum_band     :      0.19s CPU      0.23s WALL (      11 calls)
     v_of_rho     :      0.09s CPU      0.18s WALL (      11 calls)
     mix_rho      :      0.07s CPU      0.08s WALL (      11 calls)

     Called by c_bands:
     init_us_2    :      0.03s CPU      0.03s WALL (      23 calls)
     init_us_2:gp :      0.03s CPU      0.03s WALL (      23 calls)
     regterg      :      0.72s CPU      0.76s WALL (      11 calls)

     Called by *egterg:
     rdiaghg      :      0.30s CPU      0.92s WALL (      66 calls)
                                        0.91s GPU  (      66 calls)
     h_psi        :      0.73s CPU      3.17s WALL (      68 calls)
                                        3.17s GPU  (      68 calls)
     g_psi        :      0.00s CPU      0.00s WALL (      56 calls)
                                        0.00s GPU  (      56 calls)

     Called by h_psi:
     h_psi:calbec :      0.39s CPU      2.78s WALL (      68 calls)
                                        2.78s GPU  (      68 calls)
     vloc_psi     :      0.30s CPU      0.35s WALL (      68 calls)
                                        0.35s GPU  (      68 calls)
     add_vuspsi   :      0.02s CPU      0.04s WALL (      68 calls)
                                        0.04s GPU  (      68 calls)

     General routines
     calbec       :      0.40s CPU      2.78s WALL (      73 calls)
     fft          :      0.32s CPU      0.44s WALL (      95 calls)
                                        0.11s GPU  (      61 calls)
     ffts         :      0.02s CPU      0.02s WALL (      11 calls)
     fftw         :      0.34s CPU      0.47s WALL (    1213 calls)
                                        0.42s GPU  (    1213 calls)
 
     Parallel routines
 
     PWSCF        :      2.28s CPU      5.66s WALL

 
   This run was terminated on:  11:11:59  10May2023            

=------------------------------------------------------------------------------=
   JOB DONE.
=------------------------------------------------------------------------------=
