An instance of this daemon is already running
An instance of this daemon is already running

     Program PWSCF v.7.1 starts on 10May2023 at 11:16: 5 

     This program is part of the open-source Quantum ESPRESSO suite
     for quantum simulation of materials; please cite
         "P. Giannozzi et al., J. Phys.:Condens. Matter 21 395502 (2009);
         "P. Giannozzi et al., J. Phys.:Condens. Matter 29 465901 (2017);
         "P. Giannozzi et al., J. Chem. Phys. 152 154105 (2020);
          URL http://www.quantum-espresso.org", 
     in publications or presentations arising from this work. More details at
     http://www.quantum-espresso.org/quote

     Parallel version (MPI & OpenMP), running on       4 processor cores
     Number of MPI processes:                 4
     Threads/MPI process:                     1

     MPI processes distributed on     1 nodes
     149643 MiB available memory on the printing compute node when the environment starts
 
     Reading input from pw-si-43.in
Warning: card &CELL ignored
Warning: card / ignored

     Current dimensions of program PWSCF are:
     Max number of different atomic species (ntypx) = 10
     Max number of k-points (npk) =  40000
     Max angular momentum in pseudopotentials (lmaxx) =  4

     IMPORTANT: XC functional enforced from input :
     Exchange-correlation= PBE
                           (   1   4   3   4   0   0   0)
     Any further DFT definition will be discarded
     Please, verify this is what you really want


     gamma-point specific algorithms are used
 
     K-points division:     npool     =       2
     R & G space division:  proc/nbgrp/npool/nimage =       2
     Subspace diagonalization in iterative solution of the eigenvalue problem:
     a serial algorithm will be used

     Message from routine divide_et_impera:
     suboptimal parallelization: some nodes have no k-points
 
     Parallelization info
     --------------------
     sticks:   dense  smooth     PW     G-vecs:    dense   smooth      PW
     Min        2027    2027    537                99683    99683   13505
     Max        2028    2028    540                99688    99688   13508
     Sum        4055    4055   1077               199371   199371   27013
 
     Using Slab Decomposition
 


     bravais-lattice index     =            0
     lattice parameter (alat)  =      20.4235  a.u.
     unit-cell volume          =    8981.5975 (a.u.)^3
     number of atoms/cell      =           64
     number of atomic types    =            1
     number of electrons       =       256.00
     number of Kohn-Sham states=          154
     kinetic-energy cutoff     =      30.0000  Ry
     charge density cutoff     =     120.0000  Ry
     scf convergence threshold =      1.0E-06
     mixing beta               =       0.5000
     number of iterations used =            8  plain     mixing
     Exchange-correlation= PBE
                           (   1   4   3   4   0   0   0)

     GPU acceleration is ACTIVE.
     GPU-aware MPI enabled

     Message from routine print_cuda_info:
     High GPU oversubscription detected. Are you sure this is what you want?

     celldm(1)=  20.423467  celldm(2)=   0.000000  celldm(3)=   0.000000
     celldm(4)=   0.000000  celldm(5)=   0.000000  celldm(6)=   0.000000

     crystal axes: (cart. coord. in units of alat)
               a(1) = (   1.000000   0.000000   0.000000 )  
               a(2) = (   0.000000   1.020301   0.000000 )  
               a(3) = (   0.000000   0.000000   1.033324 )  

     reciprocal axes: (cart. coord. in units 2 pi/alat)
               b(1) = (  1.000000  0.000000  0.000000 )  
               b(2) = (  0.000000  0.980103  0.000000 )  
               b(3) = (  0.000000  0.000000  0.967750 )  


     PseudoPot. # 1 for Si read from file:
     /home/ppiaggi/pseudos/Si_ONCV_PBE_sr.upf
     MD5 check sum: 8553c464762ac42b85b1eed164b4d029
     Pseudo is Norm-conserving, Zval =  4.0
     Generated using ONCVPSP code by D. R. Hamann
     Using radial grid of 1510 points,  4 beta functions with: 
                l(1) =   0
                l(2) =   0
                l(3) =   1
                l(4) =   1

     atomic species   valence    mass     pseudopotential
        Si             4.00    28.08500     Si( 1.00)

     No symmetry found



   Cartesian axes

     site n.     atom                  positions (alat units)
         1           Si  tau(   1) = (  -0.0038076   0.0027736  -0.0021775  )
         2           Si  tau(   2) = (   0.0026350   0.2592499   0.2540963  )
         3           Si  tau(   3) = (   0.2490710  -0.0009799   0.2537133  )
         4           Si  tau(   4) = (   0.2464865   0.2577139  -0.0007176  )
         5           Si  tau(   5) = (   0.1236919   0.1250404   0.1274561  )
         6           Si  tau(   6) = (   0.4927034   0.0010246  -0.0039766  )
         7           Si  tau(   7) = (   0.4888255   0.2559939   0.2556747  )
         8           Si  tau(   8) = (   0.6109920   0.1293289   0.1310623  )
         9           Si  tau(   9) = (   0.7388310  -0.0007319   0.2504381  )
        10           Si  tau(  10) = (   0.7353325   0.2551371   0.0011737  )
        11           Si  tau(  11) = (   0.0031099   0.5138343   0.0027769  )
        12           Si  tau(  12) = (   0.2452150   0.5123747   0.2518256  )
        13           Si  tau(  13) = (   0.1236265   0.6369053   0.1277930  )
        14           Si  tau(  14) = (   0.3654915   0.3815514   0.1252303  )
        15           Si  tau(  15) = (   0.4905566   0.5080839  -0.0010347  )
        16           Si  tau(  16) = (   0.6154199   0.6337531   0.1254326  )
        17           Si  tau(  17) = (   0.8566830   0.3837047   0.1287074  )
        18           Si  tau(  18) = (   0.7329258   0.5127258   0.2539694  )
        19           Si  tau(  19) = (  -0.0037011   0.7609128   0.2552408  )
        20           Si  tau(  20) = (   0.2465873   0.7637225   0.0028680  )
        21           Si  tau(  21) = (   0.3677827   0.8915739   0.1284495  )
        22           Si  tau(  22) = (   0.4908451   0.7673055   0.2510428  )
        23           Si  tau(  23) = (   0.7391057   0.7622235  -0.0030519  )
        24           Si  tau(  24) = (   0.8551326   0.8967229   0.1315178  )
        25           Si  tau(  25) = (  -0.0019179  -0.0042074   0.5122525  )
        26           Si  tau(  26) = (   0.2440798   0.2541448   0.5050116  )
        27           Si  tau(  27) = (   0.1185889   0.1283117   0.6378087  )
        28           Si  tau(  28) = (   0.3714657   0.1294950   0.3846967  )
        29           Si  tau(  29) = (   0.4939609   0.0031856   0.5089362  )
        30           Si  tau(  30) = (   0.6105716   0.1287183   0.6335559  )
        31           Si  tau(  31) = (   0.8612852   0.1282626   0.3791010  )
        32           Si  tau(  32) = (   0.7378195   0.2526093   0.5116541  )
        33           Si  tau(  33) = (   0.1261538   0.3798986   0.3797598  )
        34           Si  tau(  34) = (   0.0021414   0.5114544   0.5126034  )
        35           Si  tau(  35) = (   0.1265041   0.6343088   0.6367944  )
        36           Si  tau(  36) = (   0.6100138   0.3798297   0.3786920  )
        37           Si  tau(  37) = (   0.3690426   0.6356909   0.3789191  )
        38           Si  tau(  38) = (   0.3685211   0.3818833   0.6324986  )
        39           Si  tau(  39) = (   0.4940007   0.5118525   0.5050175  )
        40           Si  tau(  40) = (   0.6158557   0.6364637   0.6321939  )
        41           Si  tau(  41) = (   0.8575923   0.6376880   0.3812904  )
        42           Si  tau(  42) = (   0.8611613   0.3830750   0.6381633  )
        43           Si  tau(  43) = (   0.1231084   0.8948947   0.3841142  )
        44           Si  tau(  44) = (   0.2428540   0.7645261   0.5116446  )
        45           Si  tau(  45) = (   0.6118609   0.8934952   0.3797012  )
        46           Si  tau(  46) = (   0.3711840   0.8959285   0.6380320  )
        47           Si  tau(  47) = (   0.7314847   0.7655592   0.5041481  )
        48           Si  tau(  48) = (   0.8544719   0.8951257   0.6310528  )
        49           Si  tau(  49) = (  -0.0012676   0.2586809   0.7602819  )
        50           Si  tau(  50) = (   0.2441766  -0.0011954   0.7642374  )
        51           Si  tau(  51) = (   0.3666313   0.1250915   0.8872657  )
        52           Si  tau(  52) = (   0.4940706   0.2595066   0.7645684  )
        53           Si  tau(  53) = (   0.7314022   0.0027231   0.7596112  )
        54           Si  tau(  54) = (   0.8626919   0.1257142   0.8924654  )
        55           Si  tau(  55) = (   0.1188275   0.3817336   0.8894867  )
        56           Si  tau(  56) = (   0.2494271   0.5129713   0.7670545  )
        57           Si  tau(  57) = (   0.6170540   0.3840972   0.8862773  )
        58           Si  tau(  58) = (   0.3694185   0.6335006   0.8885604  )
        59           Si  tau(  59) = (   0.7386326   0.5059480   0.7602910  )
        60           Si  tau(  60) = (   0.8578482   0.6418305   0.8938902  )
        61           Si  tau(  61) = (  -0.0037748   0.7636026   0.7649879  )
        62           Si  tau(  62) = (   0.1267702   0.8959757   0.8864982  )
        63           Si  tau(  63) = (   0.4939744   0.7659320   0.7659520  )
        64           Si  tau(  64) = (   0.6094517   0.8963811   0.8894813  )

     number of k points=     1  Fermi-Dirac smearing, width (Ry)=  0.0100
                       cart. coord. in units 2pi/alat
        k(    1) = (   0.0000000   0.0000000   0.0000000), wk =   2.0000000

     Dense  grid:    99686 G-vectors     FFT dimensions: (  72,  75,  75)

     Estimated max dynamical RAM per process >     159.71 MB

     Estimated total dynamical RAM >     614.50 MB

     Initial potential from superposition of free atoms

     starting charge     255.9608, renormalised to     256.0000
     Starting wfcs are  256 randomized atomic wfcs

     total cpu time spent up to now is        4.4 secs

     Self-consistent Calculation

     iteration #  1     ecut=    30.00 Ry     beta= 0.50
     Davidson diagonalization with overlap
     ethr =  1.00E-02,  avg # of iterations =  3.0

     Threshold (ethr) on eigenvalues was too large:
     Diagonalizing with lowered threshold

     Davidson diagonalization with overlap
     ethr =  6.39E-04,  avg # of iterations =  4.0

     total cpu time spent up to now is        4.6 secs

     total energy              =    -503.77366774 Ry
     estimated scf accuracy    <       1.81293990 Ry

     iteration #  2     ecut=    30.00 Ry     beta= 0.50
     Davidson diagonalization with overlap
     ethr =  7.08E-04,  avg # of iterations =  1.0

     total cpu time spent up to now is        4.7 secs

     total energy              =    -503.75950963 Ry
     estimated scf accuracy    <       0.33890863 Ry

     iteration #  3     ecut=    30.00 Ry     beta= 0.50
     Davidson diagonalization with overlap
     ethr =  1.32E-04,  avg # of iterations =  5.0

     total cpu time spent up to now is        4.8 secs

     total energy              =    -503.77444106 Ry
     estimated scf accuracy    <       0.05222694 Ry

     iteration #  4     ecut=    30.00 Ry     beta= 0.50
     Davidson diagonalization with overlap
     ethr =  2.04E-05,  avg # of iterations = 18.0

     total cpu time spent up to now is        5.0 secs

     total energy              =    -503.78511943 Ry
     estimated scf accuracy    <       0.00931353 Ry

     iteration #  5     ecut=    30.00 Ry     beta= 0.50
     Davidson diagonalization with overlap
     ethr =  3.64E-06,  avg # of iterations = 18.0

     total cpu time spent up to now is        5.2 secs

     total energy              =    -503.78668589 Ry
     estimated scf accuracy    <       0.00149568 Ry

     iteration #  6     ecut=    30.00 Ry     beta= 0.50
     Davidson diagonalization with overlap
     ethr =  5.84E-07,  avg # of iterations =  4.0

     total cpu time spent up to now is        5.3 secs

     total energy              =    -503.78684798 Ry
     estimated scf accuracy    <       0.00034078 Ry

     iteration #  7     ecut=    30.00 Ry     beta= 0.50
     Davidson diagonalization with overlap
     ethr =  1.33E-07,  avg # of iterations =  4.0

     total cpu time spent up to now is        5.4 secs

     total energy              =    -503.78689864 Ry
     estimated scf accuracy    <       0.00007262 Ry

     iteration #  8     ecut=    30.00 Ry     beta= 0.50
     Davidson diagonalization with overlap
     ethr =  2.84E-08,  avg # of iterations =  4.0

     total cpu time spent up to now is        5.6 secs

     total energy              =    -503.78691423 Ry
     estimated scf accuracy    <       0.00001897 Ry

     iteration #  9     ecut=    30.00 Ry     beta= 0.50
     Davidson diagonalization with overlap
     ethr =  7.41E-09,  avg # of iterations =  3.0

     total cpu time spent up to now is        5.7 secs

     total energy              =    -503.78691621 Ry
     estimated scf accuracy    <       0.00000201 Ry

     iteration # 10     ecut=    30.00 Ry     beta= 0.50
     Davidson diagonalization with overlap
     ethr =  7.86E-10,  avg # of iterations =  5.0

     total cpu time spent up to now is        5.8 secs

     End of self-consistent calculation

          k = 0.0000 0.0000 0.0000 ( 12456 PWs)   bands (ev):

    -5.9191  -4.9951  -4.9401  -4.8966  -4.8566  -4.7487  -4.6778  -4.1571
    -4.1067  -4.0735  -4.0131  -3.9759  -3.9132  -3.8888  -3.8508  -3.8280
    -3.7882  -3.7746  -3.7239  -3.6506  -3.6132  -3.5000  -3.2742  -2.0905
    -2.0131  -1.9587  -1.9195  -1.8876  -1.8605  -1.8075  -1.8035  -1.7672
    -1.7381  -1.7296  -1.7147  -1.6325  -1.5919  -1.5814  -1.5074  -1.4747
    -1.4284  -1.1224  -0.9591  -0.8485  -0.8400   0.2732   0.2908   0.3300
     0.3632   0.3768   0.4067   0.4462   0.4691   0.4993   0.5199   0.6013
     0.6157   1.9617   1.9760   1.9910   2.0149   2.0165   2.0344   2.0406
     2.0628   2.0857   2.1047   2.1232   2.1300   2.1361   2.1536   2.1610
     2.2094   2.2293   2.2466   2.2526   2.2903   2.3052   2.3364   2.3815
     2.3998   2.4558   2.4932   2.5313   2.5610   2.5888   2.6036   2.9229
     2.9543   3.1269   3.1365   3.2212   3.2428   3.8063   3.8129   3.9302
     3.9747   4.0131   4.0331   4.0647   4.0989   4.1120   4.1739   4.1868
     4.2768   4.3488   4.3538   4.3980   4.4298   4.4573   4.4897   4.5311
     4.5456   4.5763   4.5901   4.6073   4.6579   4.6825   4.7276   4.7524
     4.7676   4.8282   4.8855   5.1131   5.3260   5.6883   5.9330   6.0952
     6.3516   6.3917   6.5561   6.5759   6.7518   6.7963   6.8419   6.9627
     7.0042   7.0259   7.0755   7.1420   7.1555   7.1827   7.2119   7.2494
     7.9839   7.9889   8.0066   8.1428   8.1912   8.2149   8.2341   8.2538
     8.2670   8.2890

     the Fermi energy is     6.1746 ev

!    total energy              =    -503.78691675 Ry
     estimated scf accuracy    <       0.00000039 Ry
     smearing contrib. (-TS)   =      -0.05726066 Ry
     internal energy E=F+TS    =    -503.72965609 Ry

     The total energy is F=E-TS. E is the sum of the following terms:
     one-electron contribution =     140.31048969 Ry
     hartree contribution      =      38.11237209 Ry
     xc contribution           =    -153.06431451 Ry
     ewald contribution        =    -529.08820337 Ry

     convergence has been achieved in  10 iterations

     Forces acting on atoms (cartesian axes, Ry/au):

     atom    1 type  1   force =    -0.02120160   -0.01999738   -0.02384353
     atom    2 type  1   force =    -0.05627438   -0.02173221   -0.01006252
     atom    3 type  1   force =    -0.00804373    0.00943396    0.01840066
     atom    4 type  1   force =    -0.01892052   -0.02839645   -0.04956664
     atom    5 type  1   force =    -0.00679703    0.01685967   -0.01145928
     atom    6 type  1   force =    -0.01660488    0.00094959   -0.01280816
     atom    7 type  1   force =    -0.00905115   -0.00234252   -0.01163203
     atom    8 type  1   force =     0.00617752   -0.00679337   -0.02740978
     atom    9 type  1   force =    -0.02537865    0.02705313    0.03928149
     atom   10 type  1   force =     0.00968126   -0.00239080   -0.04272337
     atom   11 type  1   force =    -0.06366367   -0.02833788   -0.04748947
     atom   12 type  1   force =     0.00673762   -0.01881225    0.01087120
     atom   13 type  1   force =    -0.01129807    0.01798545   -0.00186732
     atom   14 type  1   force =     0.01146555    0.01106552    0.00315564
     atom   15 type  1   force =     0.00843948   -0.00345694   -0.04277153
     atom   16 type  1   force =    -0.01624822    0.02804309   -0.01605427
     atom   17 type  1   force =     0.05615046    0.00790321   -0.01019186
     atom   18 type  1   force =     0.01828408   -0.02508066    0.01371182
     atom   19 type  1   force =    -0.03057304    0.02795289    0.00639430
     atom   20 type  1   force =    -0.00027267    0.00479059   -0.05986507
     atom   21 type  1   force =     0.00875099    0.01186186   -0.02986283
     atom   22 type  1   force =     0.00896199   -0.02125495    0.00769837
     atom   23 type  1   force =    -0.01618295    0.02983969   -0.01445587
     atom   24 type  1   force =     0.07475199   -0.04359545   -0.05106673
     atom   25 type  1   force =    -0.04343328    0.02206573   -0.00974983
     atom   26 type  1   force =     0.00316588   -0.00853832    0.03041280
     atom   27 type  1   force =     0.00943811   -0.00576643   -0.01260010
     atom   28 type  1   force =    -0.01677622   -0.01418271   -0.01969422
     atom   29 type  1   force =    -0.01142965   -0.01984219   -0.00205494
     atom   30 type  1   force =     0.00987321    0.01660345    0.01831360
     atom   31 type  1   force =     0.04628736   -0.00186381    0.00529646
     atom   32 type  1   force =     0.00413552    0.01434313   -0.02011399
     atom   33 type  1   force =    -0.01907594    0.03426472    0.00363123
     atom   34 type  1   force =    -0.04781368   -0.01837378   -0.02130935
     atom   35 type  1   force =    -0.02327049    0.01982844    0.02103315
     atom   36 type  1   force =     0.03077431    0.01065532    0.01514886
     atom   37 type  1   force =    -0.00697775    0.02467463    0.00426715
     atom   38 type  1   force =    -0.00060885    0.01316508    0.00895536
     atom   39 type  1   force =    -0.01391014   -0.01550196    0.01075900
     atom   40 type  1   force =    -0.00547127    0.00490447    0.02049124
     atom   41 type  1   force =     0.04709734   -0.00605765    0.00456751
     atom   42 type  1   force =     0.04664663   -0.00742436   -0.02350897
     atom   43 type  1   force =    -0.01124159   -0.01980782   -0.01774354
     atom   44 type  1   force =     0.02844348    0.00704774   -0.00909606
     atom   45 type  1   force =     0.00263844    0.00962947   -0.01325663
     atom   46 type  1   force =    -0.00933962   -0.01677644   -0.00956158
     atom   47 type  1   force =     0.02410820    0.00335507    0.00993659
     atom   48 type  1   force =     0.04136465   -0.01763828    0.01713200
     atom   49 type  1   force =    -0.04896338   -0.01567688    0.02197819
     atom   50 type  1   force =     0.01108472    0.02085955   -0.02162706
     atom   51 type  1   force =     0.01292437    0.02611113    0.04869663
     atom   52 type  1   force =    -0.02191042   -0.02233136   -0.01015453
     atom   53 type  1   force =     0.02447861   -0.00369642    0.02070163
     atom   54 type  1   force =     0.01623515    0.01542820    0.01716592
     atom   55 type  1   force =     0.01580085    0.02103395    0.04598104
     atom   56 type  1   force =    -0.02114452   -0.04234999   -0.01956586
     atom   57 type  1   force =    -0.00572129   -0.00446931    0.06653041
     atom   58 type  1   force =     0.01472997    0.03227392    0.06624120
     atom   59 type  1   force =     0.00760332    0.04020730    0.01799899
     atom   60 type  1   force =     0.04938469   -0.02296430    0.00991901
     atom   61 type  1   force =    -0.02707021    0.01168217   -0.00889427
     atom   62 type  1   force =    -0.04080204   -0.03246809    0.06843440
     atom   63 type  1   force =    -0.00926795   -0.01379587   -0.01455257
     atom   64 type  1   force =     0.02912308   -0.01015529    0.04350789

     Total force =     0.348886     Total SCF correction =     0.001027


     Computing stress (Cartesian axis) and pressure

          total   stress  (Ry/bohr**3)                   (kbar)     P=       -1.79
   0.00005571   0.00004269   0.00001860            8.20        6.28        2.74
   0.00004269  -0.00000658   0.00006125            6.28       -0.97        9.01
   0.00001860   0.00006125  -0.00008555            2.74        9.01      -12.58

 
     init_run     :      0.95s CPU      4.34s WALL (       1 calls)
     electrons    :      1.25s CPU      1.40s WALL (       1 calls)
     forces       :      0.04s CPU      0.04s WALL (       1 calls)
     stress       :      0.15s CPU      0.16s WALL (       1 calls)

     Called by init_run:
     wfcinit      :      0.48s CPU      3.72s WALL (       1 calls)
                                        3.72s GPU  (       1 calls)
     potinit      :      0.14s CPU      0.23s WALL (       1 calls)
     hinit0       :      0.30s CPU      0.33s WALL (       1 calls)

     Called by electrons:
     c_bands      :      0.88s CPU      0.94s WALL (      11 calls)
     sum_band     :      0.21s CPU      0.28s WALL (      11 calls)
     v_of_rho     :      0.09s CPU      0.17s WALL (      11 calls)
     mix_rho      :      0.06s CPU      0.08s WALL (      11 calls)

     Called by c_bands:
     init_us_2    :      0.03s CPU      0.03s WALL (      23 calls)
     init_us_2:gp :      0.03s CPU      0.03s WALL (      23 calls)
     regterg      :      0.79s CPU      0.85s WALL (      11 calls)

     Called by *egterg:
     rdiaghg      :      0.35s CPU      1.05s WALL (      79 calls)
                                        1.03s GPU  (      79 calls)
     h_psi        :      0.78s CPU      3.35s WALL (      81 calls)
                                        3.35s GPU  (      81 calls)
     g_psi        :      0.00s CPU      0.00s WALL (      69 calls)
                                        0.00s GPU  (      69 calls)

     Called by h_psi:
     h_psi:calbec :      0.44s CPU      2.94s WALL (      81 calls)
                                        2.94s GPU  (      81 calls)
     vloc_psi     :      0.30s CPU      0.36s WALL (      81 calls)
                                        0.35s GPU  (      81 calls)
     add_vuspsi   :      0.03s CPU      0.04s WALL (      81 calls)
                                        0.04s GPU  (      81 calls)

     General routines
     calbec       :      0.45s CPU      2.95s WALL (      86 calls)
     fft          :      0.32s CPU      0.44s WALL (      95 calls)
                                        0.11s GPU  (      61 calls)
     ffts         :      0.02s CPU      0.02s WALL (      11 calls)
     fftw         :      0.34s CPU      0.46s WALL (    1229 calls)
                                        0.41s GPU  (    1229 calls)
 
     Parallel routines
 
     PWSCF        :      2.42s CPU      6.02s WALL

 
   This run was terminated on:  11:16:11  10May2023            

=------------------------------------------------------------------------------=
   JOB DONE.
=------------------------------------------------------------------------------=
