An instance of this daemon is already running
An instance of this daemon is already running
An instance of this daemon is already running

     Program PWSCF v.7.1 starts on 10May2023 at 11:15:14 

     This program is part of the open-source Quantum ESPRESSO suite
     for quantum simulation of materials; please cite
         "P. Giannozzi et al., J. Phys.:Condens. Matter 21 395502 (2009);
         "P. Giannozzi et al., J. Phys.:Condens. Matter 29 465901 (2017);
         "P. Giannozzi et al., J. Chem. Phys. 152 154105 (2020);
          URL http://www.quantum-espresso.org", 
     in publications or presentations arising from this work. More details at
     http://www.quantum-espresso.org/quote

     Parallel version (MPI & OpenMP), running on       4 processor cores
     Number of MPI processes:                 4
     Threads/MPI process:                     1

     MPI processes distributed on     1 nodes
     150151 MiB available memory on the printing compute node when the environment starts
 
     Reading input from pw-si-37.in
Warning: card &CELL ignored
Warning: card / ignored

     Current dimensions of program PWSCF are:
     Max number of different atomic species (ntypx) = 10
     Max number of k-points (npk) =  40000
     Max angular momentum in pseudopotentials (lmaxx) =  4

     IMPORTANT: XC functional enforced from input :
     Exchange-correlation= PBE
                           (   1   4   3   4   0   0   0)
     Any further DFT definition will be discarded
     Please, verify this is what you really want


     gamma-point specific algorithms are used
 
     K-points division:     npool     =       2
     R & G space division:  proc/nbgrp/npool/nimage =       2
     Subspace diagonalization in iterative solution of the eigenvalue problem:
     a serial algorithm will be used

     Message from routine divide_et_impera:
     suboptimal parallelization: some nodes have no k-points
 
     Parallelization info
     --------------------
     sticks:   dense  smooth     PW     G-vecs:    dense   smooth      PW
     Min        2019    2019    531                96975    96975   13159
     Max        2020    2020    534                96980    96980   13162
     Sum        4039    4039   1065               193955   193955   26321
 
     Using Slab Decomposition
 


     bravais-lattice index     =            0
     lattice parameter (alat)  =      20.7658  a.u.
     unit-cell volume          =    8732.1557 (a.u.)^3
     number of atoms/cell      =           64
     number of atomic types    =            1
     number of electrons       =       256.00
     number of Kohn-Sham states=          154
     kinetic-energy cutoff     =      30.0000  Ry
     charge density cutoff     =     120.0000  Ry
     scf convergence threshold =      1.0E-06
     mixing beta               =       0.5000
     number of iterations used =            8  plain     mixing
     Exchange-correlation= PBE
                           (   1   4   3   4   0   0   0)

     GPU acceleration is ACTIVE.
     GPU-aware MPI enabled

     Message from routine print_cuda_info:
     High GPU oversubscription detected. Are you sure this is what you want?

     celldm(1)=  20.765800  celldm(2)=   0.000000  celldm(3)=   0.000000
     celldm(4)=   0.000000  celldm(5)=   0.000000  celldm(6)=   0.000000

     crystal axes: (cart. coord. in units of alat)
               a(1) = (   1.000000   0.000000   0.000000 )  
               a(2) = (   0.000000   0.979635   0.000000 )  
               a(3) = (   0.000000   0.000000   0.995432 )  

     reciprocal axes: (cart. coord. in units 2 pi/alat)
               b(1) = (  1.000000  0.000000  0.000000 )  
               b(2) = (  0.000000  1.020789  0.000000 )  
               b(3) = (  0.000000  0.000000  1.004589 )  


     PseudoPot. # 1 for Si read from file:
     /home/ppiaggi/pseudos/Si_ONCV_PBE_sr.upf
     MD5 check sum: 8553c464762ac42b85b1eed164b4d029
     Pseudo is Norm-conserving, Zval =  4.0
     Generated using ONCVPSP code by D. R. Hamann
     Using radial grid of 1510 points,  4 beta functions with: 
                l(1) =   0
                l(2) =   0
                l(3) =   1
                l(4) =   1

     atomic species   valence    mass     pseudopotential
        Si             4.00    28.08500     Si( 1.00)

     No symmetry found



   Cartesian axes

     site n.     atom                  positions (alat units)
         1           Si  tau(   1) = (   0.0021356  -0.0016608   0.0007583  )
         2           Si  tau(   2) = (  -0.0028494   0.2468033   0.2549951  )
         3           Si  tau(   3) = (   0.2509613  -0.0002484   0.2518926  )
         4           Si  tau(   4) = (   0.2507104   0.2487785  -0.0032185  )
         5           Si  tau(   5) = (   0.1254678   0.1267434   0.1231345  )
         6           Si  tau(   6) = (   0.4940849  -0.0040366   0.0027450  )
         7           Si  tau(   7) = (   0.5009397   0.2487883   0.2549500  )
         8           Si  tau(   8) = (   0.6188040   0.1282808   0.1270098  )
         9           Si  tau(   9) = (   0.7465482  -0.0000758   0.2498081  )
        10           Si  tau(  10) = (   0.7440332   0.2525173   0.0038827  )
        11           Si  tau(  11) = (   0.0000164   0.5020237   0.0005034  )
        12           Si  tau(  12) = (   0.2533284   0.5013106   0.2499457  )
        13           Si  tau(  13) = (   0.1266990   0.6217799   0.1248283  )
        14           Si  tau(  14) = (   0.3715763   0.3718911   0.1299277  )
        15           Si  tau(  15) = (   0.4962296   0.4959101  -0.0036096  )
        16           Si  tau(  16) = (   0.6175887   0.6197605   0.1268520  )
        17           Si  tau(  17) = (   0.8683066   0.3695972   0.1239531  )
        18           Si  tau(  18) = (   0.7458168   0.4973155   0.2531014  )
        19           Si  tau(  19) = (  -0.0002537   0.7519274   0.2540504  )
        20           Si  tau(  20) = (   0.2500780   0.7506228   0.0016879  )
        21           Si  tau(  21) = (   0.3751826   0.8714954   0.1222147  )
        22           Si  tau(  22) = (   0.4969175   0.7485537   0.2526250  )
        23           Si  tau(  23) = (   0.7487906   0.7487662  -0.0000181  )
        24           Si  tau(  24) = (   0.8748461   0.8761565   0.1233781  )
        25           Si  tau(  25) = (   0.0007178  -0.0020187   0.5047948  )
        26           Si  tau(  26) = (   0.2526442   0.2477431   0.5003541  )
        27           Si  tau(  27) = (   0.1264022   0.1205130   0.6290884  )
        28           Si  tau(  28) = (   0.3713514   0.1279126   0.3769985  )
        29           Si  tau(  29) = (   0.4959270   0.0041076   0.5048256  )
        30           Si  tau(  30) = (   0.6204781   0.1267310   0.6272939  )
        31           Si  tau(  31) = (   0.8740121   0.1252142   0.3758759  )
        32           Si  tau(  32) = (   0.7469995   0.2494704   0.5033412  )
        33           Si  tau(  33) = (   0.1253486   0.3733339   0.3788775  )
        34           Si  tau(  34) = (   0.0004346   0.5026631   0.5041128  )
        35           Si  tau(  35) = (   0.1240966   0.6251539   0.6243431  )
        36           Si  tau(  36) = (   0.6193011   0.3726140   0.3773920  )
        37           Si  tau(  37) = (   0.3716941   0.6207741   0.3774093  )
        38           Si  tau(  38) = (   0.3727292   0.3776458   0.6260811  )
        39           Si  tau(  39) = (   0.4945631   0.4981038   0.5034071  )
        40           Si  tau(  40) = (   0.6193323   0.6191943   0.6233327  )
        41           Si  tau(  41) = (   0.8728970   0.6200725   0.3798727  )
        42           Si  tau(  42) = (   0.8710376   0.3748170   0.6281248  )
        43           Si  tau(  43) = (   0.1238792   0.8712018   0.3789731  )
        44           Si  tau(  44) = (   0.2505171   0.7469788   0.5004538  )
        45           Si  tau(  45) = (   0.6262123   0.8757529   0.3797377  )
        46           Si  tau(  46) = (   0.3696635   0.8716399   0.6225622  )
        47           Si  tau(  47) = (   0.7442645   0.7500183   0.5058568  )
        48           Si  tau(  48) = (   0.8739321   0.8736843   0.6250864  )
        49           Si  tau(  49) = (  -0.0036228   0.2490754   0.7537655  )
        50           Si  tau(  50) = (   0.2496656   0.0014352   0.7532076  )
        51           Si  tau(  51) = (   0.3691966   0.1207238   0.8813924  )
        52           Si  tau(  52) = (   0.5012469   0.2449529   0.7560116  )
        53           Si  tau(  53) = (   0.7474569   0.0033532   0.7533269  )
        54           Si  tau(  54) = (   0.8702240   0.1281873   0.8758891  )
        55           Si  tau(  55) = (   0.1225356   0.3705620   0.8821247  )
        56           Si  tau(  56) = (   0.2514674   0.4952449   0.7528641  )
        57           Si  tau(  57) = (   0.6260957   0.3696699   0.8758812  )
        58           Si  tau(  58) = (   0.3770545   0.6233437   0.8741730  )
        59           Si  tau(  59) = (   0.7431441   0.5003651   0.7545831  )
        60           Si  tau(  60) = (   0.8676403   0.6204743   0.8769594  )
        61           Si  tau(  61) = (  -0.0039753   0.7512821   0.7511931  )
        62           Si  tau(  62) = (   0.1253171   0.8738575   0.8781809  )
        63           Si  tau(  63) = (   0.5015613   0.7444048   0.7547589  )
        64           Si  tau(  64) = (   0.6195410   0.8685497   0.8739318  )

     number of k points=     1  Fermi-Dirac smearing, width (Ry)=  0.0100
                       cart. coord. in units 2pi/alat
        k(    1) = (   0.0000000   0.0000000   0.0000000), wk =   2.0000000

     Dense  grid:    96978 G-vectors     FFT dimensions: (  75,  72,  75)

     Estimated max dynamical RAM per process >     155.76 MB

     Estimated total dynamical RAM >     599.37 MB

     Initial potential from superposition of free atoms

     starting charge     255.9608, renormalised to     256.0000
     Starting wfcs are  256 randomized atomic wfcs

     total cpu time spent up to now is        4.4 secs

     Self-consistent Calculation

     iteration #  1     ecut=    30.00 Ry     beta= 0.50
     Davidson diagonalization with overlap
     ethr =  1.00E-02,  avg # of iterations =  3.0

     Threshold (ethr) on eigenvalues was too large:
     Diagonalizing with lowered threshold

     Davidson diagonalization with overlap
     ethr =  6.73E-04,  avg # of iterations =  3.0

     total cpu time spent up to now is        4.6 secs

     total energy              =    -503.79765803 Ry
     estimated scf accuracy    <       1.90795693 Ry

     iteration #  2     ecut=    30.00 Ry     beta= 0.50
     Davidson diagonalization with overlap
     ethr =  7.45E-04,  avg # of iterations =  1.0

     total cpu time spent up to now is        4.7 secs

     total energy              =    -503.78338879 Ry
     estimated scf accuracy    <       0.35010700 Ry

     iteration #  3     ecut=    30.00 Ry     beta= 0.50
     Davidson diagonalization with overlap
     ethr =  1.37E-04,  avg # of iterations =  4.0

     total cpu time spent up to now is        4.8 secs

     total energy              =    -503.80112090 Ry
     estimated scf accuracy    <       0.04171870 Ry

     iteration #  4     ecut=    30.00 Ry     beta= 0.50
     Davidson diagonalization with overlap
     c_bands:  1 eigenvalues not converged
     ethr =  1.63E-05,  avg # of iterations = 20.0

     total cpu time spent up to now is        5.0 secs

     total energy              =    -503.81019137 Ry
     estimated scf accuracy    <       0.01227107 Ry

     iteration #  5     ecut=    30.00 Ry     beta= 0.50
     Davidson diagonalization with overlap
     c_bands:  2 eigenvalues not converged
     ethr =  4.79E-06,  avg # of iterations = 20.0

     total cpu time spent up to now is        5.2 secs

     total energy              =    -503.81204085 Ry
     estimated scf accuracy    <       0.00241571 Ry

     iteration #  6     ecut=    30.00 Ry     beta= 0.50
     Davidson diagonalization with overlap
     ethr =  9.44E-07,  avg # of iterations = 14.0

     total cpu time spent up to now is        5.4 secs

     total energy              =    -503.81236756 Ry
     estimated scf accuracy    <       0.00079641 Ry

     iteration #  7     ecut=    30.00 Ry     beta= 0.50
     Davidson diagonalization with overlap
     ethr =  3.11E-07,  avg # of iterations =  4.0

     total cpu time spent up to now is        5.5 secs

     total energy              =    -503.81243275 Ry
     estimated scf accuracy    <       0.00012212 Ry

     iteration #  8     ecut=    30.00 Ry     beta= 0.50
     Davidson diagonalization with overlap
     ethr =  4.77E-08,  avg # of iterations =  5.0

     total cpu time spent up to now is        5.6 secs

     total energy              =    -503.81246383 Ry
     estimated scf accuracy    <       0.00001263 Ry

     iteration #  9     ecut=    30.00 Ry     beta= 0.50
     Davidson diagonalization with overlap
     ethr =  4.94E-09,  avg # of iterations =  3.0

     total cpu time spent up to now is        5.7 secs

     total energy              =    -503.81246460 Ry
     estimated scf accuracy    <       0.00000412 Ry

     iteration # 10     ecut=    30.00 Ry     beta= 0.50
     Davidson diagonalization with overlap
     ethr =  1.61E-09,  avg # of iterations =  5.0

     total cpu time spent up to now is        5.8 secs

     End of self-consistent calculation

          k = 0.0000 0.0000 0.0000 ( 12108 PWs)   bands (ev):

    -5.8059  -4.8266  -4.8024  -4.7510  -4.7029  -4.6609  -4.5706  -4.0102
    -3.8997  -3.8670  -3.8116  -3.7939  -3.7646  -3.7437  -3.7094  -3.6735
    -3.6201  -3.5743  -3.5223  -3.4628  -3.4073  -3.3903  -3.2774  -1.9224
    -1.8600  -1.6923  -1.6665  -1.6343  -1.6025  -1.5568  -1.5316  -1.5165
    -1.4817  -1.4751  -1.4649  -1.4371  -1.4269  -1.3788  -1.3669  -1.3372
    -1.3183  -0.8573  -0.8221  -0.7635  -0.6583   0.5497   0.5753   0.5853
     0.6270   0.6428   0.6455   0.6771   0.7088   0.7379   0.7444   0.7800
     0.8166   2.0866   2.1064   2.1427   2.1496   2.2300   2.2529   2.2691
     2.3000   2.3307   2.3317   2.3412   2.3552   2.3802   2.3855   2.4418
     2.4477   2.4802   2.4902   2.4993   2.5316   2.5418   2.5592   2.5745
     2.6027   2.6340   2.6549   2.6966   2.7124   2.7389   2.8031   3.1130
     3.2324   3.3388   3.3518   3.3912   3.4335   4.0574   4.1378   4.1760
     4.2090   4.2286   4.2737   4.2920   4.3154   4.3402   4.3557   4.3794
     4.4038   4.4523   4.6860   4.7351   4.7785   4.7908   4.8301   4.8399
     4.8768   4.9001   4.9320   4.9415   4.9614   4.9972   5.0189   5.0451
     5.0683   5.0861   5.1171   5.1297   5.2198   6.1046   6.1699   6.2789
     6.5759   6.7355   6.7901   6.8514   6.9606   7.0075   7.1830   7.2070
     7.2646   7.3245   7.3480   7.3663   7.5342   7.5904   7.6090   7.6176
     8.2635   8.4400   8.4616   8.4752   8.4897   8.5370   8.5561   8.5643
     8.5835   8.6255

     the Fermi energy is     6.4220 ev

!    total energy              =    -503.81246539 Ry
     estimated scf accuracy    <       0.00000017 Ry
     smearing contrib. (-TS)   =      -0.05593999 Ry
     internal energy E=F+TS    =    -503.75652540 Ry

     The total energy is F=E-TS. E is the sum of the following terms:
     one-electron contribution =     147.86415215 Ry
     hartree contribution      =      36.96329471 Ry
     xc contribution           =    -154.01307913 Ry
     ewald contribution        =    -534.57089313 Ry

     convergence has been achieved in  10 iterations

     Forces acting on atoms (cartesian axes, Ry/au):

     atom    1 type  1   force =    -0.02331667    0.09033838    0.01341615
     atom    2 type  1   force =     0.01294899    0.01782920   -0.02373330
     atom    3 type  1   force =    -0.00940705    0.05045964   -0.00706476
     atom    4 type  1   force =    -0.00779630    0.00662898    0.05544392
     atom    5 type  1   force =    -0.00403059   -0.00286403    0.01904501
     atom    6 type  1   force =     0.04021626    0.07929168   -0.00788749
     atom    7 type  1   force =    -0.02702656    0.00377539   -0.00830614
     atom    8 type  1   force =     0.00815079   -0.02133845   -0.00518924
     atom    9 type  1   force =     0.01127839    0.06589300   -0.00425035
     atom   10 type  1   force =     0.01238187   -0.03314985    0.00511233
     atom   11 type  1   force =    -0.01865859   -0.02396035    0.02458134
     atom   12 type  1   force =    -0.03041281   -0.02379482    0.00976265
     atom   13 type  1   force =    -0.01016398    0.02466689    0.01337296
     atom   14 type  1   force =     0.01885038    0.00102158   -0.02208585
     atom   15 type  1   force =     0.00629633   -0.01427168    0.03676086
     atom   16 type  1   force =     0.01798308    0.01361336   -0.00553442
     atom   17 type  1   force =     0.03165563    0.03260757    0.02755015
     atom   18 type  1   force =     0.00295761   -0.00473290   -0.00542244
     atom   19 type  1   force =    -0.01134249   -0.03263400   -0.01301502
     atom   20 type  1   force =     0.00123670   -0.03118471    0.00125875
     atom   21 type  1   force =    -0.02828480   -0.06375489    0.05397571
     atom   22 type  1   force =     0.00887313   -0.00655551    0.00705796
     atom   23 type  1   force =    -0.01451419   -0.01244421    0.03286314
     atom   24 type  1   force =    -0.00964386   -0.06844672    0.01649088
     atom   25 type  1   force =    -0.00135495    0.06854383   -0.01903524
     atom   26 type  1   force =    -0.02501506    0.01321963    0.02316530
     atom   27 type  1   force =    -0.01178164    0.03446761   -0.00699703
     atom   28 type  1   force =     0.01893344   -0.01650508   -0.00897651
     atom   29 type  1   force =     0.00755246    0.04196151   -0.02110029
     atom   30 type  1   force =     0.01445094   -0.00356797    0.00218354
     atom   31 type  1   force =    -0.01065474   -0.01164961    0.01803519
     atom   32 type  1   force =     0.00335188    0.00085113   -0.00909877
     atom   33 type  1   force =    -0.00408289    0.01312578   -0.00968336
     atom   34 type  1   force =    -0.00651919   -0.03119987   -0.00472859
     atom   35 type  1   force =     0.00652652    0.00147576    0.02909364
     atom   36 type  1   force =     0.01826234    0.01354454    0.01384837
     atom   37 type  1   force =     0.01518670    0.01891124   -0.00209955
     atom   38 type  1   force =     0.00992936   -0.03883951    0.01584918
     atom   39 type  1   force =     0.00733495   -0.00698881   -0.02106023
     atom   40 type  1   force =     0.01048602    0.01863738    0.01966671
     atom   41 type  1   force =    -0.00864453    0.02774043   -0.01094428
     atom   42 type  1   force =     0.00718073    0.01223434    0.00208277
     atom   43 type  1   force =     0.01363410   -0.03932660   -0.01057036
     atom   44 type  1   force =    -0.01370073   -0.01144543   -0.00384348
     atom   45 type  1   force =    -0.02986901   -0.05553447   -0.00124445
     atom   46 type  1   force =     0.02089341   -0.05318782    0.03207014
     atom   47 type  1   force =     0.01971212   -0.02354284   -0.01409560
     atom   48 type  1   force =    -0.02518402   -0.04810254    0.02300868
     atom   49 type  1   force =     0.01180854    0.00179484   -0.01347049
     atom   50 type  1   force =     0.00178294    0.03114342   -0.00711906
     atom   51 type  1   force =     0.03104293    0.01003543   -0.03810140
     atom   52 type  1   force =    -0.03117445    0.01494037   -0.00988987
     atom   53 type  1   force =    -0.00352604    0.03447648   -0.01301298
     atom   54 type  1   force =     0.00732905   -0.00902224    0.01059680
     atom   55 type  1   force =    -0.00246649    0.02176180   -0.04542946
     atom   56 type  1   force =    -0.02875795    0.01626238    0.00211244
     atom   57 type  1   force =    -0.02515618    0.02378029   -0.01313398
     atom   58 type  1   force =    -0.02749548   -0.00009927   -0.00156068
     atom   59 type  1   force =     0.01070584   -0.01913194   -0.02487992
     atom   60 type  1   force =     0.02572822    0.02072606   -0.01986311
     atom   61 type  1   force =     0.00811991   -0.02553648    0.00726214
     atom   62 type  1   force =     0.00345000   -0.06958652   -0.03714234
     atom   63 type  1   force =    -0.02283691    0.00141190   -0.04624910
     atom   64 type  1   force =     0.02658658   -0.02477270    0.00015244

     Total force =     0.344516     Total SCF correction =     0.000583


     Computing stress (Cartesian axis) and pressure

          total   stress  (Ry/bohr**3)                   (kbar)     P=       23.22
   0.00013308   0.00001314  -0.00006858           19.58        1.93      -10.09
   0.00001314   0.00018527   0.00002447            1.93       27.25        3.60
  -0.00006858   0.00002447   0.00015517          -10.09        3.60       22.83

 
     init_run     :      1.02s CPU      4.33s WALL (       1 calls)
     electrons    :      1.30s CPU      1.41s WALL (       1 calls)
     forces       :      0.04s CPU      0.04s WALL (       1 calls)
     stress       :      0.15s CPU      0.15s WALL (       1 calls)

     Called by init_run:
     wfcinit      :      0.46s CPU      3.62s WALL (       1 calls)
                                        3.62s GPU  (       1 calls)
     potinit      :      0.14s CPU      0.23s WALL (       1 calls)
     hinit0       :      0.39s CPU      0.42s WALL (       1 calls)

     Called by electrons:
     c_bands      :      0.94s CPU      1.01s WALL (      11 calls)
     sum_band     :      0.20s CPU      0.23s WALL (      11 calls)
     v_of_rho     :      0.08s CPU      0.18s WALL (      11 calls)
     mix_rho      :      0.07s CPU      0.08s WALL (      11 calls)

     Called by c_bands:
     init_us_2    :      0.03s CPU      0.03s WALL (      23 calls)
     init_us_2:gp :      0.03s CPU      0.03s WALL (      23 calls)
     regterg      :      0.86s CPU      0.92s WALL (      11 calls)

     Called by *egterg:
     rdiaghg      :      0.42s CPU      1.07s WALL (      92 calls)
                                        1.05s GPU  (      92 calls)
     h_psi        :      0.77s CPU      3.29s WALL (      94 calls)
                                        3.29s GPU  (      94 calls)
     g_psi        :      0.00s CPU      0.00s WALL (      82 calls)
                                        0.00s GPU  (      82 calls)

     Called by h_psi:
     h_psi:calbec :      0.42s CPU      2.87s WALL (      94 calls)
                                        2.87s GPU  (      94 calls)
     vloc_psi     :      0.31s CPU      0.37s WALL (      94 calls)
                                        0.36s GPU  (      94 calls)
     add_vuspsi   :      0.03s CPU      0.05s WALL (      94 calls)
                                        0.05s GPU  (      94 calls)

     General routines
     calbec       :      0.42s CPU      2.88s WALL (      99 calls)
     fft          :      0.42s CPU      0.53s WALL (      95 calls)
                                        0.11s GPU  (      61 calls)
     ffts         :      0.02s CPU      0.02s WALL (      11 calls)
     fftw         :      0.35s CPU      0.46s WALL (    1253 calls)
                                        0.41s GPU  (    1253 calls)
 
     Parallel routines
 
     PWSCF        :      2.54s CPU      6.00s WALL

 
   This run was terminated on:  11:15:20  10May2023            

=------------------------------------------------------------------------------=
   JOB DONE.
=------------------------------------------------------------------------------=
