An instance of this daemon is already running
An instance of this daemon is already running

     Program PWSCF v.7.1 starts on 10May2023 at 11:18:18 

     This program is part of the open-source Quantum ESPRESSO suite
     for quantum simulation of materials; please cite
         "P. Giannozzi et al., J. Phys.:Condens. Matter 21 395502 (2009);
         "P. Giannozzi et al., J. Phys.:Condens. Matter 29 465901 (2017);
         "P. Giannozzi et al., J. Chem. Phys. 152 154105 (2020);
          URL http://www.quantum-espresso.org", 
     in publications or presentations arising from this work. More details at
     http://www.quantum-espresso.org/quote

     Parallel version (MPI & OpenMP), running on       4 processor cores
     Number of MPI processes:                 4
     Threads/MPI process:                     1

     MPI processes distributed on     1 nodes
     151852 MiB available memory on the printing compute node when the environment starts
 
     Reading input from pw-si-59.in
Warning: card &CELL ignored
Warning: card / ignored

     Current dimensions of program PWSCF are:
     Max number of different atomic species (ntypx) = 10
     Max number of k-points (npk) =  40000
     Max angular momentum in pseudopotentials (lmaxx) =  4

     IMPORTANT: XC functional enforced from input :
     Exchange-correlation= PBE
                           (   1   4   3   4   0   0   0)
     Any further DFT definition will be discarded
     Please, verify this is what you really want


     gamma-point specific algorithms are used
 
     K-points division:     npool     =       2
     R & G space division:  proc/nbgrp/npool/nimage =       2
     Subspace diagonalization in iterative solution of the eigenvalue problem:
     a serial algorithm will be used

     Message from routine divide_et_impera:
     suboptimal parallelization: some nodes have no k-points
 
     Parallelization info
     --------------------
     sticks:   dense  smooth     PW     G-vecs:    dense   smooth      PW
     Min        1991    1991    524                94013    94013   12796
     Max        1994    1994    525                94018    94018   12801
     Sum        3985    3985   1049               188031   188031   25597
 
     Using Slab Decomposition
 


     bravais-lattice index     =            0
     lattice parameter (alat)  =      20.3931  a.u.
     unit-cell volume          =    8467.9701 (a.u.)^3
     number of atoms/cell      =           64
     number of atomic types    =            1
     number of electrons       =       256.00
     number of Kohn-Sham states=          154
     kinetic-energy cutoff     =      30.0000  Ry
     charge density cutoff     =     120.0000  Ry
     scf convergence threshold =      1.0E-06
     mixing beta               =       0.5000
     number of iterations used =            8  plain     mixing
     Exchange-correlation= PBE
                           (   1   4   3   4   0   0   0)

     GPU acceleration is ACTIVE.
     GPU-aware MPI enabled

     Message from routine print_cuda_info:
     High GPU oversubscription detected. Are you sure this is what you want?

     celldm(1)=  20.393115  celldm(2)=   0.000000  celldm(3)=   0.000000
     celldm(4)=   0.000000  celldm(5)=   0.000000  celldm(6)=   0.000000

     crystal axes: (cart. coord. in units of alat)
               a(1) = (   1.000000   0.000000   0.000000 )  
               a(2) = (   0.000000   1.000528   0.000000 )  
               a(3) = (   0.000000   0.000000   0.997929 )  

     reciprocal axes: (cart. coord. in units 2 pi/alat)
               b(1) = (  1.000000  0.000000  0.000000 )  
               b(2) = (  0.000000  0.999472  0.000000 )  
               b(3) = (  0.000000  0.000000  1.002076 )  


     PseudoPot. # 1 for Si read from file:
     /home/ppiaggi/pseudos/Si_ONCV_PBE_sr.upf
     MD5 check sum: 8553c464762ac42b85b1eed164b4d029
     Pseudo is Norm-conserving, Zval =  4.0
     Generated using ONCVPSP code by D. R. Hamann
     Using radial grid of 1510 points,  4 beta functions with: 
                l(1) =   0
                l(2) =   0
                l(3) =   1
                l(4) =   1

     atomic species   valence    mass     pseudopotential
        Si             4.00    28.08500     Si( 1.00)

     No symmetry found



   Cartesian axes

     site n.     atom                  positions (alat units)
         1           Si  tau(   1) = (   0.0041051   0.0045234   0.0026119  )
         2           Si  tau(   2) = (  -0.0007200   0.2536643   0.2514353  )
         3           Si  tau(   3) = (   0.2495596  -0.0009120   0.2555760  )
         4           Si  tau(   4) = (   0.2508177   0.2538106  -0.0042403  )
         5           Si  tau(   5) = (   0.1211987   0.1274896   0.1251772  )
         6           Si  tau(   6) = (   0.4987582   0.0023106  -0.0026756  )
         7           Si  tau(   7) = (   0.4973058   0.2563762   0.2484879  )
         8           Si  tau(   8) = (   0.6236725   0.1251943   0.1254436  )
         9           Si  tau(   9) = (   0.7483088  -0.0030859   0.2568031  )
        10           Si  tau(  10) = (   0.7415649   0.2507137   0.0012598  )
        11           Si  tau(  11) = (  -0.0042865   0.5062066  -0.0029405  )
        12           Si  tau(  12) = (   0.2448264   0.5103165   0.2536988  )
        13           Si  tau(  13) = (   0.1230705   0.6392672   0.1239947  )
        14           Si  tau(  14) = (   0.3723474   0.3794709   0.1300430  )
        15           Si  tau(  15) = (   0.4944435   0.5088629   0.0017592  )
        16           Si  tau(  16) = (   0.6188093   0.6334508   0.1227292  )
        17           Si  tau(  17) = (   0.8670685   0.3862788   0.1300236  )
        18           Si  tau(  18) = (   0.7489496   0.5104414   0.2478603  )
        19           Si  tau(  19) = (   0.0034348   0.7667779   0.2557986  )
        20           Si  tau(  20) = (   0.2508680   0.7670529  -0.0019378  )
        21           Si  tau(  21) = (   0.3711272   0.8887386   0.1299248  )
        22           Si  tau(  22) = (   0.5004784   0.7691801   0.2519387  )
        23           Si  tau(  23) = (   0.7422667   0.7654722  -0.0027479  )
        24           Si  tau(  24) = (   0.8672572   0.8890899   0.1290797  )
        25           Si  tau(  25) = (  -0.0028899   0.0011341   0.5015939  )
        26           Si  tau(  26) = (   0.2497946   0.2507423   0.5006752  )
        27           Si  tau(  27) = (   0.1200190   0.1286767   0.6330499  )
        28           Si  tau(  28) = (   0.3688587   0.1250634   0.3818426  )
        29           Si  tau(  29) = (   0.4990235  -0.0040646   0.5031130  )
        30           Si  tau(  30) = (   0.6184567   0.1261843   0.6303325  )
        31           Si  tau(  31) = (   0.8731271   0.1251917   0.3772990  )
        32           Si  tau(  32) = (   0.7412223   0.2520629   0.5086612  )
        33           Si  tau(  33) = (   0.1252822   0.3811725   0.3748556  )
        34           Si  tau(  34) = (  -0.0005133   0.5100475   0.5065839  )
        35           Si  tau(  35) = (   0.1214920   0.6366488   0.6323064  )
        36           Si  tau(  36) = (   0.6203754   0.3854734   0.3767255  )
        37           Si  tau(  37) = (   0.3759908   0.6333612   0.3794268  )
        38           Si  tau(  38) = (   0.3744266   0.3832103   0.6342333  )
        39           Si  tau(  39) = (   0.4932412   0.5068138   0.5026755  )
        40           Si  tau(  40) = (   0.6188314   0.6409736   0.6268494  )
        41           Si  tau(  41) = (   0.8709440   0.6384855   0.3807026  )
        42           Si  tau(  42) = (   0.8707369   0.3797996   0.6301385  )
        43           Si  tau(  43) = (   0.1271177   0.8941879   0.3803634  )
        44           Si  tau(  44) = (   0.2473199   0.7666622   0.5036394  )
        45           Si  tau(  45) = (   0.6204692   0.8896254   0.3768038  )
        46           Si  tau(  46) = (   0.3753305   0.8916718   0.6332059  )
        47           Si  tau(  47) = (   0.7438721   0.7664412   0.5067202  )
        48           Si  tau(  48) = (   0.8700550   0.8906180   0.6343739  )
        49           Si  tau(  49) = (   0.0033519   0.2510532   0.7606291  )
        50           Si  tau(  50) = (   0.2514590  -0.0006556   0.7588172  )
        51           Si  tau(  51) = (   0.3688695   0.1277123   0.8835724  )
        52           Si  tau(  52) = (   0.4995981   0.2522712   0.7577415  )
        53           Si  tau(  53) = (   0.7492817  -0.0010581   0.7541343  )
        54           Si  tau(  54) = (   0.8661544   0.1249963   0.8843962  )
        55           Si  tau(  55) = (   0.1257285   0.3790179   0.8843158  )
        56           Si  tau(  56) = (   0.2475451   0.5129987   0.7579354  )
        57           Si  tau(  57) = (   0.6214564   0.3797524   0.8873104  )
        58           Si  tau(  58) = (   0.3718839   0.6411874   0.8855889  )
        59           Si  tau(  59) = (   0.7464909   0.5131703   0.7580163  )
        60           Si  tau(  60) = (   0.8696054   0.6374206   0.8870937  )
        61           Si  tau(  61) = (  -0.0039729   0.7633486   0.7551180  )
        62           Si  tau(  62) = (   0.1273671   0.8882899   0.8834887  )
        63           Si  tau(  63) = (   0.4973012   0.7638540   0.7551107  )
        64           Si  tau(  64) = (   0.6245494   0.8946975   0.8826719  )

     number of k points=     1  Fermi-Dirac smearing, width (Ry)=  0.0100
                       cart. coord. in units 2pi/alat
        k(    1) = (   0.0000000   0.0000000   0.0000000), wk =   2.0000000

     Dense  grid:    94016 G-vectors     FFT dimensions: (  72,  72,  72)

     Estimated max dynamical RAM per process >     150.29 MB

     Estimated total dynamical RAM >     578.21 MB

     Initial potential from superposition of free atoms

     starting charge     255.9608, renormalised to     256.0000
     Starting wfcs are  256 randomized atomic wfcs

     total cpu time spent up to now is        4.4 secs

     Self-consistent Calculation

     iteration #  1     ecut=    30.00 Ry     beta= 0.50
     Davidson diagonalization with overlap
     ethr =  1.00E-02,  avg # of iterations =  3.0

     Threshold (ethr) on eigenvalues was too large:
     Diagonalizing with lowered threshold

     Davidson diagonalization with overlap
     ethr =  7.08E-04,  avg # of iterations =  3.0

     total cpu time spent up to now is        4.6 secs

     total energy              =    -503.67526166 Ry
     estimated scf accuracy    <       2.00114848 Ry

     iteration #  2     ecut=    30.00 Ry     beta= 0.50
     Davidson diagonalization with overlap
     ethr =  7.82E-04,  avg # of iterations =  1.0

     total cpu time spent up to now is        4.7 secs

     total energy              =    -503.66071174 Ry
     estimated scf accuracy    <       0.35998150 Ry

     iteration #  3     ecut=    30.00 Ry     beta= 0.50
     Davidson diagonalization with overlap
     ethr =  1.41E-04,  avg # of iterations = 11.0

     total cpu time spent up to now is        4.8 secs

     total energy              =    -503.67305851 Ry
     estimated scf accuracy    <       0.10807062 Ry

     iteration #  4     ecut=    30.00 Ry     beta= 0.50
     Davidson diagonalization with overlap
     ethr =  4.22E-05,  avg # of iterations = 20.0

     total cpu time spent up to now is        5.0 secs

     total energy              =    -503.69204197 Ry
     estimated scf accuracy    <       0.01207326 Ry

     iteration #  5     ecut=    30.00 Ry     beta= 0.50
     Davidson diagonalization with overlap
     ethr =  4.72E-06,  avg # of iterations = 15.0

     total cpu time spent up to now is        5.2 secs

     total energy              =    -503.69366213 Ry
     estimated scf accuracy    <       0.00298051 Ry

     iteration #  6     ecut=    30.00 Ry     beta= 0.50
     Davidson diagonalization with overlap
     ethr =  1.16E-06,  avg # of iterations =  6.0

     total cpu time spent up to now is        5.3 secs

     total energy              =    -503.69415398 Ry
     estimated scf accuracy    <       0.00084155 Ry

     iteration #  7     ecut=    30.00 Ry     beta= 0.50
     Davidson diagonalization with overlap
     ethr =  3.29E-07,  avg # of iterations =  4.0

     total cpu time spent up to now is        5.4 secs

     total energy              =    -503.69425632 Ry
     estimated scf accuracy    <       0.00008886 Ry

     iteration #  8     ecut=    30.00 Ry     beta= 0.50
     Davidson diagonalization with overlap
     ethr =  3.47E-08,  avg # of iterations =  5.0

     total cpu time spent up to now is        5.5 secs

     total energy              =    -503.69427804 Ry
     estimated scf accuracy    <       0.00001344 Ry

     iteration #  9     ecut=    30.00 Ry     beta= 0.50
     Davidson diagonalization with overlap
     ethr =  5.25E-09,  avg # of iterations =  4.0

     total cpu time spent up to now is        5.6 secs

     total energy              =    -503.69428012 Ry
     estimated scf accuracy    <       0.00000407 Ry

     iteration # 10     ecut=    30.00 Ry     beta= 0.50
     Davidson diagonalization with overlap
     ethr =  1.59E-09,  avg # of iterations =  4.0

     total cpu time spent up to now is        5.7 secs

     End of self-consistent calculation

          k = 0.0000 0.0000 0.0000 ( 11784 PWs)   bands (ev):

    -5.7267  -4.7227  -4.6842  -4.6300  -4.5670  -4.5158  -4.4796  -3.9019
    -3.7601  -3.7151  -3.6818  -3.6168  -3.5772  -3.5558  -3.5459  -3.5013
    -3.4562  -3.4228  -3.3723  -3.2633  -3.1761  -3.1374  -3.0999  -1.7545
    -1.6334  -1.5855  -1.5015  -1.4269  -1.3776  -1.3467  -1.3074  -1.2785
    -1.2468  -1.2459  -1.2231  -1.1883  -1.1453  -1.1408  -1.1000  -1.0751
    -1.0598  -0.7370  -0.6505  -0.5677  -0.4476   0.7821   0.8168   0.8634
     0.8777   0.8911   0.9048   0.9334   0.9562   0.9881   1.0140   1.0474
     1.0818   2.2923   2.3010   2.3165   2.3632   2.3799   2.4184   2.4369
     2.4567   2.4750   2.5045   2.5289   2.5713   2.5907   2.6041   2.6260
     2.6715   2.7142   2.7166   2.7380   2.7521   2.7657   2.8036   2.8169
     2.8213   2.9143   2.9603   2.9776   3.0132   3.0458   3.0829   3.4245
     3.4626   3.5435   3.5728   3.5890   3.6377   4.3754   4.4016   4.4794
     4.4937   4.5102   4.5404   4.5541   4.5758   4.5977   4.6200   4.6612
     4.6826   4.6979   4.7581   5.0201   5.0756   5.1099   5.1167   5.1316
     5.1777   5.1979   5.2321   5.2519   5.2716   5.2774   5.3112   5.3341
     5.3647   5.3948   5.4364   5.4578   5.5054   6.3411   6.5615   6.6206
     6.8812   6.9511   7.0177   7.1067   7.1793   7.2621   7.5245   7.5293
     7.5571   7.5971   7.6154   7.6644   7.9591   7.9953   8.0141   8.0488
     8.6366   8.6952   8.7410   8.7832   8.8057   8.8638   8.8812   8.9204
     8.9383   8.9623

     the Fermi energy is     6.7219 ev

!    total energy              =    -503.69428091 Ry
     estimated scf accuracy    <       0.00000060 Ry
     smearing contrib. (-TS)   =      -0.06504022 Ry
     internal energy E=F+TS    =    -503.62924069 Ry

     The total energy is F=E-TS. E is the sum of the following terms:
     one-electron contribution =     154.40889723 Ry
     hartree contribution      =      36.51685215 Ry
     xc contribution           =    -155.02703678 Ry
     ewald contribution        =    -539.52795329 Ry

     convergence has been achieved in  10 iterations

     Forces acting on atoms (cartesian axes, Ry/au):

     atom    1 type  1   force =    -0.05961935    0.01201827    0.02193249
     atom    2 type  1   force =    -0.01953851    0.01232441   -0.00182522
     atom    3 type  1   force =    -0.00769995    0.07459067   -0.02635270
     atom    4 type  1   force =    -0.01538836    0.00971618    0.07964567
     atom    5 type  1   force =     0.03656233    0.02035510    0.01926436
     atom    6 type  1   force =    -0.03803938    0.04706234    0.06677769
     atom    7 type  1   force =     0.00696134   -0.02699395    0.03031859
     atom    8 type  1   force =    -0.01147208   -0.00182089    0.02729365
     atom    9 type  1   force =    -0.00744086    0.07459478   -0.01588139
     atom   10 type  1   force =     0.03094009    0.02091353    0.04294763
     atom   11 type  1   force =     0.00543433    0.00441637    0.05216747
     atom   12 type  1   force =     0.01785634    0.00383874   -0.01851865
     atom   13 type  1   force =    -0.00385073   -0.01009870    0.00157255
     atom   14 type  1   force =    -0.02073674    0.02124628   -0.01587842
     atom   15 type  1   force =    -0.00934879   -0.01517716    0.02317568
     atom   16 type  1   force =     0.01122144    0.02470309    0.01706838
     atom   17 type  1   force =     0.03219022   -0.04380555   -0.02950423
     atom   18 type  1   force =    -0.02449491    0.02384230    0.03690916
     atom   19 type  1   force =    -0.02644080   -0.01586503   -0.00938701
     atom   20 type  1   force =    -0.01065147   -0.01990203    0.06507957
     atom   21 type  1   force =     0.02277339   -0.02656862   -0.02499246
     atom   22 type  1   force =    -0.01450077   -0.05809758   -0.00537747
     atom   23 type  1   force =     0.01234368   -0.01800331    0.05765801
     atom   24 type  1   force =     0.04619895   -0.04872666   -0.02253481
     atom   25 type  1   force =    -0.00885857    0.04234702    0.02998938
     atom   26 type  1   force =    -0.01947486    0.03111691    0.03677746
     atom   27 type  1   force =     0.02601727   -0.01521368   -0.01809451
     atom   28 type  1   force =     0.04362185    0.00719545   -0.02238546
     atom   29 type  1   force =    -0.01675365    0.07230345    0.00569161
     atom   30 type  1   force =     0.00891650   -0.01066869    0.00461840
     atom   31 type  1   force =    -0.01179456    0.02985882    0.01375125
     atom   32 type  1   force =     0.02138623    0.01283737   -0.03440720
     atom   33 type  1   force =    -0.01520866    0.00091047    0.02711712
     atom   34 type  1   force =    -0.01173808   -0.02005554   -0.01711252
     atom   35 type  1   force =     0.00720217    0.00981305   -0.01092061
     atom   36 type  1   force =     0.01200192   -0.01456164    0.00119023
     atom   37 type  1   force =    -0.02350770    0.03384011   -0.01267284
     atom   38 type  1   force =    -0.01576544   -0.01404889   -0.00902172
     atom   39 type  1   force =     0.02415793    0.00320566    0.01473208
     atom   40 type  1   force =     0.00132933   -0.03246584    0.01206683
     atom   41 type  1   force =     0.01198216    0.00081397   -0.00250727
     atom   42 type  1   force =     0.01107413    0.00600047    0.01997666
     atom   43 type  1   force =    -0.01903605   -0.06178882    0.00783505
     atom   44 type  1   force =     0.01694631   -0.02792304    0.01326200
     atom   45 type  1   force =     0.01808155   -0.04986704    0.01606689
     atom   46 type  1   force =    -0.01158616   -0.06058913   -0.01457907
     atom   47 type  1   force =     0.01402077   -0.00954867   -0.01447171
     atom   48 type  1   force =     0.03439656   -0.05661909   -0.04507455
     atom   49 type  1   force =    -0.04695833    0.01688021   -0.00546737
     atom   50 type  1   force =    -0.02424415    0.06132547   -0.01908498
     atom   51 type  1   force =     0.03599744   -0.00440770   -0.04803183
     atom   52 type  1   force =    -0.01489539    0.01051175    0.00419317
     atom   53 type  1   force =    -0.02840468    0.07873049    0.01005757
     atom   54 type  1   force =     0.04072609    0.01027695   -0.03049708
     atom   55 type  1   force =    -0.00842130    0.02560815   -0.04378564
     atom   56 type  1   force =     0.00333168   -0.01175730    0.00255465
     atom   57 type  1   force =    -0.00402702    0.02356398   -0.05452582
     atom   58 type  1   force =     0.01660424   -0.02430311   -0.05070753
     atom   59 type  1   force =    -0.00853408   -0.01837622   -0.01323048
     atom   60 type  1   force =     0.01132874    0.00389730   -0.05267715
     atom   61 type  1   force =     0.00392321   -0.00934575    0.02101105
     atom   62 type  1   force =    -0.03000232   -0.03444575   -0.04738744
     atom   63 type  1   force =     0.00850180   -0.00068617    0.01510818
     atom   64 type  1   force =    -0.00559627   -0.06892757   -0.06091533

     Total force =     0.406906     Total SCF correction =     0.001310


     Computing stress (Cartesian axis) and pressure

          total   stress  (Ry/bohr**3)                   (kbar)     P=       55.74
   0.00039492  -0.00011127  -0.00009994           58.10      -16.37      -14.70
  -0.00011127   0.00035449   0.00005111          -16.37       52.15        7.52
  -0.00009994   0.00005111   0.00038733          -14.70        7.52       56.98

 
     init_run     :      1.10s CPU      4.37s WALL (       1 calls)
     electrons    :      1.18s CPU      1.25s WALL (       1 calls)
     forces       :      0.03s CPU      0.04s WALL (       1 calls)
     stress       :      0.14s CPU      0.14s WALL (       1 calls)

     Called by init_run:
     wfcinit      :      0.45s CPU      3.57s WALL (       1 calls)
                                        3.57s GPU  (       1 calls)
     potinit      :      0.14s CPU      0.22s WALL (       1 calls)
     hinit0       :      0.49s CPU      0.51s WALL (       1 calls)

     Called by electrons:
     c_bands      :      0.83s CPU      0.86s WALL (      11 calls)
     sum_band     :      0.18s CPU      0.20s WALL (      11 calls)
     v_of_rho     :      0.08s CPU      0.16s WALL (      11 calls)
     mix_rho      :      0.06s CPU      0.07s WALL (      11 calls)

     Called by c_bands:
     init_us_2    :      0.03s CPU      0.03s WALL (      23 calls)
     init_us_2:gp :      0.03s CPU      0.03s WALL (      23 calls)
     regterg      :      0.74s CPU      0.77s WALL (      11 calls)

     Called by *egterg:
     rdiaghg      :      0.38s CPU      1.05s WALL (      86 calls)
                                        1.03s GPU  (      86 calls)
     h_psi        :      0.67s CPU      3.15s WALL (      88 calls)
                                        3.15s GPU  (      88 calls)
     g_psi        :      0.00s CPU      0.00s WALL (      76 calls)
                                        0.00s GPU  (      76 calls)

     Called by h_psi:
     h_psi:calbec :      0.40s CPU      2.81s WALL (      88 calls)
                                        2.81s GPU  (      88 calls)
     vloc_psi     :      0.22s CPU      0.29s WALL (      88 calls)
                                        0.28s GPU  (      88 calls)
     add_vuspsi   :      0.04s CPU      0.05s WALL (      88 calls)
                                        0.05s GPU  (      88 calls)

     General routines
     calbec       :      0.40s CPU      2.81s WALL (      93 calls)
     fft          :      0.51s CPU      0.61s WALL (      95 calls)
                                        0.10s GPU  (      61 calls)
     ffts         :      0.02s CPU      0.02s WALL (      11 calls)
     fftw         :      0.27s CPU      0.37s WALL (    1243 calls)
                                        0.33s GPU  (    1243 calls)
 
     Parallel routines
 
     PWSCF        :      2.49s CPU      5.86s WALL

 
   This run was terminated on:  11:18:24  10May2023            

=------------------------------------------------------------------------------=
   JOB DONE.
=------------------------------------------------------------------------------=
