0.005945096118782292 -0.03918852129045004 0.07292636622047494 -0.04261657136668685 2.8750092364192823 2.745883458907408 2.8363776225284894 0.025125513174695066 2.6044728303708116 2.7149761945008386 2.688582291835192 -0.03386391648703393 1.2738215306471836 1.451107739210915 1.3257586270372685 5.508608981556814 0.09009511973628712 0.06821896390919868 5.577624936961192 2.8509624572628205 2.7543532749895974 6.87060715172493 1.4525559177049059 1.329212987699316 8.296389855818754 -0.031961880387810754 2.6724714431238468 8.318730831995161 2.859923404280141 0.05161369543949641 0.007985262793511012 5.577221507978763 0.026045287403656588 2.7321076746867523 5.493537400984987 2.5826175037574894 1.401547365739053 6.901330242030826 1.2686953515117558 4.2063840772527 4.204848196806008 1.4106859092105941 5.56168949215525 5.595068855353607 -0.004351113128424657 6.776464586871449 6.883531130729969 1.3759066035922338 9.52867793421512 4.072962000332841 1.4093528395295247 8.32138052724117 5.531305150641666 2.6823148910402295 -0.09308794887224059 8.317688275032419 2.631076121448534 2.691906195842595 8.399324541430603 -0.03731279577703745 4.063521981398887 9.639614326736613 1.2531523729441556 5.512225590831361 8.43070868520499 2.7476320165894035 8.209195478168082 8.348399306319818 -0.06437323328321891 9.52305185394929 9.82458541890585 1.411114552504425 -0.08428925046741914 -0.032686517772010475 5.247792144416535 2.7851881852851883 2.8397168743776158 5.327082383579945 1.4586117375389744 1.3024540256555475 6.717766766202454 4.107342262066408 1.2998953211854685 3.980998829004003 5.397280122796981 0.08597093541047872 5.252976426095628 6.772384253521992 1.2936783490133101 6.711226393079707 9.630699423244462 1.3882824453928855 3.9600095591736126 8.154581279671772 2.710455158839054 5.234598481906938 1.4080658133736241 4.078520111585326 3.916619018074331 0.08835862107278884 5.6423007419812325 5.3067914405479435 1.3931937547441935 6.997971216261905 6.649275926239879 6.829704057259158 4.096360881313717 4.012341314350856 4.1089998289724745 6.884886125899214 4.001220706748251 4.099326303589451 4.230188579764823 6.717294271932272 5.463335041023258 5.488005600318313 5.3113815414974805 6.922729518490097 6.900625337585985 6.701227274197278 9.571689164368966 7.020655326328259 3.924779684773246 9.557176683745613 4.111799713812483 6.742068977296159 1.4654020612269214 9.639383012836362 4.05421790049162 2.6656767343382644 8.38125355407637 5.296460150519656 6.810217779643197 9.71027688630297 4.06654112112065 4.016922645105123 9.767788538061671 6.64365971244373 8.139924090826462 8.296130038783874 5.299367470251725 9.608645670963151 9.801498976131475 6.57316049776428 -0.005233614027487859 2.7560470189511537 7.956078872475034 2.7014624198638795 0.0797386153965976 8.068327505463829 4.1259844083876125 1.4578553081969203 9.394438036586314 5.4416386741992095 2.8409315464225373 8.023577584097668 8.177444082466756 -0.03528468812080524 7.965227282416254 9.59207548327453 1.4794354699336396 9.301772153361451 1.298120452917663 4.267856568450304 9.36927634635613 2.6696123594657637 5.617217983508479 8.074742903303974 6.879753369117334 4.081385772889862 9.38903121120224 4.182701261199952 6.846515425317709 9.376544645686304 8.300189542919565 5.547419288176237 7.949914521474497 9.540318175887483 6.867184583020737 9.266551049156355 -0.023678430955113173 8.259052942004724 8.073871365149001 1.3142641898612715 9.666330534078439 9.328258143077436 5.434308983502145 8.24215387199347 7.925785521737378 6.87756520539742 9.667869703348357 9.238280324702888
0.08420167857784944 -0.041445648605920246 0.09147899483920378 -0.08403027848356134 2.5681318450008592 2.8786502080767034 2.822553721733861 0.03769253944454102 2.810272628526355 2.675271279422695 2.5764607837762004 -0.0818087121001757 1.2895357971223396 1.3811707107569926 1.3409602486370065 5.631941704612278 0.07186640082440653 0.07397517488768 5.514772600156938 2.639061627245511 2.8741650546416553 6.957168530400697 1.4054210595811076 1.309016800097006 8.319130266719764 0.027140928478754173 2.8747433917339946 8.225567931379665 2.705019700948748 0.05692584163778464 0.03329142734604682 5.274412165997919 0.06299893401088266 2.681124316190868 5.294820941095861 2.861789967834055 1.4519777484179925 6.686176134874747 1.485866311576398 4.2073901828945 3.9584896008116934 1.3663783297164003 5.636018815242214 5.392911556346346 0.008552311801445762 6.9621026415020735 6.568786974814483 1.4222768765955165 9.633105505673464 3.9242880942553295 1.4927046224349627 8.37345303853849 5.273447902241666 2.893709088618737 -0.091173792090665 8.002187164625767 2.790610273193861 2.8594522917093776 8.026061539049508 -0.07723288248621364 4.228203683376373 9.323172114532321 1.4655957623609464 5.552085847779926 7.925519349547174 2.8268951202511197 8.313529353961254 8.051608999554912 0.05173739491262515 9.775709278314098 9.300666729248764 1.4428537343665666 -0.06110579232429421 0.09426341701609031 5.6230841900622925 2.811954561064498 2.613654604236716 5.638679387028389 1.31644229450439 1.3911019639621622 7.01469150785084 4.144889967867641 1.381967997647197 4.298953219070257 5.5681775521159285 -0.07532647111490612 5.702386037557623 6.910346447869431 1.320156700418672 7.134049004477767 9.731537815305467 1.392592591878939 4.152617347602384 8.387953486515263 2.620390075038708 5.574894224197901 1.4636805045331596 3.9806090594313366 4.2672585771187395 -0.0006822829559725931 5.367660452133 5.663691636916791 1.4013439489511708 6.702323129563744 7.105474950049352 6.856754614517314 3.953898289898892 4.1634310348413734 4.203662507295498 6.599015316604543 4.32597693200066 4.061263308960952 3.9277094612987318 7.146925021883511 5.505933884326972 5.292952127164591 5.579893577915814 6.878091161738532 6.581901846545172 7.105963716769838 9.750349805008879 6.651020316825669 4.269610628735196 9.605998857213569 3.8852774327953603 7.092602250064786 1.3757500445492492 9.260553578150052 4.274050444080787 2.741478159714415 8.004970480995592 5.625190752511446 6.9699074277310125 9.324877269018723 4.157690790393312 4.10131232325019 9.327972422979448 7.005957843691568 8.379506226384509 8.00875012952641 5.650494935463668 9.676738440643913 9.23064702621443 7.015831594929621 0.07260176251925543 2.5956144678611297 8.570224770009457 2.6820421360506046 -0.01578650158746311 8.470762954004668 4.074596024682446 1.3575097570958166 9.96104696478546 5.495082599647947 2.6682803671898605 8.379536083175127 8.314223800794885 -0.01814739966039907 8.45547517140123 9.729530775491705 1.3178754204540504 9.977484786731218 1.4462198110569726 3.896161891686184 9.914475900456795 2.8414773979503267 5.266332033811061 8.478891741702164 6.875753485613854 3.9969473587417013 9.982141340260553 4.2286106203744245 6.629113173161532 9.7874606899399 8.231133458312259 5.2898193757638285 8.48167505807199 9.666786177104605 6.542643484303779 9.812897569739313 -0.028744348715642763 8.020175328069536 8.44267103145438 1.3525513182391211 9.2469245061365 9.890614795717774 5.467737096863107 7.984979700966303 8.43332253856979 6.886413465671514 9.285649869375009 9.89006078638075
-0.003408017190347005 0.0817312373250288 0.061456649418486636 0.04614837899069752 2.7085872863801845 2.7733885531914173 2.665933682197604 -0.09631096621898068 2.776538522082756 2.843713388334002 2.664496620118646 -0.058477971208385694 1.4065534289863908 1.3513933805191296 1.4240261907498248 5.492845011890163 0.030499751754734076 0.08708129042084117 5.437607104022339 2.810432943702027 2.8249681815099428 6.945361069583051 1.4602930995319574 1.3256764205132505 8.216735007312382 0.05414009031988918 2.7815026150072075 8.340340142537213 2.808644402043385 0.06158789812229242 0.023028586132162004 5.483855587956617 0.082116085219239 2.780379215084802 5.520530702453129 2.8186070684839653 1.3734676328558224 6.818422439736984 1.3337181843142327 4.180149978005026 4.042554620776218 1.3934519164259807 5.55329727504139 5.4915369739607085 0.08248647351048755 6.9235826829684965 6.890092017955002 1.3294103349088104 9.591873280448851 4.036435984169136 1.4419861299053511 8.289722633954213 5.580402356931589 2.8477064633057205 0.05638911471900199 8.365622202177091 2.8534369151871397 2.72647159068945 8.182630365311592 -0.019542709541252243 4.102755509291343 9.658423046941293 1.4875049600286412 5.516626609653482 8.256330961607148 2.7260033220089226 8.347091664843155 8.332058126871638 -0.07366277887242528 9.725581229035276 9.702790670213405 1.4341123199541543 -0.07741337742524843 0.05588080406104227 5.661792125171291 2.720745587916635 2.810062555410778 5.589619797681068 1.3059512975192513 1.4580807802788243 6.967664451012829 4.073115547774252 1.4230696324000536 4.178539400690528 5.517064846850935 -0.08087478391883846 5.640292920121612 6.926038590917677 1.3263326640322797 6.960432424977699 9.748210507670265 1.3635750398757485 4.246215903936828 8.325751515426054 2.715645797179774 5.487450467708315 1.2950576551033706 4.0481082205906445 4.188022675679072 0.00012012593229682652 5.485039050845171 5.504982180160746 1.4561954705080544 6.926356702182834 6.966655615636966 6.898253907688281 4.2315427437622 4.115161848632442 4.068866649057827 6.840634614440388 4.2822002943226325 4.229152460164924 4.182296672906256 6.92602969270047 5.531545583078457 5.480331893942577 5.581483490322259 6.953826610978526 6.921372588269666 6.894905953464082 9.586935882176022 6.929170763374601 4.211845427696974 9.645895469390744 4.133069510761877 7.074393005027106 1.2858146319794204 9.605950260070598 4.183197617398482 2.7225741715527088 8.198343504622308 5.481684422958067 6.938948791808133 9.559179005875398 4.110296748374421 4.167020658515843 9.54684941365771 7.070991661499665 8.254867204876568 8.286279023895037 5.661292712730539 9.608108077743337 9.611563922851174 6.913658946228199 -0.07958676697810026 2.7241758506499996 8.37174973700138 2.7631956453806015 0.025520086950170256 8.414137506944897 4.0862737864693575 1.4265744177025288 9.698448340216306 5.4381877126951075 2.7930224694590433 8.327646835691182 8.30322901539755 -0.04086728707824074 8.412225502522507 9.612372548339875 1.4123928840285975 9.85359654316341 1.3898003105395873 4.169102841342322 9.669364517274662 2.8011087243460606 5.4275966096642705 8.297537493216414 6.818419102905531 4.184276526234853 9.69613480374244 4.225144925590244 6.821111925887852 9.855131485631649 8.37297769097597 5.57422699418981 8.284286935517782 9.744486603769063 6.979481283463954 9.696610858363023 -0.09182848930086761 8.306310023105533 8.272903891155506 1.4754523248215263 9.714076946463551 9.717972141045992 5.555065795711315 8.212570641659426 8.291610168279284 6.9711225206749665 9.691000532413902 9.78358648245453
0.010872483700823391 -0.09250318832362141 0.027550459256090905 0.09391295177185266 2.809122864259343 2.723448045413277 2.7145518759131404 -0.04804438559929947 2.7421684694983117 2.7325062440196604 2.8908329300770377 0.08795094200525151 1.2887563640739683 1.4796927855620903 1.382513900172482 5.527801522307103 0.045073851984769965 0.027360874179393656 5.436497569817473 2.7998629559492647 2.6675303679369518 6.7043521791855705 1.4505043994224405 1.4155975982949691 8.181408409494988 0.022027140539056637 2.6878810032338194 8.186974715525924 2.7613375047822757 -0.08354198673322255 0.005947680661967054 5.633796113763133 -0.028805909269801148 2.800536423867067 5.545968622505498 2.7243860506474014 1.35602599913695 7.003820545888774 1.4347368731308467 4.004540542985641 4.284565416939198 1.4184358632513376 5.348778097964003 5.582503430367167 -0.08244966806457739 6.8313124551989155 7.0745556197955715 1.2740172265995757 9.586437742002902 4.171795363468877 1.269056049679725 8.130831079091907 5.551916303167466 2.752242932294898 0.07341130975691804 8.408903888098774 2.7444941934043072 2.7616593585171336 8.449893945262826 -0.027422599553202063 4.094554876058202 9.887037005733383 1.4093115303158739 5.410790053865091 8.529049021500379 2.784462475184067 8.20299024555157 8.386132736357562 0.00810806874526124 9.423923650675915 9.966841300634742 1.3361515310094616 -0.03116690481797265 -0.06364547382937391 5.419174784553672 2.7109420437841667 2.779059300498196 5.417254684532703 1.2740315557042097 1.50917436722733 6.906121403777068 4.149036336354664 1.3734281455956483 4.173876390357275 5.48498615766043 -0.009754813539364053 5.428066545098536 6.789873786835934 1.5107296261995378 6.7880892621895805 9.585081988256754 1.3199927099374755 4.1905885353159 8.09837235037923 2.763247684653882 5.398858318660162 1.4386410030242285 4.216557281868151 4.19264090399503 0.0913436330870778 5.570314873517642 5.440477754189297 1.4525214964593938 6.948557598270345 6.92114271438887 6.7659783515003555 4.171536337346645 4.071518084761851 4.162176125304128 6.962860249172808 4.083081672201565 4.044055804611201 4.158188225260578 6.735309658628122 5.496354648829357 5.588598811030747 5.467876104488504 6.822356764802607 6.95261053040416 6.765056879848501 9.477558591560149 7.09971201633895 4.1488015594864285 9.56190300815288 4.2845940751484655 6.766183367920505 1.385731335282245 9.8349782663589 4.1788022956349495 2.7155868781632493 8.517249554953612 5.428326673459585 6.724958533888216 9.796397703251012 4.106822794102623 4.028599109666285 9.81188636312165 6.758630827539519 8.110295267673614 8.379355069865635 5.383542710283952 9.474263999733125 9.798247259987628 6.897929564881638 -0.0647686551849233 2.913783746745585 8.252330864000845 2.646260465465866 -0.04431440943916298 8.13527640824493 4.035811058252506 1.3603269350048142 9.583784653167958 5.41133235536355 2.845168278085816 8.13632684183849 8.253156440875532 0.025392275650432734 8.243434694500708 9.481335963989459 1.4647188712194616 9.62184495955375 1.412264428109315 4.173138992588028 9.605024795190959 2.798308799215875 5.642983274311224 8.1114206535068 6.736957505661042 4.203867206356434 9.62021254386428 4.109144109053346 6.949139580366254 9.515671805409202 8.226361015209777 5.669952853710225 8.14301522698616 9.515465686750236 7.083487060937885 9.512195344177208 0.06566808206041719 8.47467227389163 8.277427739648052 1.4075644817893325 9.862903486813115 9.642322352314688 5.355772905503077 8.492624437520513 8.174241652700305 6.721638590568378 9.782047656079376 9.57995216879775
-0.04598227416931771 -0.01452049235390411 0.08791451294726726 -0.08666496548144527 2.794822595319125 2.6616186903166352 2.6584428018648762 -0.09105178877347272 2.834272900332343 2.7154833029634853 2.801228000869244 -0.07032109914307987 1.3275396065750056 1.3944531415130068 1.4629766084219942 5.3086385904553275 -0.058616110735770395 0.060546742013435295 5.269363114830031 2.820675893272922 2.6921301725142643 6.635027326274258 1.4096043067509483 1.4370471577900228 8.050852556031016 0.026079610842456673 2.820797094014242 7.9439867519476035 2.7133167056407728 0.08786088430066546 0.08146084161520632 5.4431081315176195 -0.07903682678880485 2.588821020273484 5.487882688565465 2.691125171676947 1.2490766063048402 6.988936708647671 1.2901218272679957 3.9300466574612694 4.242692013993391 1.2840961125358172 5.330337813443348 5.573254131090874 -0.002655690579721272 6.735007212133999 6.867008762879676 1.3015179146708789 9.253932944718422 4.069677419472519 1.3955342950284992 8.092472676085743 5.5756856539278 2.8391809940693395 0.05355892936122039 8.407095857104538 2.7700300719951114 2.7210896416792383 8.369985906229022 -0.06419563512822196 4.055146201389294 9.751277505293015 1.322700157505659 5.372870693063239 8.360582659333863 2.8233348015714395 8.002983626074247 8.338591696508328 -0.059646853323457046 9.370991409374971 9.732312270708753 1.3312753780972872 -0.016297745702287852 0.09809644779108553 5.586362044893287 2.5946997925139734 2.809051347835515 5.423546546383147 1.4266217488906323 1.3488838079225232 6.855141815959629 3.9482246235134166 1.4542447921822887 4.1251004805896185 5.411071450610634 -0.10063308277535081 5.441505707557158 6.761221967165893 1.4645876129659126 6.896988248903016 9.379747894792114 1.3556249288003697 4.205011454318032 8.091049371804932 2.8562145248030046 5.42488726254819 1.329250360401603 4.127933145703126 4.11723101298727 -0.08444795723092673 5.605715550878945 5.44715923948192 1.2605209594896647 7.003830456381923 6.792483177843016 6.7739952382135105 4.171710209924178 4.202498415938273 3.945378014951793 6.941960159370356 4.15514968385354 4.0305038382757665 4.213499796502165 6.797798849294185 5.395750818849431 5.482919893608934 5.55122670078565 6.647459519129487 7.028178934512074 6.848690289773432 9.332157833797675 6.948407395264824 4.10437193610509 9.274252838915844 4.0701343355415665 6.8085685541047605 1.340998251726194 9.703003142767937 4.158656997341298 2.6839314250217807 8.269858005304663 5.55787987068307 6.654426952895994 9.64381964095112 4.221096830579777 3.9431030877629447 9.657006925150503 6.905342519470645 7.919363695146852 8.374785670099884 5.593042029114008 9.282837712663861 9.6440834938924 6.813318979620748 -0.044619033972699874 2.7812019916551987 8.159149172405764 2.7558774721568957 -0.09633850075547845 8.160697967719624 4.0117391748297955 1.385826437420641 9.577780252952728 5.266836133002154 2.7156903095393683 8.163239965568549 8.019119413263796 -0.05057288631843202 8.274960234742357 9.302220178118684 1.405464175233289 9.672447685080094 1.2766696175543997 4.225826877210056 9.654035898128763 2.6759772241578017 5.4477695334802485 8.296322669829719 6.75496779439919 4.237190787424979 9.713308423498939 4.077451428083917 6.918977066582688 9.68829173243213 8.079142739686398 5.584675960244126 8.278431080750426 9.346328667375735 7.005098237587591 9.638495388916493 0.09058521954803704 8.22948421499696 8.229618286613466 1.3799154879921904 9.74551671607505 9.654889666182664 5.364122788229552 8.40247628548626 8.178912401251461 6.606762884369243 9.782477579313012 9.69806394441591
0.0754061467159959 0.09495897199320522 -0.027130183364085143 0.0626724996877872 2.6382449312848886 2.718890622414898 2.879348339875144 0.0880865102416892 2.587764363016404 2.7542819688148064 2.655721920109936 -0.07589568889535603 1.4832539695938296 1.2615080134382273 1.2849816164421939 5.660266509582799 -0.05350440703623322 0.04583935318480081 5.751453453627103 2.767034487083489 2.6954869540079827 7.203801881689038 1.4060517248138775 1.3191219106059597 8.599689778398105 0.0829768443650573 2.6887099585318066 8.557894421039629 2.7264846315963096 0.007774951075370391 0.024162958317759466 5.384617630195067 -0.06780214687786237 2.872464777393937 5.327472183820282 2.5778847135916756 1.384343137830733 6.6056124205540945 1.342886352727823 4.283327558455766 3.9605305498526997 1.360940579496787 5.62487516318289 5.3961679394382465 -0.08483399644231239 7.1188635383876315 6.770212930334912 1.3697090458794756 9.894537723389398 4.033068268016617 1.403858220626994 8.572909268019277 5.376903733132996 2.635387603462501 0.05438913519258247 7.94842328832002 2.676148372813804 2.7493943175319884 8.040340660377973 -0.049656894125434566 4.350962084315299 9.39335975916747 1.3575537468681527 5.609249776070253 7.95891014765883 2.7464048910262813 8.50136284501674 8.108604597610967 0.087800111415669 9.953611366511458 9.351416762104108 1.3981990686306722 0.012038741349570514 0.06163125124279898 5.416864139873598 2.7529032581872204 2.6168349539304243 5.358585308997393 1.3660602360301406 1.432215034621902 6.683384132767179 4.313287317818013 1.2651324016822427 3.9151862892121043 5.695037325192997 -0.09241246460215728 5.325666095099605 7.158611921191143 1.2668374737627353 6.638344032120109 10.047788847134438 1.3511142135745742 3.975899510109482 8.581996325344088 2.7424719024968645 5.381346245155216 1.5145036337461355 3.9934919465233127 3.9485783941947163 -5.550364845352934e-06 5.304957683861592 5.370439778234097 1.4111724914202 6.661382486520201 6.650998863967514 7.200553808181536 4.050289940058779 3.911851630013016 4.350788912932124 6.7227506504693295 3.9251736157148325 4.17157651265943 4.081336460857744 6.714863582024083 5.662801916244157 5.404453524079389 5.320895001478539 7.180403763646968 6.650940030100154 6.61535220078472 9.961881410131033 6.635951824871763 4.079302807178407 10.007031408002042 4.098454896113782 6.773384408807546 1.4408358612997043 9.399445179183916 4.061321845225401 2.800811787386369 8.095020634688451 5.302597668729349 7.162345096586128 9.438367667698438 3.9746506780192776 4.182548473885724 9.283602404423586 6.742746394861197 8.523070321926914 8.053057656311644 5.387073111602651 10.040915275309953 9.278766926570315 6.655774397880457 -0.06909316174089147 2.628326429306243 8.061240004166663 2.903005104919007 -0.06871573693140746 7.924244788980693 4.265344376356824 1.2399770381301343 9.391170695272464 5.664804487880359 2.7168869407057255 8.106543192107404 8.605685282504055 0.09176640213415821 8.092783837655773 9.975917172751963 1.2441930952666642 9.362970401566194 1.331549177494705 3.940230645467306 9.292814899993903 2.7628583925738455 5.323343822448309 8.059325128295018 7.1938667286158555 3.9869758181948685 9.266251963917012 4.270862549086073 6.757934413224022 9.356734011625957 8.606543368909147 5.436831022368271 8.00852596908441 9.915464819002317 6.7583906532143105 9.308349261123077 -0.01911989681927179 8.10568621577528 8.101389123312009 1.4120450087738896 9.446720966790695 9.365978699312375 5.593998483548192 8.05270465310748 7.950207175581317 7.150712641943237 9.262638676402688 9.379388380778748
0.08015329609313493 0.06143453733872323 -0.026515109616279293 0.02416061828836522 2.796621688891741 2.7975601692379377 2.7469297625278686 -0.0500268610457311 2.861926214089163 2.6824763914724628 2.875819923713835 0.09768154444371403 1.3435711318618477 1.4976432963065984 1.3807433545731598 5.539797530034823 0.07212923386340335 -0.06339992963028719 5.556876988019612 2.846827623925792 2.7516951203281677 6.797257286809424 1.4041932038831921 1.3768468372347102 8.173807878186913 -0.002148887859842704 2.7351274602235778 8.291620876181788 2.7180900072483953 -0.01460005702304652 -0.04815432193329615 5.603295839819188 0.05300479514779707 2.7882240031555146 5.598825622481119 2.7658983405499367 1.316173917043843 6.951793717149821 1.4138421967476815 4.19726215327826 4.1478344163169085 1.3659962800164922 5.412278058635999 5.593853555817759 0.024901232931418 6.850580435714235 7.008575646977186 1.4309802406669205 9.557666235840854 4.258317540135539 1.456020753367032 8.215428210336501 5.671038866363734 2.874166252809347 0.0566227529488594 8.392628554149303 2.782568802388562 2.8276368615108085 8.32657346575392 -0.053265668365349995 4.177254503965938 9.815656583260816 1.3805996532245075 5.47886815820636 8.416669789778787 2.703143961593594 8.213489347524689 8.374585191733555 -0.09830388182287628 9.521767428157595 9.879551729846458 1.3708600179708688 -0.043443128487488734 -0.09555034290370543 5.542913638510592 2.753488071001349 2.8656591329691468 5.602736509954434 1.2988114779417084 1.4887470774300482 6.995176048912879 4.166737776034588 1.3832813414693526 4.235316481191297 5.421687180787738 0.02164252850198575 5.6794453952598785 6.802587501449425 1.3261832686749517 7.089378915324224 9.540763641054406 1.5049610111379559 4.164865236922154 8.144511594776722 2.735849283151807 5.503897616956576 1.361557013738134 4.180504365235453 4.276715734342957 -0.03248866414024533 5.7063971358970615 5.6385778370982305 1.3892471582283912 7.093269905687725 6.9041445607267855 6.888329674610135 4.249294200835181 4.169749977381333 4.17515093730067 7.087837994708679 4.234456483889364 4.1558407922268055 4.200801628035058 6.944798777655436 5.529067460870474 5.646409560599766 5.613930845014427 6.852228579643776 6.959290505969498 7.043569136163936 9.623570990517646 6.9417036716844684 4.168331755609636 9.506483131635967 4.164229634803116 6.960117341421742 1.3272002320654122 9.807163833555482 4.290883581925058 2.6624842176899963 8.354566488471336 5.623335545586208 6.927365593273965 9.871990828117383 4.12859722731236 4.129063703997984 9.829867541247513 7.004313243897169 8.207054843290045 8.389557766868107 5.583051635979085 9.589383334278336 9.902517416151033 6.914030108119055 -0.02795654468275814 2.792179106428414 8.444193019625608 2.7841992599982675 -0.0656494084341863 8.419908597098406 4.060845357607896 1.3465921763685091 9.777469607949023 5.478695716587978 2.882728642399029 8.289915251712786 8.206938776816134 0.07512817047027232 8.365447996749264 9.609104686288344 1.3177059944994716 9.760002156322873 1.4096781738217412 4.302123238179627 9.706713274662741 2.7862984050835773 5.578014351011337 8.337554459580916 6.77809747545415 4.163972077770532 9.70851838468081 4.184702655406071 7.053316509182501 9.799814062269425 8.299769848045347 5.6844660993027825 8.31521884842043 9.57978408418838 7.045866146952389 9.756655020294271 0.06398910515976053 8.35674190581093 8.33058715496127 1.3990940167960242 9.78152530216598 9.78032705399722 5.423606146489737 8.4664214074721 8.34928712200086 6.882275426251926 9.745019632633415 9.734050798151307
0.09637725382212277 0.05814376241065191 -0.05577896686285516 -0.07587972901912757 2.5724500708586944 2.789376666454561 2.709365871809754 0.0021213275600350284 2.7160093918091417 2.71301563729296 2.7195757469632067 0.05010819164790498 1.4681074575367605 1.280406037805181 1.4427360643120908 5.6528465028513875 0.018442700072950655 -0.014721923093314295 5.627939502270041 2.540587325126989 2.7451094521797175 7.093785863587126 1.4090957768364025 1.3671065662803852 8.364750753866879 -0.06762097926759905 2.6537142747738303 8.498548811974658 2.6485293083677934 -0.0425719556933916 -0.08729905394511847 5.330361881394883 -0.017185909302791753 2.710760176906334 5.334873929334744 2.6875416719067795 1.3036673751359158 6.561847761159107 1.415509354847348 4.1457187916093705 3.923815755430318 1.355777414683195 5.505223746271861 5.208814997171282 0.0794573558392929 7.095099012687784 6.662957987576654 1.4184039187018487 9.86672167786811 4.017771855374144 1.3659128968403866 8.469518635933902 5.224321428225162 2.7044333907243594 0.00910299754242449 7.960401148692105 2.779603004779182 2.8416569081599516 7.824085000377569 0.054137812278683535 4.128237564654756 9.143164124572124 1.2924396685336264 5.654058206957147 7.883996160032713 2.7933578189211095 8.496836645894055 7.803495047912553 -0.06798392691602163 9.778941323780519 9.215268972614336 1.3657607293480356 0.0922439338632235 0.01239206971042779 5.461538149967782 2.7956279324736655 2.605263018042637 5.359731334585251 1.4362864169696252 1.3888901881853994 6.858173099930546 4.16546675061671 1.3732158093066285 4.001562072355619 5.550858213644645 0.08083249910350265 5.376134990260697 6.897654364779297 1.2199560925104527 6.814575422622048 9.710940489365347 1.2507074519646906 4.067482157208715 8.427316390888594 2.585368527375996 5.507177126007005 1.3808557445892626 3.8990879743399627 4.005671721815708 0.028295263411030457 5.195299142350676 5.508666113098825 1.4999769662681266 6.51579060630757 6.825575441569115 7.071622386534538 3.9447754185434167 4.094502595183827 4.220951526994353 6.501902786505663 4.09778152285234 4.167978077823808 3.941987935516867 6.820712844813541 5.571196807955629 5.27210765665645 5.416576601061173 7.09153942053338 6.575903528785906 6.7063753182275505 9.740800260031067 6.621632678153931 4.105587151626645 9.880018862366374 3.8658072530128673 6.835216097584514 1.4639166520807512 9.259341187065647 4.095052652489511 2.8372406693819405 7.813427640079944 5.468557016448302 6.997436788930253 9.16230679510989 4.116670580902855 4.126719271231075 9.24268391890295 6.870045545833761 8.449309665783069 7.880956191685523 5.461145895987499 9.80035298070423 9.114255682525249 6.687135711361325 -0.08146258523849711 2.6042113715954995 8.209315605513389 2.7607951027245887 0.07560244603306561 8.15281525202013 4.1995252169047115 1.3580903605669312 9.50100232675153 5.629314645534251 2.6783022872045446 8.148058608925895 8.311332073885382 -0.08643451715524235 8.053210920193553 9.84705825635652 1.2404006404827776 9.567634780902152 1.3446601704086862 3.9980554570318843 9.422678900521905 2.8992539947647495 5.302799276280357 8.064451025628554 6.902398609040819 3.878245536554305 9.494629326738544 4.135449176625587 6.5057137368141 9.55467011055384 8.32102457956484 5.2393634666357185 8.14613678985583 9.832312662764396 6.515085000009705 9.552829447479697 -0.07682542180492427 7.849748329754231 8.068255212937329 1.33956763166467 9.20624262240139 9.41779601476735 5.6701586548145 7.835928139948923 8.227425791436387 7.005532099523331 9.225345842107807 9.436398772498922