-6851.968838466241
-6849.569607485449
-6851.868666015158
-6851.226124696396
-6852.371186940476
-6849.636567490125
-6852.5442766484475
-6852.50044223835
-6848.400587522672
-6849.692909748874
-6850.991785700823
-6851.536964960228
-6852.433832716298
-6851.993733072884
-6847.502891452078
-6851.615013195658
-6849.350379651621
-6851.748585579583
-6850.996603884507
-6850.276679512592
-6848.845268882843
-6851.6616973179325
-6848.354264903633
-6849.34622773867
-6850.516317517003
-6848.343526203104
-6849.827508954368
-6850.952018032043
-6852.682119450899
-6849.987841421355
-6850.986775540826
-6851.69949624309
-6850.908456007897
-6851.016365743869
-6849.4323134005535
-6850.399069514374
-6851.834809611353
-6844.708920163922
-6851.867769264003
-6848.440695877977
-6848.550100063151
-6849.654926194477
-6848.453258285453
-6847.256953059904
-6850.64312637541
-6850.831935147444
-6846.9055475616315
-6847.875551898344
-6848.297368076881
-6852.411487680265
-6851.103025021724
-6850.497392679809
-6848.22624132905
-6845.684198066828
-6845.599247255708
-6846.233816183226
-6850.691326988107
-6848.591040542575
-6847.239655055294
-6851.500257619735
-6852.268165593559
-6850.774793554293
-6849.1332738975625
-6848.45094994376
-6849.750080458205
-6849.835286784218
-6849.51578568113
-6849.578666427251
-6851.418340877916
-6849.374379275848
-6849.326420164183
-6849.228274144857
-6846.761746146399
-6848.741942904484
-6848.8888122671915
-6851.30188731164
-6852.558601673313
-6848.86098019166
-6848.947132385377
-6850.971544240821
-6849.808268329065
-6852.301235996541
-6850.764848881945
-6850.591003105673
-6848.045581005916
-6848.50407962653
-6849.614815798318
-6848.968500804841
-6850.48911973883
-6848.58687339125
-6849.164979105417
-6849.3291132748445
-6851.586215660227
-6851.602313234638
-6851.2457345801795
-6848.668267674498
-6849.930532614252
-6846.753678787424
-6847.2107839130695
-6847.934805094882
