An instance of this daemon is already running

     Program PWSCF v.7.1 starts on 10May2023 at 11:12:27 

     This program is part of the open-source Quantum ESPRESSO suite
     for quantum simulation of materials; please cite
         "P. Giannozzi et al., J. Phys.:Condens. Matter 21 395502 (2009);
         "P. Giannozzi et al., J. Phys.:Condens. Matter 29 465901 (2017);
         "P. Giannozzi et al., J. Chem. Phys. 152 154105 (2020);
          URL http://www.quantum-espresso.org", 
     in publications or presentations arising from this work. More details at
     http://www.quantum-espresso.org/quote

     Parallel version (MPI & OpenMP), running on       4 processor cores
     Number of MPI processes:                 4
     Threads/MPI process:                     1

     MPI processes distributed on     1 nodes
     753569 MiB available memory on the printing compute node when the environment starts
 
     Reading input from pw-si-12.in
Warning: card &CELL ignored
Warning: card / ignored

     Current dimensions of program PWSCF are:
     Max number of different atomic species (ntypx) = 10
     Max number of k-points (npk) =  40000
     Max angular momentum in pseudopotentials (lmaxx) =  4

     IMPORTANT: XC functional enforced from input :
     Exchange-correlation= PBE
                           (   1   4   3   4   0   0   0)
     Any further DFT definition will be discarded
     Please, verify this is what you really want


     gamma-point specific algorithms are used
 
     K-points division:     npool     =       2
     R & G space division:  proc/nbgrp/npool/nimage =       2
     Subspace diagonalization in iterative solution of the eigenvalue problem:
     a serial algorithm will be used

     Message from routine divide_et_impera:
     suboptimal parallelization: some nodes have no k-points
 
     Parallelization info
     --------------------
     sticks:   dense  smooth     PW     G-vecs:    dense   smooth      PW
     Min        2086    2086    551               101347   101347   13771
     Max        2087    2087    552               101350   101350   13776
     Sum        4173    4173   1103               202697   202697   27547
 
     Using Slab Decomposition
 


     bravais-lattice index     =            0
     lattice parameter (alat)  =      20.6546  a.u.
     unit-cell volume          =    9134.4328 (a.u.)^3
     number of atoms/cell      =           64
     number of atomic types    =            1
     number of electrons       =       256.00
     number of Kohn-Sham states=          154
     kinetic-energy cutoff     =      30.0000  Ry
     charge density cutoff     =     120.0000  Ry
     scf convergence threshold =      1.0E-06
     mixing beta               =       0.5000
     number of iterations used =            8  plain     mixing
     Exchange-correlation= PBE
                           (   1   4   3   4   0   0   0)

     GPU acceleration is ACTIVE.
     GPU-aware MPI enabled

     Message from routine print_cuda_info:
     High GPU oversubscription detected. Are you sure this is what you want?

     celldm(1)=  20.654616  celldm(2)=   0.000000  celldm(3)=   0.000000
     celldm(4)=   0.000000  celldm(5)=   0.000000  celldm(6)=   0.000000

     crystal axes: (cart. coord. in units of alat)
               a(1) = (   1.000000   0.000000   0.000000 )  
               a(2) = (   0.000000   1.027427   0.000000 )  
               a(3) = (   0.000000   0.000000   1.008972 )  

     reciprocal axes: (cart. coord. in units 2 pi/alat)
               b(1) = (  1.000000  0.000000  0.000000 )  
               b(2) = (  0.000000  0.973305  0.000000 )  
               b(3) = (  0.000000  0.000000  0.991107 )  


     PseudoPot. # 1 for Si read from file:
     /home/ppiaggi/pseudos/Si_ONCV_PBE_sr.upf
     MD5 check sum: 8553c464762ac42b85b1eed164b4d029
     Pseudo is Norm-conserving, Zval =  4.0
     Generated using ONCVPSP code by D. R. Hamann
     Using radial grid of 1510 points,  4 beta functions with: 
                l(1) =   0
                l(2) =   0
                l(3) =   1
                l(4) =   1

     atomic species   valence    mass     pseudopotential
        Si             4.00    28.08500     Si( 1.00)

     No symmetry found



   Cartesian axes

     site n.     atom                  positions (alat units)
         1           Si  tau(   1) = (   0.0034175   0.0031425  -0.0067803  )
         2           Si  tau(   2) = (   0.0057154   0.2614366   0.2470647  )
         3           Si  tau(   3) = (   0.2532852  -0.0092661   0.2543586  )
         4           Si  tau(   4) = (   0.2541716   0.2651916   0.0081637  )
         5           Si  tau(   5) = (   0.1176224   0.1318473   0.1276693  )
         6           Si  tau(   6) = (   0.5052936  -0.0049988  -0.0051379  )
         7           Si  tau(   7) = (   0.4973768   0.2661618   0.2531905  )
         8           Si  tau(   8) = (   0.6354110   0.1207252   0.1274452  )
         9           Si  tau(   9) = (   0.7508400  -0.0067480   0.2498043  )
        10           Si  tau(  10) = (   0.7499027   0.2598572  -0.0029110  )
        11           Si  tau(  11) = (  -0.0068407   0.5091802  -0.0036333  )
        12           Si  tau(  12) = (   0.2540133   0.5180753   0.2412186  )
        13           Si  tau(  13) = (   0.1330706   0.6384927   0.1232604  )
        14           Si  tau(  14) = (   0.3694066   0.3945927   0.1206305  )
        15           Si  tau(  15) = (   0.5102756   0.5176232   0.0041655  )
        16           Si  tau(  16) = (   0.6333713   0.6529256   0.1308914  )
        17           Si  tau(  17) = (   0.8820180   0.3791081   0.1301294  )
        18           Si  tau(  18) = (   0.7563268   0.5238117   0.2495517  )
        19           Si  tau(  19) = (   0.0025820   0.7756431   0.2520617  )
        20           Si  tau(  20) = (   0.2615547   0.7780653   0.0081012  )
        21           Si  tau(  21) = (   0.3831386   0.8961906   0.1235501  )
        22           Si  tau(  22) = (   0.5070075   0.7825572   0.2574194  )
        23           Si  tau(  23) = (   0.7633812   0.7804839   0.0037877  )
        24           Si  tau(  24) = (   0.8777846   0.9041206   0.1284395  )
        25           Si  tau(  25) = (  -0.0071705  -0.0003620   0.4928766  )
        26           Si  tau(  26) = (   0.2569692   0.2661398   0.5049191  )
        27           Si  tau(  27) = (   0.1244033   0.1279833   0.6268751  )
        28           Si  tau(  28) = (   0.3722296   0.1318386   0.3798830  )
        29           Si  tau(  29) = (   0.5093708  -0.0054433   0.4947379  )
        30           Si  tau(  30) = (   0.6323198   0.1208120   0.6344245  )
        31           Si  tau(  31) = (   0.8803334   0.1369235   0.3832881  )
        32           Si  tau(  32) = (   0.7520179   0.2493505   0.4964391  )
        33           Si  tau(  33) = (   0.1277230   0.3899782   0.3698065  )
        34           Si  tau(  34) = (  -0.0082002   0.5125182   0.5022193  )
        35           Si  tau(  35) = (   0.1278466   0.6483483   0.6303103  )
        36           Si  tau(  36) = (   0.6231977   0.3815470   0.3736602  )
        37           Si  tau(  37) = (   0.3853888   0.6388035   0.3676428  )
        38           Si  tau(  38) = (   0.3719562   0.3905860   0.6198534  )
        39           Si  tau(  39) = (   0.5012590   0.5099825   0.5019968  )
        40           Si  tau(  40) = (   0.6251741   0.6446715   0.6197482  )
        41           Si  tau(  41) = (   0.8907574   0.6446790   0.3779609  )
        42           Si  tau(  42) = (   0.8835589   0.3856764   0.6252466  )
        43           Si  tau(  43) = (   0.1249343   0.9066126   0.3690635  )
        44           Si  tau(  44) = (   0.2479002   0.7706198   0.5053553  )
        45           Si  tau(  45) = (   0.6234291   0.9056407   0.3793112  )
        46           Si  tau(  46) = (   0.3789752   0.8994038   0.6255158  )
        47           Si  tau(  47) = (   0.7551981   0.7820090   0.5079199  )
        48           Si  tau(  48) = (   0.8819066   0.9098203   0.6298023  )
        49           Si  tau(  49) = (   0.0052099   0.2649824   0.7560059  )
        50           Si  tau(  50) = (   0.2450938   0.0087717   0.7562359  )
        51           Si  tau(  51) = (   0.3774378   0.1362586   0.8764120  )
        52           Si  tau(  52) = (   0.5112666   0.2655490   0.7496180  )
        53           Si  tau(  53) = (   0.7503317  -0.0003694   0.7532607  )
        54           Si  tau(  54) = (   0.8789172   0.1379722   0.8673505  )
        55           Si  tau(  55) = (   0.1187016   0.3942122   0.8823329  )
        56           Si  tau(  56) = (   0.2530174   0.5210567   0.7439555  )
        57           Si  tau(  57) = (   0.6233094   0.3903809   0.8678968  )
        58           Si  tau(  58) = (   0.3721121   0.6354322   0.8789066  )
        59           Si  tau(  59) = (   0.7514637   0.5151601   0.7426037  )
        60           Si  tau(  60) = (   0.8767487   0.6531942   0.8809691  )
        61           Si  tau(  61) = (   0.0033524   0.7769243   0.7585222  )
        62           Si  tau(  62) = (   0.1203022   0.8932950   0.8754056  )
        63           Si  tau(  63) = (   0.5014006   0.7796971   0.7500315  )
        64           Si  tau(  64) = (   0.6320009   0.9102623   0.8766214  )

     number of k points=     1  Fermi-Dirac smearing, width (Ry)=  0.0100
                       cart. coord. in units 2pi/alat
        k(    1) = (   0.0000000   0.0000000   0.0000000), wk =   2.0000000

     Dense  grid:   101349 G-vectors     FFT dimensions: (  75,  75,  75)

     Estimated max dynamical RAM per process >     162.72 MB

     Estimated total dynamical RAM >     626.12 MB

     Initial potential from superposition of free atoms

     starting charge     255.9608, renormalised to     256.0000
     Starting wfcs are  256 randomized atomic wfcs

     total cpu time spent up to now is        4.9 secs

     Self-consistent Calculation

     iteration #  1     ecut=    30.00 Ry     beta= 0.50
     Davidson diagonalization with overlap
     ethr =  1.00E-02,  avg # of iterations =  3.0

     Threshold (ethr) on eigenvalues was too large:
     Diagonalizing with lowered threshold

     Davidson diagonalization with overlap
     ethr =  6.33E-04,  avg # of iterations =  4.0

     total cpu time spent up to now is        5.2 secs

     total energy              =    -503.62565468 Ry
     estimated scf accuracy    <       1.80113713 Ry

     iteration #  2     ecut=    30.00 Ry     beta= 0.50
     Davidson diagonalization with overlap
     ethr =  7.04E-04,  avg # of iterations =  1.0

     total cpu time spent up to now is        5.3 secs

     total energy              =    -503.61808929 Ry
     estimated scf accuracy    <       0.33553930 Ry

     iteration #  3     ecut=    30.00 Ry     beta= 0.50
     Davidson diagonalization with overlap
     ethr =  1.31E-04,  avg # of iterations = 13.0

     total cpu time spent up to now is        5.5 secs

     total energy              =    -503.63763971 Ry
     estimated scf accuracy    <       0.02207396 Ry

     iteration #  4     ecut=    30.00 Ry     beta= 0.50
     Davidson diagonalization with overlap
     ethr =  8.62E-06,  avg # of iterations = 19.0

     total cpu time spent up to now is        5.7 secs

     total energy              =    -503.64270215 Ry
     estimated scf accuracy    <       0.00862652 Ry

     iteration #  5     ecut=    30.00 Ry     beta= 0.50
     Davidson diagonalization with overlap
     ethr =  3.37E-06,  avg # of iterations =  9.0

     total cpu time spent up to now is        5.9 secs

     total energy              =    -503.64391062 Ry
     estimated scf accuracy    <       0.00467562 Ry

     iteration #  6     ecut=    30.00 Ry     beta= 0.50
     Davidson diagonalization with overlap
     ethr =  1.83E-06,  avg # of iterations =  5.0

     total cpu time spent up to now is        6.0 secs

     total energy              =    -503.64455112 Ry
     estimated scf accuracy    <       0.00040916 Ry

     iteration #  7     ecut=    30.00 Ry     beta= 0.50
     Davidson diagonalization with overlap
     ethr =  1.60E-07,  avg # of iterations =  5.0

     total cpu time spent up to now is        6.2 secs

     total energy              =    -503.64462469 Ry
     estimated scf accuracy    <       0.00005572 Ry

     iteration #  8     ecut=    30.00 Ry     beta= 0.50
     Davidson diagonalization with overlap
     ethr =  2.18E-08,  avg # of iterations =  5.0

     total cpu time spent up to now is        6.3 secs

     total energy              =    -503.64463592 Ry
     estimated scf accuracy    <       0.00003767 Ry

     iteration #  9     ecut=    30.00 Ry     beta= 0.50
     Davidson diagonalization with overlap
     ethr =  1.47E-08,  avg # of iterations =  3.0

     total cpu time spent up to now is        6.4 secs

     total energy              =    -503.64464045 Ry
     estimated scf accuracy    <       0.00000337 Ry

     iteration # 10     ecut=    30.00 Ry     beta= 0.50
     Davidson diagonalization with overlap
     ethr =  1.32E-09,  avg # of iterations =  5.0

     total cpu time spent up to now is        6.6 secs

     End of self-consistent calculation

          k = 0.0000 0.0000 0.0000 ( 12693 PWs)   bands (ev):

    -5.9684  -5.1259  -5.0501  -4.9729  -4.9133  -4.8307  -4.7657  -4.3080
    -4.2655  -4.2113  -4.0974  -4.0813  -4.0663  -3.9654  -3.9452  -3.8773
    -3.8698  -3.8209  -3.8021  -3.7775  -3.6952  -3.6387  -3.5118  -2.2295
    -2.1691  -2.1551  -2.1273  -2.0740  -2.0203  -1.9867  -1.9405  -1.8899
    -1.8659  -1.8224  -1.8183  -1.7317  -1.7054  -1.6747  -1.5948  -1.5569
    -1.5383  -1.1428  -1.0229  -0.9562  -0.9169  -0.0208   0.1069   0.1570
     0.1962   0.2373   0.3143   0.3211   0.3966   0.4020   0.4416   0.4864
     0.4913   1.7549   1.8055   1.8300   1.8776   1.8902   1.9144   1.9220
     1.9695   1.9802   1.9976   2.0179   2.0245   2.0480   2.0819   2.0939
     2.1258   2.1362   2.1584   2.1850   2.1907   2.2100   2.2304   2.2551
     2.2654   2.2908   2.3190   2.3529   2.4078   2.4167   2.4567   2.8519
     2.8638   2.9690   3.0181   3.0885   3.1070   3.6801   3.7391   3.7586
     3.7899   3.7964   3.8441   3.8598   3.8969   3.9768   3.9840   4.0718
     4.1124   4.1873   4.2614   4.2871   4.3012   4.3445   4.3780   4.3904
     4.4237   4.4357   4.4689   4.5105   4.5524   4.5623   4.6276   4.6507
     4.6675   4.7682   4.8077   4.8625   4.9248   5.6474   5.7844   5.8624
     6.2238   6.2954   6.4350   6.4898   6.5390   6.5563   6.6553   6.6711
     6.7721   6.8157   6.9106   6.9422   6.9895   7.0082   7.0200   7.0392
     7.7991   7.8355   7.8708   7.9137   7.9371   7.9543   7.9794   8.0579
     8.0813   8.0945

     the Fermi energy is     6.0210 ev

!    total energy              =    -503.64464127 Ry
     estimated scf accuracy    <       0.00000028 Ry
     smearing contrib. (-TS)   =      -0.05517878 Ry
     internal energy E=F+TS    =    -503.58946249 Ry

     The total energy is F=E-TS. E is the sum of the following terms:
     one-electron contribution =     137.06157898 Ry
     hartree contribution      =      38.21224640 Ry
     xc contribution           =    -152.55251091 Ry
     ewald contribution        =    -526.31077696 Ry

     convergence has been achieved in  10 iterations

     Forces acting on atoms (cartesian axes, Ry/au):

     atom    1 type  1   force =    -0.02171610    0.00643375   -0.00427172
     atom    2 type  1   force =    -0.00671951   -0.01794225    0.05143557
     atom    3 type  1   force =     0.01458531    0.06909463   -0.04107684
     atom    4 type  1   force =    -0.04332678   -0.03275556   -0.05602858
     atom    5 type  1   force =     0.06257040   -0.03220848   -0.02018404
     atom    6 type  1   force =    -0.01274061    0.04852311    0.00729296
     atom    7 type  1   force =    -0.01215166   -0.04767195   -0.03863412
     atom    8 type  1   force =    -0.04934616    0.03949696   -0.02194907
     atom    9 type  1   force =     0.02279358    0.04003783    0.03780295
     atom   10 type  1   force =     0.00787093   -0.00716571   -0.01255144
     atom   11 type  1   force =     0.01199397    0.04496074    0.01704811
     atom   12 type  1   force =    -0.00328111   -0.00194909    0.05127406
     atom   13 type  1   force =    -0.04798934    0.04088788   -0.02262680
     atom   14 type  1   force =     0.07134492   -0.01085385    0.01459806
     atom   15 type  1   force =    -0.02194653    0.00361323   -0.03126141
     atom   16 type  1   force =    -0.00480447    0.00588900   -0.02141251
     atom   17 type  1   force =    -0.05399328    0.04306968   -0.03420716
     atom   18 type  1   force =     0.00899241   -0.03890302    0.02352504
     atom   19 type  1   force =     0.02633191   -0.01821484   -0.02812754
     atom   20 type  1   force =    -0.05795310   -0.05698120   -0.06861489
     atom   21 type  1   force =     0.01574830    0.04000199    0.02675341
     atom   22 type  1   force =    -0.01029492   -0.04576082   -0.02418662
     atom   23 type  1   force =    -0.05064267   -0.00874665   -0.02821900
     atom   24 type  1   force =     0.03448590    0.00437501   -0.01124999
     atom   25 type  1   force =     0.05518193    0.01900703    0.02939541
     atom   26 type  1   force =    -0.06134016   -0.04502824   -0.03100167
     atom   27 type  1   force =    -0.00869709    0.02425328   -0.01807168
     atom   28 type  1   force =     0.02757334   -0.01254602   -0.01286060
     atom   29 type  1   force =    -0.06678011    0.07203009    0.06765906
     atom   30 type  1   force =    -0.03096843    0.03347461   -0.05552209
     atom   31 type  1   force =    -0.00679457   -0.03080811   -0.08011153
     atom   32 type  1   force =    -0.02218357    0.04457552    0.05377069
     atom   33 type  1   force =     0.00939455    0.00845387    0.02282111
     atom   34 type  1   force =     0.08363412    0.01238646   -0.00132196
     atom   35 type  1   force =    -0.04082470   -0.01350203   -0.01596245
     atom   36 type  1   force =     0.03806613    0.03370133    0.01320831
     atom   37 type  1   force =    -0.02934141    0.02104857    0.02957801
     atom   38 type  1   force =     0.04481211    0.00414255    0.05170120
     atom   39 type  1   force =     0.01188602    0.01866038   -0.02751209
     atom   40 type  1   force =     0.00063870    0.01288006    0.01796793
     atom   41 type  1   force =    -0.07015948    0.02906446   -0.00358226
     atom   42 type  1   force =    -0.05169572   -0.02513169    0.00413458
     atom   43 type  1   force =    -0.00944109   -0.04872566    0.05243753
     atom   44 type  1   force =     0.02485010    0.01255491   -0.04288699
     atom   45 type  1   force =     0.07184934   -0.03889628   -0.02086998
     atom   46 type  1   force =    -0.02502063    0.02798263   -0.00279418
     atom   47 type  1   force =     0.00542743   -0.02967737   -0.02539901
     atom   48 type  1   force =    -0.01464434   -0.03212775    0.00999319
     atom   49 type  1   force =     0.01113483   -0.01199279   -0.02937209
     atom   50 type  1   force =     0.02474889   -0.03577640   -0.00795777
     atom   51 type  1   force =     0.00726115    0.00133234    0.02614478
     atom   52 type  1   force =    -0.06179763   -0.04016517   -0.02743773
     atom   53 type  1   force =     0.05314780    0.02402644    0.00872083
     atom   54 type  1   force =    -0.02025403   -0.02579709    0.05080749
     atom   55 type  1   force =     0.05961027   -0.01474478   -0.01167627
     atom   56 type  1   force =    -0.02303885   -0.03175435    0.04029694
     atom   57 type  1   force =     0.04272188    0.02430665    0.06694422
     atom   58 type  1   force =     0.04538031    0.05124323    0.02049537
     atom   59 type  1   force =     0.01165201    0.02254189    0.02324708
     atom   60 type  1   force =    -0.01282505   -0.04318610   -0.00665580
     atom   61 type  1   force =    -0.02701873   -0.03418751   -0.04948868
     atom   62 type  1   force =     0.07328122    0.05809716    0.06553695
     atom   63 type  1   force =     0.01086119   -0.04164157    0.02666622
     atom   64 type  1   force =    -0.01009916   -0.06730498    0.02382951

     Total force =     0.494310     Total SCF correction =     0.000760


     Computing stress (Cartesian axis) and pressure

          total   stress  (Ry/bohr**3)                   (kbar)     P=      -11.57
  -0.00002416   0.00002007   0.00001406           -3.55        2.95        2.07
   0.00002007  -0.00015267   0.00002142            2.95      -22.46        3.15
   0.00001406   0.00002142  -0.00005917            2.07        3.15       -8.70

 
     init_run     :      0.97s CPU      4.84s WALL (       1 calls)
     electrons    :      1.56s CPU      1.65s WALL (       1 calls)
     forces       :      0.04s CPU      0.05s WALL (       1 calls)
     stress       :      0.17s CPU      0.17s WALL (       1 calls)

     Called by init_run:
     wfcinit      :      0.55s CPU      4.25s WALL (       1 calls)
                                        4.25s GPU  (       1 calls)
     potinit      :      0.21s CPU      0.29s WALL (       1 calls)
     hinit0       :      0.19s CPU      0.22s WALL (       1 calls)

     Called by electrons:
     c_bands      :      1.04s CPU      1.08s WALL (      11 calls)
     sum_band     :      0.28s CPU      0.31s WALL (      11 calls)
     v_of_rho     :      0.14s CPU      0.22s WALL (      11 calls)
     mix_rho      :      0.09s CPU      0.10s WALL (      11 calls)

     Called by c_bands:
     init_us_2    :      0.04s CPU      0.04s WALL (      23 calls)
     init_us_2:gp :      0.04s CPU      0.04s WALL (      23 calls)
     regterg      :      0.94s CPU      0.97s WALL (      11 calls)

     Called by *egterg:
     rdiaghg      :      0.37s CPU      1.13s WALL (      82 calls)
                                        1.11s GPU  (      82 calls)
     h_psi        :      0.96s CPU      3.92s WALL (      84 calls)
                                        3.92s GPU  (      84 calls)
     g_psi        :      0.00s CPU      0.00s WALL (      72 calls)
                                        0.00s GPU  (      72 calls)

     Called by h_psi:
     h_psi:calbec :      0.49s CPU      3.38s WALL (      84 calls)
                                        3.38s GPU  (      84 calls)
     vloc_psi     :      0.42s CPU      0.49s WALL (      84 calls)
                                        0.48s GPU  (      84 calls)
     add_vuspsi   :      0.03s CPU      0.05s WALL (      84 calls)
                                        0.05s GPU  (      84 calls)

     General routines
     calbec       :      0.50s CPU      3.39s WALL (      89 calls)
     fft          :      0.28s CPU      0.39s WALL (      95 calls)
                                        0.11s GPU  (      61 calls)
     ffts         :      0.04s CPU      0.04s WALL (      11 calls)
     fftw         :      0.45s CPU      0.60s WALL (    1239 calls)
                                        0.54s GPU  (    1239 calls)
 
     Parallel routines
 
     PWSCF        :      2.78s CPU      6.80s WALL

 
   This run was terminated on:  11:12:34  10May2023            

=------------------------------------------------------------------------------=
   JOB DONE.
=------------------------------------------------------------------------------=
