An instance of this daemon is already running
An instance of this daemon is already running

     Program PWSCF v.7.1 starts on 10May2023 at 11:14:57 

     This program is part of the open-source Quantum ESPRESSO suite
     for quantum simulation of materials; please cite
         "P. Giannozzi et al., J. Phys.:Condens. Matter 21 395502 (2009);
         "P. Giannozzi et al., J. Phys.:Condens. Matter 29 465901 (2017);
         "P. Giannozzi et al., J. Chem. Phys. 152 154105 (2020);
          URL http://www.quantum-espresso.org", 
     in publications or presentations arising from this work. More details at
     http://www.quantum-espresso.org/quote

     Parallel version (MPI & OpenMP), running on       4 processor cores
     Number of MPI processes:                 4
     Threads/MPI process:                     1

     MPI processes distributed on     1 nodes
     753570 MiB available memory on the printing compute node when the environment starts
 
     Reading input from pw-si-28.in
Warning: card &CELL ignored
Warning: card / ignored

     Current dimensions of program PWSCF are:
     Max number of different atomic species (ntypx) = 10
     Max number of k-points (npk) =  40000
     Max angular momentum in pseudopotentials (lmaxx) =  4

     IMPORTANT: XC functional enforced from input :
     Exchange-correlation= PBE
                           (   1   4   3   4   0   0   0)
     Any further DFT definition will be discarded
     Please, verify this is what you really want


     gamma-point specific algorithms are used
 
     K-points division:     npool     =       2
     R & G space division:  proc/nbgrp/npool/nimage =       2
     Subspace diagonalization in iterative solution of the eigenvalue problem:
     a serial algorithm will be used

     Message from routine divide_et_impera:
     suboptimal parallelization: some nodes have no k-points
 
     Parallelization info
     --------------------
     sticks:   dense  smooth     PW     G-vecs:    dense   smooth      PW
     Min        2098    2098    549               103478   103478   14023
     Max        2099    2099    552               103479   103479   14028
     Sum        4197    4197   1101               206957   206957   28051
 
     Using Slab Decomposition
 


     bravais-lattice index     =            0
     lattice parameter (alat)  =      20.8090  a.u.
     unit-cell volume          =    9322.8677 (a.u.)^3
     number of atoms/cell      =           64
     number of atomic types    =            1
     number of electrons       =       256.00
     number of Kohn-Sham states=          154
     kinetic-energy cutoff     =      30.0000  Ry
     charge density cutoff     =     120.0000  Ry
     scf convergence threshold =      1.0E-06
     mixing beta               =       0.5000
     number of iterations used =            8  plain     mixing
     Exchange-correlation= PBE
                           (   1   4   3   4   0   0   0)

     GPU acceleration is ACTIVE.
     GPU-aware MPI enabled

     Message from routine print_cuda_info:
     High GPU oversubscription detected. Are you sure this is what you want?

     celldm(1)=  20.809040  celldm(2)=   0.000000  celldm(3)=   0.000000
     celldm(4)=   0.000000  celldm(5)=   0.000000  celldm(6)=   0.000000

     crystal axes: (cart. coord. in units of alat)
               a(1) = (   1.000000   0.000000   0.000000 )  
               a(2) = (   0.000000   1.014885   0.000000 )  
               a(3) = (   0.000000   0.000000   1.019475 )  

     reciprocal axes: (cart. coord. in units 2 pi/alat)
               b(1) = (  1.000000  0.000000  0.000000 )  
               b(2) = (  0.000000  0.985333  0.000000 )  
               b(3) = (  0.000000  0.000000  0.980897 )  


     PseudoPot. # 1 for Si read from file:
     /home/ppiaggi/pseudos/Si_ONCV_PBE_sr.upf
     MD5 check sum: 8553c464762ac42b85b1eed164b4d029
     Pseudo is Norm-conserving, Zval =  4.0
     Generated using ONCVPSP code by D. R. Hamann
     Using radial grid of 1510 points,  4 beta functions with: 
                l(1) =   0
                l(2) =   0
                l(3) =   1
                l(4) =   1

     atomic species   valence    mass     pseudopotential
        Si             4.00    28.08500     Si( 1.00)

     No symmetry found



   Cartesian axes

     site n.     atom                  positions (alat units)
         1           Si  tau(   1) = (   0.0049265   0.0055572  -0.0041972  )
         2           Si  tau(   2) = (   0.0000258   0.2564901   0.2597244  )
         3           Si  tau(   3) = (   0.2489627   0.0055905   0.2518517  )
         4           Si  tau(   4) = (   0.2576206   0.2626505   0.0055442  )
         5           Si  tau(   5) = (   0.1318313   0.1351028   0.1231986  )
         6           Si  tau(   6) = (   0.5020384   0.0025247   0.0067406  )
         7           Si  tau(   7) = (   0.5062965   0.2564619   0.2582195  )
         8           Si  tau(   8) = (   0.6339350   0.1233313   0.1280205  )
         9           Si  tau(   9) = (   0.7602708   0.0088370   0.2513252  )
        10           Si  tau(  10) = (   0.7537452   0.2639913  -0.0016760  )
        11           Si  tau(  11) = (  -0.0014675   0.5040805  -0.0066898  )
        12           Si  tau(  12) = (   0.2542420   0.5112677   0.2514167  )
        13           Si  tau(  13) = (   0.1238547   0.6502360   0.1189668  )
        14           Si  tau(  14) = (   0.3841219   0.3886411   0.1232122  )
        15           Si  tau(  15) = (   0.5009181   0.5170129  -0.0077268  )
        16           Si  tau(  16) = (   0.6260452   0.6391237   0.1182122  )
        17           Si  tau(  17) = (   0.8853403   0.3762553   0.1240590  )
        18           Si  tau(  18) = (   0.7610465   0.5114333   0.2516668  )
        19           Si  tau(  19) = (  -0.0086163   0.7750540   0.2511216  )
        20           Si  tau(  20) = (   0.2448481   0.7689926  -0.0089417  )
        21           Si  tau(  21) = (   0.3740377   0.9011347   0.1355696  )
        22           Si  tau(  22) = (   0.5034494   0.7727146   0.2576627  )
        23           Si  tau(  23) = (   0.7559249   0.7714988  -0.0058443  )
        24           Si  tau(  24) = (   0.8818333   0.8932967   0.1290911  )
        25           Si  tau(  25) = (   0.0029130  -0.0027787   0.5024364  )
        26           Si  tau(  26) = (   0.2441317   0.2613086   0.5067436  )
        27           Si  tau(  27) = (   0.1227240   0.1288085   0.6376236  )
        28           Si  tau(  28) = (   0.3722084   0.1190716   0.3862673  )
        29           Si  tau(  29) = (   0.5034211   0.0048173   0.5156889  )
        30           Si  tau(  30) = (   0.6261262   0.1364176   0.6405173  )
        31           Si  tau(  31) = (   0.8783997   0.1275269   0.3731893  )
        32           Si  tau(  32) = (   0.7628493   0.2540554   0.5063705  )
        33           Si  tau(  33) = (   0.1248374   0.3848192   0.3778050  )
        34           Si  tau(  34) = (  -0.0020407   0.5187766   0.5044223  )
        35           Si  tau(  35) = (   0.1177766   0.6350012   0.6406606  )
        36           Si  tau(  36) = (   0.6264852   0.3869706   0.3750695  )
        37           Si  tau(  37) = (   0.3732176   0.6490342   0.3772231  )
        38           Si  tau(  38) = (   0.3745128   0.3897445   0.6377229  )
        39           Si  tau(  39) = (   0.5119948   0.5205777   0.4998517  )
        40           Si  tau(  40) = (   0.6364008   0.6338595   0.6402696  )
        41           Si  tau(  41) = (   0.8860006   0.6357317   0.3760214  )
        42           Si  tau(  42) = (   0.8922946   0.3854779   0.6283302  )
        43           Si  tau(  43) = (   0.1264998   0.8881369   0.3840764  )
        44           Si  tau(  44) = (   0.2462300   0.7688844   0.5165005  )
        45           Si  tau(  45) = (   0.6288906   0.8971626   0.3783582  )
        46           Si  tau(  46) = (   0.3730447   0.8901949   0.6432845  )
        47           Si  tau(  47) = (   0.7649029   0.7684716   0.5107814  )
        48           Si  tau(  48) = (   0.8775294   0.8988783   0.6263749  )
        49           Si  tau(  49) = (   0.0051694   0.2513348   0.7558857  )
        50           Si  tau(  50) = (   0.2590918  -0.0065348   0.7549186  )
        51           Si  tau(  51) = (   0.3741641   0.1230455   0.8853502  )
        52           Si  tau(  52) = (   0.5111161   0.2586544   0.7570658  )
        53           Si  tau(  53) = (   0.7515904  -0.0003227   0.7526225  )
        54           Si  tau(  54) = (   0.8825611   0.1248373   0.8807013  )
        55           Si  tau(  55) = (   0.1192470   0.3805749   0.8934813  )
        56           Si  tau(  56) = (   0.2597902   0.5188368   0.7625482  )
        57           Si  tau(  57) = (   0.6240138   0.3878749   0.8863003  )
        58           Si  tau(  58) = (   0.3864023   0.6346353   0.8896812  )
        59           Si  tau(  59) = (   0.7626071   0.5182587   0.7585957  )
        60           Si  tau(  60) = (   0.8922673   0.6458406   0.8806280  )
        61           Si  tau(  61) = (   0.0042805   0.7656737   0.7659641  )
        62           Si  tau(  62) = (   0.1356281   0.8950843   0.8953902  )
        63           Si  tau(  63) = (   0.5151386   0.7638790   0.7689606  )
        64           Si  tau(  64) = (   0.6271555   0.9046023   0.8971174  )

     number of k points=     1  Fermi-Dirac smearing, width (Ry)=  0.0100
                       cart. coord. in units 2pi/alat
        k(    1) = (   0.0000000   0.0000000   0.0000000), wk =   2.0000000

     Dense  grid:   103479 G-vectors     FFT dimensions: (  75,  75,  75)

     Estimated max dynamical RAM per process >     165.72 MB

     Estimated total dynamical RAM >     637.62 MB

     Initial potential from superposition of free atoms

     starting charge     255.9608, renormalised to     256.0000
     Starting wfcs are  256 randomized atomic wfcs

     total cpu time spent up to now is        4.9 secs

     Self-consistent Calculation

     iteration #  1     ecut=    30.00 Ry     beta= 0.50
     Davidson diagonalization with overlap
     ethr =  1.00E-02,  avg # of iterations =  3.0

     Threshold (ethr) on eigenvalues was too large:
     Diagonalizing with lowered threshold

     Davidson diagonalization with overlap
     ethr =  6.10E-04,  avg # of iterations =  4.0

     total cpu time spent up to now is        5.2 secs

     total energy              =    -503.64858150 Ry
     estimated scf accuracy    <       1.73872647 Ry

     iteration #  2     ecut=    30.00 Ry     beta= 0.50
     Davidson diagonalization with overlap
     ethr =  6.79E-04,  avg # of iterations =  1.0

     total cpu time spent up to now is        5.3 secs

     total energy              =    -503.63851010 Ry
     estimated scf accuracy    <       0.32988627 Ry

     iteration #  3     ecut=    30.00 Ry     beta= 0.50
     Davidson diagonalization with overlap
     ethr =  1.29E-04,  avg # of iterations =  5.0

     total cpu time spent up to now is        5.5 secs

     total energy              =    -503.65616071 Ry
     estimated scf accuracy    <       0.01911657 Ry

     iteration #  4     ecut=    30.00 Ry     beta= 0.50
     Davidson diagonalization with overlap
     c_bands:  1 eigenvalues not converged
     ethr =  7.47E-06,  avg # of iterations = 20.0

     total cpu time spent up to now is        5.7 secs

     total energy              =    -503.66018298 Ry
     estimated scf accuracy    <       0.01345380 Ry

     iteration #  5     ecut=    30.00 Ry     beta= 0.50
     Davidson diagonalization with overlap
     ethr =  5.26E-06,  avg # of iterations =  5.0

     total cpu time spent up to now is        5.9 secs

     total energy              =    -503.66246135 Ry
     estimated scf accuracy    <       0.00295054 Ry

     iteration #  6     ecut=    30.00 Ry     beta= 0.50
     Davidson diagonalization with overlap
     ethr =  1.15E-06,  avg # of iterations =  4.0

     total cpu time spent up to now is        6.0 secs

     total energy              =    -503.66279473 Ry
     estimated scf accuracy    <       0.00051654 Ry

     iteration #  7     ecut=    30.00 Ry     beta= 0.50
     Davidson diagonalization with overlap
     ethr =  2.02E-07,  avg # of iterations =  4.0

     total cpu time spent up to now is        6.1 secs

     total energy              =    -503.66287713 Ry
     estimated scf accuracy    <       0.00002985 Ry

     iteration #  8     ecut=    30.00 Ry     beta= 0.50
     Davidson diagonalization with overlap
     ethr =  1.17E-08,  avg # of iterations =  5.0

     total cpu time spent up to now is        6.3 secs

     total energy              =    -503.66288611 Ry
     estimated scf accuracy    <       0.00003089 Ry

     iteration #  9     ecut=    30.00 Ry     beta= 0.50
     Davidson diagonalization with overlap
     ethr =  1.17E-08,  avg # of iterations =  3.0

     total cpu time spent up to now is        6.4 secs

     total energy              =    -503.66288948 Ry
     estimated scf accuracy    <       0.00000258 Ry

     iteration # 10     ecut=    30.00 Ry     beta= 0.50
     Davidson diagonalization with overlap
     ethr =  1.01E-09,  avg # of iterations =  5.0

     total cpu time spent up to now is        6.5 secs

     End of self-consistent calculation

          k = 0.0000 0.0000 0.0000 ( 12933 PWs)   bands (ev):

    -6.0326  -5.1513  -5.1013  -5.0594  -4.9859  -4.9306  -4.9069  -4.3625
    -4.3040  -4.2763  -4.2142  -4.1695  -4.1458  -4.0987  -4.0697  -4.0323
    -3.9846  -3.9208  -3.9046  -3.8325  -3.7914  -3.7598  -3.6604  -2.4085
    -2.3760  -2.2728  -2.1903  -2.1248  -2.0910  -2.0745  -2.0572  -2.0225
    -1.9847  -1.9647  -1.9203  -1.8909  -1.8490  -1.8209  -1.8042  -1.7859
    -1.7420  -1.2257  -1.1442  -1.0930  -1.0845  -0.0248  -0.0139   0.0008
     0.0455   0.0538   0.0975   0.1656   0.1807   0.2053   0.2517   0.2902
     0.3395   1.6472   1.7010   1.7334   1.7413   1.7624   1.7870   1.8218
     1.8281   1.8609   1.8775   1.8890   1.8904   1.9198   1.9265   1.9591
     1.9756   1.9977   2.0197   2.0342   2.0616   2.0787   2.0932   2.1211
     2.1310   2.1396   2.1687   2.1859   2.2188   2.2547   2.2797   2.7245
     2.7475   2.8441   2.8543   2.9064   2.9330   3.5534   3.5813   3.6094
     3.6524   3.6796   3.7025   3.7240   3.7592   3.8142   3.8513   3.8718
     3.8836   3.9456   4.0550   4.1142   4.1504   4.1756   4.1875   4.2035
     4.2873   4.3154   4.3205   4.3503   4.3868   4.4147   4.4237   4.4798
     4.5322   4.5539   4.5647   4.5971   4.6312   5.4693   5.5596   5.6389
     6.1125   6.1343   6.2648   6.2665   6.3370   6.3770   6.5379   6.5739
     6.6043   6.6623   6.6894   6.7051   6.7142   6.7536   6.7784   6.8061
     7.5892   7.6553   7.6869   7.7126   7.7476   7.7811   7.8164   7.8511
     7.8812   7.9024

     the Fermi energy is     5.8371 ev

!    total energy              =    -503.66289001 Ry
     estimated scf accuracy    <       0.00000033 Ry
     smearing contrib. (-TS)   =      -0.04976624 Ry
     internal energy E=F+TS    =    -503.61312377 Ry

     The total energy is F=E-TS. E is the sum of the following terms:
     one-electron contribution =     132.30800365 Ry
     hartree contribution      =      38.81984670 Ry
     xc contribution           =    -151.90530750 Ry
     ewald contribution        =    -522.83566663 Ry

     convergence has been achieved in  10 iterations

     Forces acting on atoms (cartesian axes, Ry/au):

     atom    1 type  1   force =     0.01017486    0.00361445    0.01042173
     atom    2 type  1   force =     0.03163930   -0.00458282   -0.03913827
     atom    3 type  1   force =    -0.01860024    0.00047406    0.02608644
     atom    4 type  1   force =    -0.01110446   -0.01436095   -0.04739887
     atom    5 type  1   force =    -0.02438816   -0.00183895    0.01904906
     atom    6 type  1   force =    -0.01775801    0.02513071   -0.01490848
     atom    7 type  1   force =    -0.02092624   -0.02457078   -0.02041189
     atom    8 type  1   force =    -0.01651838    0.05389678   -0.01176155
     atom    9 type  1   force =    -0.02640174   -0.03958576   -0.00380203
     atom   10 type  1   force =    -0.00603582   -0.04275127   -0.02153772
     atom   11 type  1   force =     0.01363259    0.04819705    0.01721921
     atom   12 type  1   force =    -0.01164893    0.02484850   -0.01360083
     atom   13 type  1   force =    -0.01630485   -0.04785834    0.02037381
     atom   14 type  1   force =     0.00466922   -0.00534244    0.02438461
     atom   15 type  1   force =     0.02550597   -0.03749977    0.02757827
     atom   16 type  1   force =     0.02241396    0.01806816    0.02858417
     atom   17 type  1   force =    -0.02662898    0.02972885    0.01322866
     atom   18 type  1   force =    -0.02522427   -0.01010927   -0.02595079
     atom   19 type  1   force =     0.07472760   -0.05011470    0.02599097
     atom   20 type  1   force =     0.07996588   -0.02233007    0.04255906
     atom   21 type  1   force =     0.00758258   -0.04923967   -0.03867479
     atom   22 type  1   force =    -0.00410624   -0.01287544   -0.03151073
     atom   23 type  1   force =     0.00806309   -0.01288108    0.00281375
     atom   24 type  1   force =    -0.03765971    0.03460522   -0.04950370
     atom   25 type  1   force =     0.00460252    0.04951173    0.00376068
     atom   26 type  1   force =     0.02588478   -0.01965790    0.01653346
     atom   27 type  1   force =     0.03639729   -0.03008345   -0.03897163
     atom   28 type  1   force =     0.01023885    0.05312041   -0.00272725
     atom   29 type  1   force =    -0.00847587   -0.01143095   -0.00608650
     atom   30 type  1   force =     0.04325681   -0.02736654   -0.04966984
     atom   31 type  1   force =     0.01379694    0.00364726    0.04696541
     atom   32 type  1   force =    -0.03264945    0.02070980   -0.00219292
     atom   33 type  1   force =     0.00086266    0.02457887    0.00841886
     atom   34 type  1   force =     0.05264013   -0.03241558   -0.00096881
     atom   35 type  1   force =     0.03855935    0.01548936   -0.01165818
     atom   36 type  1   force =     0.04149902   -0.00376737    0.02261922
     atom   37 type  1   force =     0.00888052   -0.02155186    0.02468279
     atom   38 type  1   force =     0.03155392   -0.00917492   -0.03810179
     atom   39 type  1   force =    -0.04211053   -0.00993227    0.02360910
     atom   40 type  1   force =    -0.00634142    0.04057290   -0.03813850
     atom   41 type  1   force =    -0.04623503    0.03834204   -0.00188914
     atom   42 type  1   force =    -0.04860951   -0.00953171    0.01750785
     atom   43 type  1   force =     0.00117090    0.00707123   -0.02890467
     atom   44 type  1   force =     0.00608670   -0.02748409   -0.01011313
     atom   45 type  1   force =     0.02541378   -0.00087409    0.03014147
     atom   46 type  1   force =     0.07925362   -0.05072053   -0.04702978
     atom   47 type  1   force =    -0.04702252   -0.03060074   -0.03654864
     atom   48 type  1   force =     0.02246476   -0.03116078    0.04240686
     atom   49 type  1   force =    -0.00651220    0.02797557    0.03356788
     atom   50 type  1   force =    -0.06458828    0.06906216    0.05580094
     atom   51 type  1   force =     0.03005403    0.03230332    0.01860523
     atom   52 type  1   force =    -0.06942492    0.01883122    0.03828266
     atom   53 type  1   force =    -0.00630778    0.02838710    0.03579605
     atom   54 type  1   force =    -0.03365691    0.01755897    0.01542457
     atom   55 type  1   force =     0.05601136   -0.00179433   -0.02560959
     atom   56 type  1   force =    -0.04598058   -0.03005908    0.01464531
     atom   57 type  1   force =     0.03896315    0.01264166    0.00395810
     atom   58 type  1   force =    -0.04251747    0.05795653   -0.01347025
     atom   59 type  1   force =     0.01114214   -0.04468539    0.01901449
     atom   60 type  1   force =    -0.07581437   -0.04604403    0.06280397
     atom   61 type  1   force =     0.03240482    0.07003502   -0.03922952
     atom   62 type  1   force =    -0.04400684    0.01513691   -0.05349022
     atom   63 type  1   force =    -0.02397704    0.01066008   -0.00526106
     atom   64 type  1   force =     0.01802364   -0.03787903   -0.02457352

     Total force =     0.444602     Total SCF correction =     0.000969


     Computing stress (Cartesian axis) and pressure

          total   stress  (Ry/bohr**3)                   (kbar)     P=      -28.25
  -0.00014413  -0.00001697   0.00001035          -21.20       -2.50        1.52
  -0.00001697  -0.00020351   0.00000830           -2.50      -29.94        1.22
   0.00001035   0.00000830  -0.00022840            1.52        1.22      -33.60

 
     init_run     :      0.97s CPU      4.84s WALL (       1 calls)
     electrons    :      1.49s CPU      1.61s WALL (       1 calls)
     forces       :      0.04s CPU      0.05s WALL (       1 calls)
     stress       :      0.17s CPU      0.18s WALL (       1 calls)

     Called by init_run:
     wfcinit      :      0.56s CPU      4.25s WALL (       1 calls)
                                        4.25s GPU  (       1 calls)
     potinit      :      0.21s CPU      0.29s WALL (       1 calls)
     hinit0       :      0.19s CPU      0.22s WALL (       1 calls)

     Called by electrons:
     c_bands      :      0.98s CPU      1.03s WALL (      11 calls)
     sum_band     :      0.28s CPU      0.31s WALL (      11 calls)
     v_of_rho     :      0.13s CPU      0.22s WALL (      11 calls)
     mix_rho      :      0.09s CPU      0.11s WALL (      11 calls)

     Called by c_bands:
     init_us_2    :      0.04s CPU      0.04s WALL (      23 calls)
     init_us_2:gp :      0.04s CPU      0.04s WALL (      23 calls)
     regterg      :      0.88s CPU      0.92s WALL (      11 calls)

     Called by *egterg:
     rdiaghg      :      0.35s CPU      1.09s WALL (      69 calls)
                                        1.07s GPU  (      69 calls)
     h_psi        :      0.94s CPU      3.92s WALL (      71 calls)
                                        3.92s GPU  (      71 calls)
     g_psi        :      0.00s CPU      0.00s WALL (      59 calls)
                                        0.00s GPU  (      59 calls)

     Called by h_psi:
     h_psi:calbec :      0.48s CPU      3.38s WALL (      71 calls)
                                        3.38s GPU  (      71 calls)
     vloc_psi     :      0.41s CPU      0.49s WALL (      71 calls)
                                        0.48s GPU  (      71 calls)
     add_vuspsi   :      0.03s CPU      0.04s WALL (      71 calls)
                                        0.04s GPU  (      71 calls)

     General routines
     calbec       :      0.49s CPU      3.39s WALL (      76 calls)
     fft          :      0.27s CPU      0.39s WALL (      95 calls)
                                        0.11s GPU  (      61 calls)
     ffts         :      0.04s CPU      0.04s WALL (      11 calls)
     fftw         :      0.44s CPU      0.59s WALL (    1215 calls)
                                        0.54s GPU  (    1215 calls)
 
     Parallel routines
 
     PWSCF        :      2.72s CPU      6.77s WALL

 
   This run was terminated on:  11:15: 4  10May2023            

=------------------------------------------------------------------------------=
   JOB DONE.
=------------------------------------------------------------------------------=
