An instance of this daemon is already running

     Program PWSCF v.7.1 starts on 10May2023 at 11:19:48 

     This program is part of the open-source Quantum ESPRESSO suite
     for quantum simulation of materials; please cite
         "P. Giannozzi et al., J. Phys.:Condens. Matter 21 395502 (2009);
         "P. Giannozzi et al., J. Phys.:Condens. Matter 29 465901 (2017);
         "P. Giannozzi et al., J. Chem. Phys. 152 154105 (2020);
          URL http://www.quantum-espresso.org", 
     in publications or presentations arising from this work. More details at
     http://www.quantum-espresso.org/quote

     Parallel version (MPI & OpenMP), running on       4 processor cores
     Number of MPI processes:                 4
     Threads/MPI process:                     1

     MPI processes distributed on     1 nodes
     753548 MiB available memory on the printing compute node when the environment starts
 
     Reading input from pw-si-59.in
Warning: card &CELL ignored
Warning: card / ignored

     Current dimensions of program PWSCF are:
     Max number of different atomic species (ntypx) = 10
     Max number of k-points (npk) =  40000
     Max angular momentum in pseudopotentials (lmaxx) =  4

     IMPORTANT: XC functional enforced from input :
     Exchange-correlation= PBE
                           (   1   4   3   4   0   0   0)
     Any further DFT definition will be discarded
     Please, verify this is what you really want


     gamma-point specific algorithms are used
 
     K-points division:     npool     =       2
     R & G space division:  proc/nbgrp/npool/nimage =       2
     Subspace diagonalization in iterative solution of the eigenvalue problem:
     a serial algorithm will be used

     Message from routine divide_et_impera:
     suboptimal parallelization: some nodes have no k-points
 
     Parallelization info
     --------------------
     sticks:   dense  smooth     PW     G-vecs:    dense   smooth      PW
     Min        2055    2055    546               100815   100815   13698
     Max        2056    2056    547               100816   100816   13699
     Sum        4111    4111   1093               201631   201631   27397
 
     Using Slab Decomposition
 


     bravais-lattice index     =            0
     lattice parameter (alat)  =      20.6030  a.u.
     unit-cell volume          =    9082.3574 (a.u.)^3
     number of atoms/cell      =           64
     number of atomic types    =            1
     number of electrons       =       256.00
     number of Kohn-Sham states=          154
     kinetic-energy cutoff     =      30.0000  Ry
     charge density cutoff     =     120.0000  Ry
     scf convergence threshold =      1.0E-06
     mixing beta               =       0.5000
     number of iterations used =            8  plain     mixing
     Exchange-correlation= PBE
                           (   1   4   3   4   0   0   0)

     GPU acceleration is ACTIVE.
     GPU-aware MPI enabled

     Message from routine print_cuda_info:
     High GPU oversubscription detected. Are you sure this is what you want?

     celldm(1)=  20.602993  celldm(2)=   0.000000  celldm(3)=   0.000000
     celldm(4)=   0.000000  celldm(5)=   0.000000  celldm(6)=   0.000000

     crystal axes: (cart. coord. in units of alat)
               a(1) = (   1.000000   0.000000   0.000000 )  
               a(2) = (   0.000000   1.013045   0.000000 )  
               a(3) = (   0.000000   0.000000   1.025130 )  

     reciprocal axes: (cart. coord. in units 2 pi/alat)
               b(1) = (  1.000000  0.000000  0.000000 )  
               b(2) = (  0.000000  0.987123  0.000000 )  
               b(3) = (  0.000000  0.000000  0.975486 )  


     PseudoPot. # 1 for Si read from file:
     /home/ppiaggi/pseudos/Si_ONCV_PBE_sr.upf
     MD5 check sum: 8553c464762ac42b85b1eed164b4d029
     Pseudo is Norm-conserving, Zval =  4.0
     Generated using ONCVPSP code by D. R. Hamann
     Using radial grid of 1510 points,  4 beta functions with: 
                l(1) =   0
                l(2) =   0
                l(3) =   1
                l(4) =   1

     atomic species   valence    mass     pseudopotential
        Si             4.00    28.08500     Si( 1.00)

     No symmetry found



   Cartesian axes

     site n.     atom                  positions (alat units)
         1           Si  tau(   1) = (   0.0054743  -0.0016436  -0.0042183  )
         2           Si  tau(   2) = (  -0.0075935   0.2444383   0.2604979  )
         3           Si  tau(   3) = (   0.2584249   0.0010908   0.2699335  )
         4           Si  tau(   4) = (   0.2434222   0.2613660   0.0088118  )
         5           Si  tau(   5) = (   0.1186196   0.1310535   0.1321742  )
         6           Si  tau(   6) = (   0.5080519   0.0079335  -0.0054255  )
         7           Si  tau(   7) = (   0.5135089   0.2473467   0.2629268  )
         8           Si  tau(   8) = (   0.6402534   0.1265075   0.1217288  )
         9           Si  tau(   9) = (   0.7603947   0.0002779   0.2525690  )
        10           Si  tau(  10) = (   0.7621935   0.2443564   0.0065413  )
        11           Si  tau(  11) = (   0.0065717   0.5045435   0.0004377  )
        12           Si  tau(  12) = (   0.2443115   0.5010826   0.2680744  )
        13           Si  tau(  13) = (   0.1306334   0.6396581   0.1243365  )
        14           Si  tau(  14) = (   0.3740552   0.3761983   0.1357991  )
        15           Si  tau(  15) = (   0.5065226   0.5126032  -0.0073926  )
        16           Si  tau(  16) = (   0.6353919   0.6330271   0.1299654  )
        17           Si  tau(  17) = (   0.8807369   0.3862164   0.1218320  )
        18           Si  tau(  18) = (   0.7530217   0.5000504   0.2708464  )
        19           Si  tau(  19) = (   0.0047285   0.7585753   0.2591407  )
        20           Si  tau(  20) = (   0.2558629   0.7654908  -0.0018864  )
        21           Si  tau(  21) = (   0.3711953   0.8921363   0.1273231  )
        22           Si  tau(  22) = (   0.5079361   0.7551565   0.2635004  )
        23           Si  tau(  23) = (   0.7564726   0.7524097   0.0033292  )
        24           Si  tau(  24) = (   0.8909124   0.8775338   0.1266604  )
        25           Si  tau(  25) = (  -0.0037446  -0.0052459   0.5145383  )
        26           Si  tau(  26) = (   0.2614873   0.2574712   0.5274392  )
        27           Si  tau(  27) = (   0.1208535   0.1260408   0.6590357  )
        28           Si  tau(  28) = (   0.3816918   0.1267343   0.3939961  )
        29           Si  tau(  29) = (   0.5059110   0.0014712   0.5275935  )
        30           Si  tau(  30) = (   0.6286786   0.1321376   0.6635332  )
        31           Si  tau(  31) = (   0.8798830   0.1282162   0.3970151  )
        32           Si  tau(  32) = (   0.7616154   0.2531268   0.5290854  )
        33           Si  tau(  33) = (   0.1232310   0.3861601   0.3980507  )
        34           Si  tau(  34) = (   0.0024174   0.5035009   0.5210246  )
        35           Si  tau(  35) = (   0.1270570   0.6412170   0.6573234  )
        36           Si  tau(  36) = (   0.6294671   0.3851376   0.3874110  )
        37           Si  tau(  37) = (   0.3723258   0.6237412   0.3883849  )
        38           Si  tau(  38) = (   0.3757564   0.3869896   0.6610736  )
        39           Si  tau(  39) = (   0.4960567   0.5088733   0.5172286  )
        40           Si  tau(  40) = (   0.6369834   0.6392385   0.6587836  )
        41           Si  tau(  41) = (   0.8832954   0.6356003   0.3966494  )
        42           Si  tau(  42) = (   0.8835799   0.3880273   0.6494927  )
        43           Si  tau(  43) = (   0.1270527   0.8943367   0.3841795  )
        44           Si  tau(  44) = (   0.2469740   0.7508413   0.5301176  )
        45           Si  tau(  45) = (   0.6364140   0.8933866   0.3890516  )
        46           Si  tau(  46) = (   0.3773189   0.8827496   0.6460181  )
        47           Si  tau(  47) = (   0.7558376   0.7520985   0.5265109  )
        48           Si  tau(  48) = (   0.8799320   0.8895624   0.6612747  )
        49           Si  tau(  49) = (  -0.0065916   0.2616878   0.7845355  )
        50           Si  tau(  50) = (   0.2601371  -0.0026239   0.7797784  )
        51           Si  tau(  51) = (   0.3851808   0.1284097   0.9189202  )
        52           Si  tau(  52) = (   0.5076711   0.2554679   0.7892385  )
        53           Si  tau(  53) = (   0.7569460   0.0069604   0.7771837  )
        54           Si  tau(  54) = (   0.8839403   0.1225297   0.9217897  )
        55           Si  tau(  55) = (   0.1209683   0.3871804   0.9095124  )
        56           Si  tau(  56) = (   0.2503794   0.5052575   0.7930347  )
        57           Si  tau(  57) = (   0.6244412   0.3827134   0.9160044  )
        58           Si  tau(  58) = (   0.3858918   0.6291259   0.9161555  )
        59           Si  tau(  59) = (   0.7535472   0.5066748   0.7807158  )
        60           Si  tau(  60) = (   0.8883353   0.6385751   0.9134333  )
        61           Si  tau(  61) = (  -0.0032901   0.7579214   0.7944574  )
        62           Si  tau(  62) = (   0.1179529   0.8809456   0.9104360  )
        63           Si  tau(  63) = (   0.5015752   0.7564772   0.7799594  )
        64           Si  tau(  64) = (   0.6374055   0.8851630   0.9090866  )

     number of k points=     1  Fermi-Dirac smearing, width (Ry)=  0.0100
                       cart. coord. in units 2pi/alat
        k(    1) = (   0.0000000   0.0000000   0.0000000), wk =   2.0000000

     Dense  grid:   100816 G-vectors     FFT dimensions: (  72,  75,  75)

     Estimated max dynamical RAM per process >     161.31 MB

     Estimated total dynamical RAM >     620.64 MB

     Initial potential from superposition of free atoms

     starting charge     255.9608, renormalised to     256.0000
     Starting wfcs are  256 randomized atomic wfcs

     total cpu time spent up to now is        5.0 secs

     Self-consistent Calculation

     iteration #  1     ecut=    30.00 Ry     beta= 0.50
     Davidson diagonalization with overlap
     ethr =  1.00E-02,  avg # of iterations =  3.0

     Threshold (ethr) on eigenvalues was too large:
     Diagonalizing with lowered threshold

     Davidson diagonalization with overlap
     ethr =  6.35E-04,  avg # of iterations =  3.0

     total cpu time spent up to now is        5.3 secs

     total energy              =    -503.55339416 Ry
     estimated scf accuracy    <       1.80722543 Ry

     iteration #  2     ecut=    30.00 Ry     beta= 0.50
     Davidson diagonalization with overlap
     ethr =  7.06E-04,  avg # of iterations =  1.0

     total cpu time spent up to now is        5.4 secs

     total energy              =    -503.54278423 Ry
     estimated scf accuracy    <       0.34355670 Ry

     iteration #  3     ecut=    30.00 Ry     beta= 0.50
     Davidson diagonalization with overlap
     ethr =  1.34E-04,  avg # of iterations = 12.0

     total cpu time spent up to now is        5.6 secs

     total energy              =    -503.53779014 Ry
     estimated scf accuracy    <       0.19914250 Ry

     iteration #  4     ecut=    30.00 Ry     beta= 0.50
     Davidson diagonalization with overlap
     ethr =  7.78E-05,  avg # of iterations =  4.0

     total cpu time spent up to now is        5.7 secs

     total energy              =    -503.57301807 Ry
     estimated scf accuracy    <       0.02084296 Ry

     iteration #  5     ecut=    30.00 Ry     beta= 0.50
     Davidson diagonalization with overlap
     c_bands:  1 eigenvalues not converged
     ethr =  8.14E-06,  avg # of iterations = 20.0

     total cpu time spent up to now is        6.0 secs

     total energy              =    -503.57496160 Ry
     estimated scf accuracy    <       0.00459685 Ry

     iteration #  6     ecut=    30.00 Ry     beta= 0.50
     Davidson diagonalization with overlap
     c_bands:  1 eigenvalues not converged
     ethr =  1.80E-06,  avg # of iterations = 20.0

     total cpu time spent up to now is        6.2 secs

     total energy              =    -503.57575212 Ry
     estimated scf accuracy    <       0.00146970 Ry

     iteration #  7     ecut=    30.00 Ry     beta= 0.50
     Davidson diagonalization with overlap
     ethr =  5.74E-07,  avg # of iterations =  3.0

     total cpu time spent up to now is        6.3 secs

     total energy              =    -503.57597575 Ry
     estimated scf accuracy    <       0.00028206 Ry

     iteration #  8     ecut=    30.00 Ry     beta= 0.50
     Davidson diagonalization with overlap
     ethr =  1.10E-07,  avg # of iterations =  4.0

     total cpu time spent up to now is        6.5 secs

     total energy              =    -503.57601852 Ry
     estimated scf accuracy    <       0.00002076 Ry

     iteration #  9     ecut=    30.00 Ry     beta= 0.50
     Davidson diagonalization with overlap
     ethr =  8.11E-09,  avg # of iterations =  5.0

     total cpu time spent up to now is        6.6 secs

     total energy              =    -503.57602308 Ry
     estimated scf accuracy    <       0.00000572 Ry

     iteration # 10     ecut=    30.00 Ry     beta= 0.50
     Davidson diagonalization with overlap
     ethr =  2.24E-09,  avg # of iterations =  5.0

     total cpu time spent up to now is        6.7 secs

     total energy              =    -503.57602436 Ry
     estimated scf accuracy    <       0.00000166 Ry

     iteration # 11     ecut=    30.00 Ry     beta= 0.50
     Davidson diagonalization with overlap
     ethr =  6.48E-10,  avg # of iterations =  4.0

     total cpu time spent up to now is        6.8 secs

     End of self-consistent calculation

          k = 0.0000 0.0000 0.0000 ( 12620 PWs)   bands (ev):

    -6.0260  -5.0879  -5.0794  -5.0142  -4.9464  -4.8467  -4.7779  -4.3514
    -4.2395  -4.1501  -4.0935  -4.0322  -3.9995  -3.9569  -3.9253  -3.9088
    -3.8645  -3.7870  -3.7533  -3.6705  -3.6150  -3.5110  -3.4796  -2.3535
    -2.2488  -2.1216  -2.0934  -2.0212  -1.9586  -1.9206  -1.8887  -1.8276
    -1.7860  -1.7492  -1.7172  -1.7155  -1.6696  -1.6158  -1.5491  -1.5349
    -1.4778  -1.1020  -1.0845  -0.9857  -0.8309   0.0637   0.1445   0.2078
     0.2403   0.2673   0.3099   0.3365   0.3839   0.3985   0.4912   0.5064
     0.5957   1.7174   1.7870   1.8039   1.8386   1.8678   1.9276   1.9602
     1.9810   2.0122   2.0316   2.0389   2.0631   2.1124   2.1253   2.1481
     2.1651   2.1774   2.2048   2.2262   2.2537   2.2697   2.2799   2.3058
     2.3427   2.3590   2.3959   2.4117   2.4415   2.5097   2.5520   2.8618
     2.9353   2.9702   3.0168   3.0870   3.1240   3.7537   3.7859   3.8252
     3.8455   3.8789   3.8872   3.9141   3.9632   4.0004   4.0302   4.0857
     4.1059   4.1447   4.1674   4.3069   4.3251   4.3790   4.4173   4.4626
     4.5022   4.5417   4.5529   4.6032   4.6490   4.6856   4.7072   4.7200
     4.7529   4.8269   4.9181   4.9561   5.0043   5.6386   5.8321   5.9925
     6.2300   6.2674   6.3365   6.5264   6.5854   6.6095   6.7516   6.7934
     6.8821   6.9130   6.9372   6.9912   7.0139   7.0480   7.0853   7.1126
     7.7801   7.8227   7.8937   7.9335   7.9861   7.9884   8.0371   8.0750
     8.1377   8.1787

     the Fermi energy is     6.0561 ev

!    total energy              =    -503.57602476 Ry
     estimated scf accuracy    <       0.00000018 Ry
     smearing contrib. (-TS)   =      -0.06200424 Ry
     internal energy E=F+TS    =    -503.51402053 Ry

     The total energy is F=E-TS. E is the sum of the following terms:
     one-electron contribution =     136.36389858 Ry
     hartree contribution      =      39.00971404 Ry
     xc contribution           =    -152.70858619 Ry
     ewald contribution        =    -526.17904696 Ry

     convergence has been achieved in  11 iterations

     Forces acting on atoms (cartesian axes, Ry/au):

     atom    1 type  1   force =     0.02390735   -0.01853986    0.09529940
     atom    2 type  1   force =     0.02239376    0.06488503    0.00569298
     atom    3 type  1   force =    -0.01943325    0.02334619   -0.04726539
     atom    4 type  1   force =     0.01947178   -0.03175852    0.00458356
     atom    5 type  1   force =     0.03527622   -0.03125130    0.01258058
     atom    6 type  1   force =     0.03270749   -0.06969418    0.07823280
     atom    7 type  1   force =    -0.01847037    0.00647418   -0.02333117
     atom    8 type  1   force =    -0.04486242   -0.01873311    0.05815441
     atom    9 type  1   force =     0.01401954   -0.00986737    0.01356362
     atom   10 type  1   force =    -0.02179374    0.08173006    0.00243279
     atom   11 type  1   force =    -0.01069556    0.05712199    0.05526481
     atom   12 type  1   force =     0.01112521    0.01897889   -0.05014911
     atom   13 type  1   force =     0.00572829   -0.03087011    0.03470278
     atom   14 type  1   force =     0.02849400    0.02126281    0.00947220
     atom   15 type  1   force =     0.01618790   -0.04414191    0.14445185
     atom   16 type  1   force =    -0.02311495   -0.02292722    0.03204141
     atom   17 type  1   force =    -0.01904298   -0.03373944    0.06578391
     atom   18 type  1   force =     0.04367628    0.05372595   -0.05943271
     atom   19 type  1   force =     0.02091995   -0.00605269    0.01238494
     atom   20 type  1   force =    -0.00431206   -0.01824919    0.02918297
     atom   21 type  1   force =     0.05542686    0.00104323    0.02573355
     atom   22 type  1   force =    -0.02344032    0.02261318   -0.01211334
     atom   23 type  1   force =     0.00952750    0.03307744    0.02891185
     atom   24 type  1   force =    -0.04345029    0.03271918    0.00415629
     atom   25 type  1   force =     0.02958791    0.01010173    0.04148178
     atom   26 type  1   force =    -0.04512184   -0.01100641   -0.00297732
     atom   27 type  1   force =     0.02306328    0.00702060   -0.02722270
     atom   28 type  1   force =     0.01716621    0.01364203    0.01789905
     atom   29 type  1   force =     0.01125638   -0.00091336   -0.01625662
     atom   30 type  1   force =     0.00281972    0.00048635   -0.04534752
     atom   31 type  1   force =    -0.03460910   -0.01731928   -0.01644106
     atom   32 type  1   force =    -0.03770900    0.01726638   -0.01619651
     atom   33 type  1   force =     0.01248739   -0.07063201   -0.01479809
     atom   34 type  1   force =     0.01851138    0.05551147    0.01955813
     atom   35 type  1   force =    -0.03229018   -0.05538757    0.03146555
     atom   36 type  1   force =    -0.02122087   -0.04991756    0.06155431
     atom   37 type  1   force =     0.00089786    0.04400979    0.01239704
     atom   38 type  1   force =     0.02495354   -0.01551664   -0.01156774
     atom   39 type  1   force =     0.03785207   -0.00687082    0.03568425
     atom   40 type  1   force =    -0.05043653   -0.03575404   -0.02592038
     atom   41 type  1   force =    -0.01327263   -0.01838838   -0.01583006
     atom   42 type  1   force =    -0.03629149   -0.02065541    0.01784251
     atom   43 type  1   force =     0.00042520   -0.05124849    0.04032243
     atom   44 type  1   force =     0.02681979    0.04701875   -0.07184376
     atom   45 type  1   force =    -0.01285686   -0.02677494    0.01808342
     atom   46 type  1   force =     0.00790252   -0.00090775    0.01453490
     atom   47 type  1   force =     0.01287641    0.06070224   -0.01521573
     atom   48 type  1   force =    -0.00361458   -0.02350565   -0.04025563
     atom   49 type  1   force =     0.02573971   -0.03357797    0.00045832
     atom   50 type  1   force =    -0.03068961    0.00453001    0.01447300
     atom   51 type  1   force =    -0.07495673    0.04825708   -0.07115949
     atom   52 type  1   force =    -0.03410886    0.01366937   -0.01059644
     atom   53 type  1   force =     0.00399199   -0.01636366    0.04316002
     atom   54 type  1   force =    -0.02780445    0.03013409   -0.11378768
     atom   55 type  1   force =     0.02865409   -0.05703255   -0.03810512
     atom   56 type  1   force =     0.01003923    0.03844491   -0.03738339
     atom   57 type  1   force =     0.06889185   -0.03926990   -0.04938863
     atom   58 type  1   force =    -0.06929275    0.06523583   -0.08349113
     atom   59 type  1   force =     0.01693123    0.00418962    0.01983931
     atom   60 type  1   force =    -0.06647103   -0.07198428   -0.01258616
     atom   61 type  1   force =     0.03257710    0.03105345   -0.08913646
     atom   62 type  1   force =     0.07842067    0.02236976   -0.04814053
     atom   63 type  1   force =     0.01444015    0.02026341    0.00550309
     atom   64 type  1   force =    -0.02580536    0.00796659   -0.04094393

     Total force =     0.528661     Total SCF correction =     0.000561


     Computing stress (Cartesian axis) and pressure

          total   stress  (Ry/bohr**3)                   (kbar)     P=       -5.86
   0.00002619  -0.00005761  -0.00007362            3.85       -8.47      -10.83
  -0.00005761  -0.00002157  -0.00003948           -8.47       -3.17       -5.81
  -0.00007362  -0.00003948  -0.00012412          -10.83       -5.81      -18.26

 
     init_run     :      1.12s CPU      4.97s WALL (       1 calls)
     electrons    :      1.69s CPU      1.80s WALL (       1 calls)
     forces       :      0.04s CPU      0.05s WALL (       1 calls)
     stress       :      0.17s CPU      0.17s WALL (       1 calls)

     Called by init_run:
     wfcinit      :      0.56s CPU      4.23s WALL (       1 calls)
                                        4.23s GPU  (       1 calls)
     potinit      :      0.21s CPU      0.31s WALL (       1 calls)
     hinit0       :      0.33s CPU      0.35s WALL (       1 calls)

     Called by electrons:
     c_bands      :      1.14s CPU      1.20s WALL (      12 calls)
     sum_band     :      0.29s CPU      0.31s WALL (      12 calls)
     v_of_rho     :      0.15s CPU      0.25s WALL (      12 calls)
     mix_rho      :      0.10s CPU      0.12s WALL (      12 calls)

     Called by c_bands:
     init_us_2    :      0.05s CPU      0.05s WALL (      25 calls)
     init_us_2:gp :      0.05s CPU      0.05s WALL (      25 calls)
     regterg      :      1.04s CPU      1.09s WALL (      12 calls)

     Called by *egterg:
     rdiaghg      :      0.48s CPU      1.24s WALL (      95 calls)
                                        1.21s GPU  (      95 calls)
     h_psi        :      0.94s CPU      3.88s WALL (      97 calls)
                                        3.88s GPU  (      97 calls)
     g_psi        :      0.00s CPU      0.00s WALL (      84 calls)
                                        0.00s GPU  (      84 calls)

     Called by h_psi:
     h_psi:calbec :      0.50s CPU      3.37s WALL (      97 calls)
                                        3.37s GPU  (      97 calls)
     vloc_psi     :      0.37s CPU      0.45s WALL (      97 calls)
                                        0.44s GPU  (      97 calls)
     add_vuspsi   :      0.04s CPU      0.06s WALL (      97 calls)
                                        0.06s GPU  (      97 calls)

     General routines
     calbec       :      0.51s CPU      3.38s WALL (     102 calls)
     fft          :      0.41s CPU      0.54s WALL (     103 calls)
                                        0.13s GPU  (      66 calls)
     ffts         :      0.04s CPU      0.04s WALL (      12 calls)
     fftw         :      0.41s CPU      0.55s WALL (    1360 calls)
                                        0.50s GPU  (    1360 calls)
 
     Parallel routines
 
     PWSCF        :      3.05s CPU      7.07s WALL

 
   This run was terminated on:  11:19:55  10May2023            

=------------------------------------------------------------------------------=
   JOB DONE.
=------------------------------------------------------------------------------=
