An instance of this daemon is already running

     Program PWSCF v.7.1 starts on 10May2023 at 11:11:31 

     This program is part of the open-source Quantum ESPRESSO suite
     for quantum simulation of materials; please cite
         "P. Giannozzi et al., J. Phys.:Condens. Matter 21 395502 (2009);
         "P. Giannozzi et al., J. Phys.:Condens. Matter 29 465901 (2017);
         "P. Giannozzi et al., J. Chem. Phys. 152 154105 (2020);
          URL http://www.quantum-espresso.org", 
     in publications or presentations arising from this work. More details at
     http://www.quantum-espresso.org/quote

     Parallel version (MPI & OpenMP), running on       4 processor cores
     Number of MPI processes:                 4
     Threads/MPI process:                     1

     MPI processes distributed on     1 nodes
     753567 MiB available memory on the printing compute node when the environment starts
 
     Reading input from pw-si-6.in
Warning: card &CELL ignored
Warning: card / ignored

     Current dimensions of program PWSCF are:
     Max number of different atomic species (ntypx) = 10
     Max number of k-points (npk) =  40000
     Max angular momentum in pseudopotentials (lmaxx) =  4

     IMPORTANT: XC functional enforced from input :
     Exchange-correlation= PBE
                           (   1   4   3   4   0   0   0)
     Any further DFT definition will be discarded
     Please, verify this is what you really want


     gamma-point specific algorithms are used
 
     K-points division:     npool     =       2
     R & G space division:  proc/nbgrp/npool/nimage =       2
     Subspace diagonalization in iterative solution of the eigenvalue problem:
     a serial algorithm will be used

     Message from routine divide_et_impera:
     suboptimal parallelization: some nodes have no k-points
 
     Parallelization info
     --------------------
     sticks:   dense  smooth     PW     G-vecs:    dense   smooth      PW
     Min        2097    2097    551               101485   101485   13759
     Max        2100    2100    554               101488   101488   13762
     Sum        4197    4197   1105               202973   202973   27521
 
     Using Slab Decomposition
 


     bravais-lattice index     =            0
     lattice parameter (alat)  =      20.8889  a.u.
     unit-cell volume          =    9140.6108 (a.u.)^3
     number of atoms/cell      =           64
     number of atomic types    =            1
     number of electrons       =       256.00
     number of Kohn-Sham states=          154
     kinetic-energy cutoff     =      30.0000  Ry
     charge density cutoff     =     120.0000  Ry
     scf convergence threshold =      1.0E-06
     mixing beta               =       0.5000
     number of iterations used =            8  plain     mixing
     Exchange-correlation= PBE
                           (   1   4   3   4   0   0   0)

     GPU acceleration is ACTIVE.
     GPU-aware MPI enabled

     Message from routine print_cuda_info:
     High GPU oversubscription detected. Are you sure this is what you want?

     celldm(1)=  20.888938  celldm(2)=   0.000000  celldm(3)=   0.000000
     celldm(4)=   0.000000  celldm(5)=   0.000000  celldm(6)=   0.000000

     crystal axes: (cart. coord. in units of alat)
               a(1) = (   1.000000   0.000000   0.000000 )  
               a(2) = (   0.000000   1.007856   0.000000 )  
               a(3) = (   0.000000   0.000000   0.995011 )  

     reciprocal axes: (cart. coord. in units 2 pi/alat)
               b(1) = (  1.000000  0.000000  0.000000 )  
               b(2) = (  0.000000  0.992206  0.000000 )  
               b(3) = (  0.000000  0.000000  1.005014 )  


     PseudoPot. # 1 for Si read from file:
     /home/ppiaggi/pseudos/Si_ONCV_PBE_sr.upf
     MD5 check sum: 8553c464762ac42b85b1eed164b4d029
     Pseudo is Norm-conserving, Zval =  4.0
     Generated using ONCVPSP code by D. R. Hamann
     Using radial grid of 1510 points,  4 beta functions with: 
                l(1) =   0
                l(2) =   0
                l(3) =   1
                l(4) =   1

     atomic species   valence    mass     pseudopotential
        Si             4.00    28.08500     Si( 1.00)

     No symmetry found



   Cartesian axes

     site n.     atom                  positions (alat units)
         1           Si  tau(   1) = (   0.0072511   0.0055577  -0.0023987  )
         2           Si  tau(   2) = (   0.0021857   0.2529975   0.2530824  )
         3           Si  tau(   3) = (   0.2485021  -0.0045257   0.2589053  )
         4           Si  tau(   4) = (   0.2426713   0.2601622   0.0088368  )
         5           Si  tau(   5) = (   0.1215467   0.1354849   0.1249095  )
         6           Si  tau(   6) = (   0.5011600   0.0065252  -0.0057355  )
         7           Si  tau(   7) = (   0.5027051   0.2575394   0.2489332  )
         8           Si  tau(   8) = (   0.6149166   0.1270309   0.1245570  )
         9           Si  tau(   9) = (   0.7394468  -0.0001944   0.2474344  )
        10           Si  tau(  10) = (   0.7501048   0.2458931  -0.0013208  )
        11           Si  tau(  11) = (  -0.0043563   0.5069044   0.0047951  )
        12           Si  tau(  12) = (   0.2522378   0.5065000   0.2502181  )
        13           Si  tau(  13) = (   0.1190682   0.6288968   0.1279038  )
        14           Si  tau(  14) = (   0.3797070   0.3752355   0.1235754  )
        15           Si  tau(  15) = (   0.4896239   0.5060502   0.0022527  )
        16           Si  tau(  16) = (   0.6197405   0.6340336   0.1294542  )
        17           Si  tau(  17) = (   0.8646381   0.3852304   0.1317195  )
        18           Si  tau(  18) = (   0.7432120   0.5130328   0.2600126  )
        19           Si  tau(  19) = (   0.0051224   0.7592425   0.2517262  )
        20           Si  tau(  20) = (   0.2558033   0.7532668  -0.0048187  )
        21           Si  tau(  21) = (   0.3778970   0.8879773   0.1248965  )
        22           Si  tau(  22) = (   0.4956480   0.7614174   0.2445410  )
        23           Si  tau(  23) = (   0.7430366   0.7576102  -0.0088931  )
        24           Si  tau(  24) = (   0.8613905   0.8937576   0.1240154  )
        25           Si  tau(  25) = (  -0.0039301  -0.0086440   0.5014419  )
        26           Si  tau(  26) = (   0.2490954   0.2592430   0.5068538  )
        27           Si  tau(  27) = (   0.1174975   0.1346801   0.6328214  )
        28           Si  tau(  28) = (   0.3769456   0.1251391   0.3831496  )
        29           Si  tau(  29) = (   0.4904751   0.0019579   0.5137933  )
        30           Si  tau(  30) = (   0.6153988   0.1199737   0.6413435  )
        31           Si  tau(  31) = (   0.8631090   0.1361469   0.3767762  )
        32           Si  tau(  32) = (   0.7367965   0.2474997   0.4979123  )
        33           Si  tau(  33) = (   0.1231738   0.3781910   0.3868948  )
        34           Si  tau(  34) = (  -0.0029391   0.5162315   0.5100962  )
        35           Si  tau(  35) = (   0.1256788   0.6416955   0.6245862  )
        36           Si  tau(  36) = (   0.6231555   0.3844141   0.3772181  )
        37           Si  tau(  37) = (   0.3777067   0.6412041   0.3830718  )
        38           Si  tau(  38) = (   0.3759598   0.3800272   0.6282640  )
        39           Si  tau(  39) = (   0.5001893   0.5108047   0.5078665  )
        40           Si  tau(  40) = (   0.6198896   0.6295750   0.6371993  )
        41           Si  tau(  41) = (   0.8706002   0.6279840   0.3770898  )
        42           Si  tau(  42) = (   0.8600078   0.3767187   0.6296498  )
        43           Si  tau(  43) = (   0.1200657   0.8872090   0.3881765  )
        44           Si  tau(  44) = (   0.2408627   0.7557992   0.5087173  )
        45           Si  tau(  45) = (   0.6266869   0.8930736   0.3734952  )
        46           Si  tau(  46) = (   0.3735374   0.8892629   0.6336480  )
        47           Si  tau(  47) = (   0.7424545   0.7589647   0.5050730  )
        48           Si  tau(  48) = (   0.8675074   0.8958352   0.6254805  )
        49           Si  tau(  49) = (  -0.0025291   0.2525956   0.7639073  )
        50           Si  tau(  50) = (   0.2518737  -0.0059390   0.7617104  )
        51           Si  tau(  51) = (   0.3673660   0.1218200   0.8845227  )
        52           Si  tau(  52) = (   0.4956324   0.2607872   0.7499505  )
        53           Si  tau(  53) = (   0.7424440   0.0067965   0.7567836  )
        54           Si  tau(  54) = (   0.8692915   0.1192068   0.8829425  )
        55           Si  tau(  55) = (   0.1275271   0.3891933   0.8781217  )
        56           Si  tau(  56) = (   0.2520636   0.5046173   0.7542602  )
        57           Si  tau(  57) = (   0.6131833   0.3766954   0.8782850  )
        58           Si  tau(  58) = (   0.3785708   0.6380811   0.8865441  )
        59           Si  tau(  59) = (   0.7508420   0.5142475   0.7522396  )
        60           Si  tau(  60) = (   0.8666390   0.6374071   0.8826397  )
        61           Si  tau(  61) = (   0.0057888   0.7559960   0.7536299  )
        62           Si  tau(  62) = (   0.1265696   0.8848896   0.8847812  )
        63           Si  tau(  63) = (   0.4906487   0.7659182   0.7553216  )
        64           Si  tau(  64) = (   0.6226078   0.8815871   0.8805948  )

     number of k points=     1  Fermi-Dirac smearing, width (Ry)=  0.0100
                       cart. coord. in units 2pi/alat
        k(    1) = (   0.0000000   0.0000000   0.0000000), wk =   2.0000000

     Dense  grid:   101487 G-vectors     FFT dimensions: (  75,  75,  75)

     Estimated max dynamical RAM per process >     162.84 MB

     Estimated total dynamical RAM >     626.59 MB

     Initial potential from superposition of free atoms

     starting charge     255.9608, renormalised to     256.0000
     Starting wfcs are  256 randomized atomic wfcs

     total cpu time spent up to now is        4.9 secs

     Self-consistent Calculation

     iteration #  1     ecut=    30.00 Ry     beta= 0.50
     Davidson diagonalization with overlap
     ethr =  1.00E-02,  avg # of iterations =  3.0

     Threshold (ethr) on eigenvalues was too large:
     Diagonalizing with lowered threshold

     Davidson diagonalization with overlap
     ethr =  6.30E-04,  avg # of iterations =  4.0

     total cpu time spent up to now is        5.2 secs

     total energy              =    -503.63498228 Ry
     estimated scf accuracy    <       1.78996031 Ry

     iteration #  2     ecut=    30.00 Ry     beta= 0.50
     Davidson diagonalization with overlap
     ethr =  6.99E-04,  avg # of iterations =  1.0

     total cpu time spent up to now is        5.3 secs

     total energy              =    -503.62604161 Ry
     estimated scf accuracy    <       0.33577193 Ry

     iteration #  3     ecut=    30.00 Ry     beta= 0.50
     Davidson diagonalization with overlap
     ethr =  1.31E-04,  avg # of iterations =  5.0

     total cpu time spent up to now is        5.4 secs

     total energy              =    -503.64003171 Ry
     estimated scf accuracy    <       0.04542407 Ry

     iteration #  4     ecut=    30.00 Ry     beta= 0.50
     Davidson diagonalization with overlap
     c_bands:  1 eigenvalues not converged
     ethr =  1.77E-05,  avg # of iterations = 20.0

     total cpu time spent up to now is        5.7 secs

     total energy              =    -503.64983371 Ry
     estimated scf accuracy    <       0.01670018 Ry

     iteration #  5     ecut=    30.00 Ry     beta= 0.50
     Davidson diagonalization with overlap
     c_bands:  1 eigenvalues not converged
     ethr =  6.52E-06,  avg # of iterations = 20.0

     total cpu time spent up to now is        5.9 secs

     total energy              =    -503.65221747 Ry
     estimated scf accuracy    <       0.00266705 Ry

     iteration #  6     ecut=    30.00 Ry     beta= 0.50
     Davidson diagonalization with overlap
     ethr =  1.04E-06,  avg # of iterations = 11.0

     total cpu time spent up to now is        6.1 secs

     total energy              =    -503.65266568 Ry
     estimated scf accuracy    <       0.00060974 Ry

     iteration #  7     ecut=    30.00 Ry     beta= 0.50
     Davidson diagonalization with overlap
     ethr =  2.38E-07,  avg # of iterations =  4.0

     total cpu time spent up to now is        6.2 secs

     total energy              =    -503.65272425 Ry
     estimated scf accuracy    <       0.00015559 Ry

     iteration #  8     ecut=    30.00 Ry     beta= 0.50
     Davidson diagonalization with overlap
     ethr =  6.08E-08,  avg # of iterations =  4.0

     total cpu time spent up to now is        6.4 secs

     total energy              =    -503.65275576 Ry
     estimated scf accuracy    <       0.00001046 Ry

     iteration #  9     ecut=    30.00 Ry     beta= 0.50
     Davidson diagonalization with overlap
     ethr =  4.08E-09,  avg # of iterations =  4.0

     total cpu time spent up to now is        6.5 secs

     total energy              =    -503.65275827 Ry
     estimated scf accuracy    <       0.00000285 Ry

     iteration # 10     ecut=    30.00 Ry     beta= 0.50
     Davidson diagonalization with overlap
     ethr =  1.11E-09,  avg # of iterations =  4.0

     total cpu time spent up to now is        6.6 secs

     End of self-consistent calculation

          k = 0.0000 0.0000 0.0000 ( 12699 PWs)   bands (ev):

    -5.9891  -5.0578  -5.0086  -4.9979  -4.9550  -4.9111  -4.8212  -4.2539
    -4.2161  -4.1713  -4.1043  -4.0608  -4.0267  -4.0168  -3.9778  -3.9470
    -3.8918  -3.8620  -3.8172  -3.7452  -3.7164  -3.5952  -3.5019  -2.2255
    -2.1763  -2.1265  -2.0958  -2.0824  -2.0369  -1.9553  -1.8950  -1.8865
    -1.8538  -1.8249  -1.7915  -1.7813  -1.7455  -1.7397  -1.6315  -1.5882
    -1.5359  -1.1629  -1.0394  -0.9832  -0.9048   0.0430   0.0905   0.1523
     0.1968   0.2295   0.2739   0.2993   0.3575   0.3940   0.4250   0.4617
     0.5106   1.7271   1.7665   1.8491   1.8667   1.8879   1.9019   1.9280
     1.9603   1.9638   1.9766   2.0134   2.0241   2.0534   2.0666   2.0689
     2.0947   2.1088   2.1270   2.1586   2.1691   2.1853   2.2063   2.2280
     2.2947   2.3221   2.3503   2.3530   2.4017   2.4414   2.5225   2.8717
     2.9473   2.9555   2.9747   3.0134   3.0920   3.6646   3.7220   3.7556
     3.7735   3.8544   3.8647   3.8934   3.8942   3.9286   3.9614   4.0052
     4.0217   4.0472   4.2402   4.2851   4.3126   4.3665   4.4168   4.4312
     4.5006   4.5062   4.5304   4.5343   4.5653   4.5750   4.5966   4.6654
     4.7006   4.7257   4.7331   4.7817   4.9318   5.5931   5.8367   5.8646
     6.2418   6.3167   6.3589   6.4356   6.4735   6.5742   6.7038   6.7399
     6.8033   6.8245   6.9180   6.9338   6.9516   6.9670   6.9823   7.0157
     7.7642   7.8069   7.8564   7.9101   7.9314   7.9771   8.0343   8.0562
     8.0794   8.0858

     the Fermi energy is     6.0249 ev

!    total energy              =    -503.65275875 Ry
     estimated scf accuracy    <       0.00000035 Ry
     smearing contrib. (-TS)   =      -0.05767153 Ry
     internal energy E=F+TS    =    -503.59508722 Ry

     The total energy is F=E-TS. E is the sum of the following terms:
     one-electron contribution =     136.42260942 Ry
     hartree contribution      =      38.46391027 Ry
     xc contribution           =    -152.52429532 Ry
     ewald contribution        =    -525.95731159 Ry

     convergence has been achieved in  10 iterations

     Forces acting on atoms (cartesian axes, Ry/au):

     atom    1 type  1   force =    -0.04406179   -0.00365009    0.05559828
     atom    2 type  1   force =    -0.03980884    0.02999539    0.01550189
     atom    3 type  1   force =     0.00111758    0.03527011   -0.01869537
     atom    4 type  1   force =     0.02746728   -0.01317577   -0.01940803
     atom    5 type  1   force =     0.01162692   -0.04080795    0.03340864
     atom    6 type  1   force =    -0.00774539   -0.02278274    0.04917522
     atom    7 type  1   force =    -0.01272600   -0.01771640    0.02709273
     atom    8 type  1   force =     0.03433259    0.00759243    0.00003903
     atom    9 type  1   force =     0.01935037    0.06370150    0.00653147
     atom   10 type  1   force =    -0.03647641    0.04217208    0.04590867
     atom   11 type  1   force =    -0.02047824    0.00286440    0.00945605
     atom   12 type  1   force =     0.00004566   -0.00867073    0.02547800
     atom   13 type  1   force =     0.03923378    0.01319728   -0.00701012
     atom   14 type  1   force =    -0.04016972    0.02278854    0.02855601
     atom   15 type  1   force =     0.05594623   -0.00802422    0.02872757
     atom   16 type  1   force =     0.00318445   -0.00955348   -0.02305710
     atom   17 type  1   force =     0.02243715   -0.02501506   -0.00747610
     atom   18 type  1   force =     0.00158021   -0.01861064   -0.03523996
     atom   19 type  1   force =    -0.05115882    0.01462285    0.00584584
     atom   20 type  1   force =    -0.05805587    0.04305196    0.09234019
     atom   21 type  1   force =    -0.02668164   -0.00523749   -0.01513441
     atom   22 type  1   force =     0.02020407    0.01475364    0.04313151
     atom   23 type  1   force =    -0.00216391    0.01110170    0.09953400
     atom   24 type  1   force =     0.06154077   -0.04716234   -0.01831987
     atom   25 type  1   force =    -0.02682515    0.10781319    0.01682037
     atom   26 type  1   force =     0.00178488   -0.03558660   -0.00105531
     atom   27 type  1   force =     0.02319528   -0.04360905   -0.00575031
     atom   28 type  1   force =    -0.02096556    0.02791441   -0.01326116
     atom   29 type  1   force =     0.04772790    0.00137412   -0.04114393
     atom   30 type  1   force =    -0.00709249    0.04965408   -0.04737283
     atom   31 type  1   force =     0.04251534   -0.05737069   -0.02376027
     atom   32 type  1   force =    -0.00795035    0.01782035    0.04647873
     atom   33 type  1   force =    -0.00404505    0.03567026   -0.02608365
     atom   34 type  1   force =    -0.01433975   -0.05262854   -0.01522287
     atom   35 type  1   force =    -0.01852368   -0.07018139    0.05681259
     atom   36 type  1   force =    -0.02063073   -0.00505782    0.01299804
     atom   37 type  1   force =    -0.02136159   -0.02046122   -0.01972202
     atom   38 type  1   force =    -0.01477976    0.02353458   -0.01040687
     atom   39 type  1   force =    -0.00649177   -0.01197238   -0.01573224
     atom   40 type  1   force =    -0.00575369    0.04421345   -0.01751671
     atom   41 type  1   force =     0.02376217    0.05185223    0.02202525
     atom   42 type  1   force =     0.04245422    0.00468568   -0.00171751
     atom   43 type  1   force =     0.02812403   -0.04586410   -0.04867877
     atom   44 type  1   force =     0.06674180    0.05761669   -0.03535309
     atom   45 type  1   force =    -0.05344082   -0.04933462    0.04254435
     atom   46 type  1   force =    -0.04298261   -0.03974572   -0.01446314
     atom   47 type  1   force =     0.01030800    0.00251120   -0.00964242
     atom   48 type  1   force =    -0.00052205   -0.06279106    0.03030056
     atom   49 type  1   force =    -0.02535436    0.02007052   -0.02111535
     atom   50 type  1   force =    -0.03462148    0.04814996   -0.02630913
     atom   51 type  1   force =    -0.00519606    0.06029764   -0.03841572
     atom   52 type  1   force =    -0.01465352   -0.05116989    0.02768058
     atom   53 type  1   force =     0.02227373   -0.03853741    0.00781493
     atom   54 type  1   force =     0.03327391    0.02098503   -0.03547767
     atom   55 type  1   force =    -0.02888592   -0.02499308   -0.00033119
     atom   56 type  1   force =     0.01052279    0.04138921   -0.01409407
     atom   57 type  1   force =     0.05066340    0.02737998   -0.00921037
     atom   58 type  1   force =    -0.00322781   -0.03883143   -0.08891833
     atom   59 type  1   force =    -0.02564454   -0.04382678    0.02722335
     atom   60 type  1   force =     0.06673170   -0.03195641   -0.05251793
     atom   61 type  1   force =    -0.04805909    0.04287815    0.01244212
     atom   62 type  1   force =     0.00590159   -0.03992158   -0.04130354
     atom   63 type  1   force =     0.03850214   -0.03081753    0.00354096
     atom   64 type  1   force =    -0.02167545    0.02814158   -0.05408952

     Total force =     0.479056     Total SCF correction =     0.000979


     Computing stress (Cartesian axis) and pressure

          total   stress  (Ry/bohr**3)                   (kbar)     P=      -12.57
  -0.00007051  -0.00007879  -0.00003390          -10.37      -11.59       -4.99
  -0.00007879  -0.00011978   0.00001538          -11.59      -17.62        2.26
  -0.00003390   0.00001538  -0.00006595           -4.99        2.26       -9.70

 
     init_run     :      0.96s CPU      4.84s WALL (       1 calls)
     electrons    :      1.60s CPU      1.72s WALL (       1 calls)
     forces       :      0.04s CPU      0.04s WALL (       1 calls)
     stress       :      0.17s CPU      0.17s WALL (       1 calls)

     Called by init_run:
     wfcinit      :      0.53s CPU      4.25s WALL (       1 calls)
                                        4.25s GPU  (       1 calls)
     potinit      :      0.22s CPU      0.30s WALL (       1 calls)
     hinit0       :      0.19s CPU      0.22s WALL (       1 calls)

     Called by electrons:
     c_bands      :      1.08s CPU      1.14s WALL (      11 calls)
     sum_band     :      0.28s CPU      0.31s WALL (      11 calls)
     v_of_rho     :      0.14s CPU      0.22s WALL (      11 calls)
     mix_rho      :      0.09s CPU      0.11s WALL (      11 calls)

     Called by c_bands:
     init_us_2    :      0.04s CPU      0.04s WALL (      23 calls)
     init_us_2:gp :      0.04s CPU      0.04s WALL (      23 calls)
     regterg      :      0.99s CPU      1.03s WALL (      11 calls)

     Called by *egterg:
     rdiaghg      :      0.42s CPU      1.18s WALL (      90 calls)
                                        1.16s GPU  (      90 calls)
     h_psi        :      0.94s CPU      3.93s WALL (      92 calls)
                                        3.93s GPU  (      92 calls)
     g_psi        :      0.00s CPU      0.00s WALL (      80 calls)
                                        0.00s GPU  (      80 calls)

     Called by h_psi:
     h_psi:calbec :      0.48s CPU      3.39s WALL (      92 calls)
                                        3.39s GPU  (      92 calls)
     vloc_psi     :      0.41s CPU      0.48s WALL (      92 calls)
                                        0.48s GPU  (      92 calls)
     add_vuspsi   :      0.04s CPU      0.05s WALL (      92 calls)
                                        0.05s GPU  (      92 calls)

     General routines
     calbec       :      0.48s CPU      3.39s WALL (      97 calls)
     fft          :      0.28s CPU      0.39s WALL (      95 calls)
                                        0.12s GPU  (      61 calls)
     ffts         :      0.04s CPU      0.04s WALL (      11 calls)
     fftw         :      0.44s CPU      0.59s WALL (    1251 calls)
                                        0.54s GPU  (    1251 calls)
 
     Parallel routines
 
     PWSCF        :      2.82s CPU      6.87s WALL

 
   This run was terminated on:  11:11:38  10May2023            

=------------------------------------------------------------------------------=
   JOB DONE.
=------------------------------------------------------------------------------=
