An instance of this daemon is already running

     Program PWSCF v.7.1 starts on 10May2023 at 11:12:55 

     This program is part of the open-source Quantum ESPRESSO suite
     for quantum simulation of materials; please cite
         "P. Giannozzi et al., J. Phys.:Condens. Matter 21 395502 (2009);
         "P. Giannozzi et al., J. Phys.:Condens. Matter 29 465901 (2017);
         "P. Giannozzi et al., J. Chem. Phys. 152 154105 (2020);
          URL http://www.quantum-espresso.org", 
     in publications or presentations arising from this work. More details at
     http://www.quantum-espresso.org/quote

     Parallel version (MPI & OpenMP), running on       4 processor cores
     Number of MPI processes:                 4
     Threads/MPI process:                     1

     MPI processes distributed on     1 nodes
     753592 MiB available memory on the printing compute node when the environment starts
 
     Reading input from pw-si-15.in
Warning: card &CELL ignored
Warning: card / ignored

     Current dimensions of program PWSCF are:
     Max number of different atomic species (ntypx) = 10
     Max number of k-points (npk) =  40000
     Max angular momentum in pseudopotentials (lmaxx) =  4

     IMPORTANT: XC functional enforced from input :
     Exchange-correlation= PBE
                           (   1   4   3   4   0   0   0)
     Any further DFT definition will be discarded
     Please, verify this is what you really want


     gamma-point specific algorithms are used
 
     K-points division:     npool     =       2
     R & G space division:  proc/nbgrp/npool/nimage =       2
     Subspace diagonalization in iterative solution of the eigenvalue problem:
     a serial algorithm will be used

     Message from routine divide_et_impera:
     suboptimal parallelization: some nodes have no k-points
 
     Parallelization info
     --------------------
     sticks:   dense  smooth     PW     G-vecs:    dense   smooth      PW
     Min        1998    1998    524                99138    99138   13460
     Max        1999    1999    525                99141    99141   13463
     Sum        3997    3997   1049               198279   198279   26923
 
     Using Slab Decomposition
 


     bravais-lattice index     =            0
     lattice parameter (alat)  =      20.4260  a.u.
     unit-cell volume          =    8928.0504 (a.u.)^3
     number of atoms/cell      =           64
     number of atomic types    =            1
     number of electrons       =       256.00
     number of Kohn-Sham states=          154
     kinetic-energy cutoff     =      30.0000  Ry
     charge density cutoff     =     120.0000  Ry
     scf convergence threshold =      1.0E-06
     mixing beta               =       0.5000
     number of iterations used =            8  plain     mixing
     Exchange-correlation= PBE
                           (   1   4   3   4   0   0   0)

     GPU acceleration is ACTIVE.
     GPU-aware MPI enabled

     Message from routine print_cuda_info:
     High GPU oversubscription detected. Are you sure this is what you want?

     celldm(1)=  20.426047  celldm(2)=   0.000000  celldm(3)=   0.000000
     celldm(4)=   0.000000  celldm(5)=   0.000000  celldm(6)=   0.000000

     crystal axes: (cart. coord. in units of alat)
               a(1) = (   1.000000   0.000000   0.000000 )  
               a(2) = (   0.000000   1.002808   0.000000 )  
               a(3) = (   0.000000   0.000000   1.044686 )  

     reciprocal axes: (cart. coord. in units 2 pi/alat)
               b(1) = (  1.000000  0.000000  0.000000 )  
               b(2) = (  0.000000  0.997200  0.000000 )  
               b(3) = (  0.000000  0.000000  0.957225 )  


     PseudoPot. # 1 for Si read from file:
     /home/ppiaggi/pseudos/Si_ONCV_PBE_sr.upf
     MD5 check sum: 8553c464762ac42b85b1eed164b4d029
     Pseudo is Norm-conserving, Zval =  4.0
     Generated using ONCVPSP code by D. R. Hamann
     Using radial grid of 1510 points,  4 beta functions with: 
                l(1) =   0
                l(2) =   0
                l(3) =   1
                l(4) =   1

     atomic species   valence    mass     pseudopotential
        Si             4.00    28.08500     Si( 1.00)

     No symmetry found



   Cartesian axes

     site n.     atom                  positions (alat units)
         1           Si  tau(   1) = (   0.0089077  -0.0010837  -0.0042169  )
         2           Si  tau(   2) = (   0.0077714   0.2483843   0.2513758  )
         3           Si  tau(   3) = (   0.2624791  -0.0022058   0.2544781  )
         4           Si  tau(   4) = (   0.2473039   0.2600867  -0.0064158  )
         5           Si  tau(   5) = (   0.1259104   0.1286069   0.1303872  )
         6           Si  tau(   6) = (   0.5159900  -0.0019236  -0.0074650  )
         7           Si  tau(   7) = (   0.5120738   0.2472220   0.2505394  )
         8           Si  tau(   8) = (   0.6442150   0.1268215   0.1318796  )
         9           Si  tau(   9) = (   0.7716514   0.0064171   0.2636415  )
        10           Si  tau(  10) = (   0.7692717   0.2569724   0.0055031  )
        11           Si  tau(  11) = (   0.0027851   0.5058660   0.0050635  )
        12           Si  tau(  12) = (   0.2462279   0.5156323   0.2634312  )
        13           Si  tau(  13) = (   0.1228954   0.6383341   0.1268845  )
        14           Si  tau(  14) = (   0.3807595   0.3883548   0.1340425  )
        15           Si  tau(  15) = (   0.5111926   0.5067855   0.0054026  )
        16           Si  tau(  16) = (   0.6278094   0.6328162   0.1218392  )
        17           Si  tau(  17) = (   0.8860137   0.3900504   0.1274481  )
        18           Si  tau(  18) = (   0.7608188   0.5053035   0.2540231  )
        19           Si  tau(  19) = (  -0.0037626   0.7594429   0.2572271  )
        20           Si  tau(  20) = (   0.2625010   0.7594901  -0.0054154  )
        21           Si  tau(  21) = (   0.3769624   0.8837494   0.1288561  )
        22           Si  tau(  22) = (   0.5171672   0.7627419   0.2523642  )
        23           Si  tau(  23) = (   0.7614867   0.7697550   0.0037972  )
        24           Si  tau(  24) = (   0.8873461   0.8960899   0.1214526  )
        25           Si  tau(  25) = (   0.0080049  -0.0029108   0.5195289  )
        26           Si  tau(  26) = (   0.2534857   0.2577317   0.5109909  )
        27           Si  tau(  27) = (   0.1260169   0.1204378   0.6510379  )
        28           Si  tau(  28) = (   0.3752013   0.1209163   0.3954796  )
        29           Si  tau(  29) = (   0.5101657  -0.0024122   0.5183002  )
        30           Si  tau(  30) = (   0.6449416   0.1363065   0.6505941  )
        31           Si  tau(  31) = (   0.8966820   0.1286063   0.3943183  )
        32           Si  tau(  32) = (   0.7553587   0.2545440   0.5225610  )
        33           Si  tau(  33) = (   0.1341089   0.3827977   0.3781344  )
        34           Si  tau(  34) = (  -0.0021466   0.5109211   0.5229099  )
        35           Si  tau(  35) = (   0.1232330   0.6293715   0.6455325  )
        36           Si  tau(  36) = (   0.6313333   0.3752901   0.3809658  )
        37           Si  tau(  37) = (   0.3806324   0.6429258   0.3923035  )
        38           Si  tau(  38) = (   0.3813593   0.3862116   0.6514455  )
        39           Si  tau(  39) = (   0.5095913   0.5145221   0.5135905  )
        40           Si  tau(  40) = (   0.6277190   0.6429205   0.6379332  )
        41           Si  tau(  41) = (   0.8826374   0.6408108   0.3947779  )
        42           Si  tau(  42) = (   0.8877446   0.3782752   0.6402140  )
        43           Si  tau(  43) = (   0.1206656   0.8824860   0.3876616  )
        44           Si  tau(  44) = (   0.2503074   0.7655120   0.5160370  )
        45           Si  tau(  45) = (   0.6410450   0.8831978   0.3848494  )
        46           Si  tau(  46) = (   0.3848565   0.8815964   0.6428976  )
        47           Si  tau(  47) = (   0.7614946   0.7681473   0.5141640  )
        48           Si  tau(  48) = (   0.8971482   0.8923959   0.6387122  )
        49           Si  tau(  49) = (  -0.0051082   0.2517566   0.7814079  )
        50           Si  tau(  50) = (   0.2484009   0.0060470   0.7748917  )
        51           Si  tau(  51) = (   0.3857450   0.1242370   0.9011645  )
        52           Si  tau(  52) = (   0.5173952   0.2620450   0.7802178  )
        53           Si  tau(  53) = (   0.7697289   0.0069185   0.7717351  )
        54           Si  tau(  54) = (   0.9000622   0.1233154   0.9039875  )
        55           Si  tau(  55) = (   0.1271348   0.3883293   0.9004539  )
        56           Si  tau(  56) = (   0.2454530   0.5157350   0.7794918  )
        57           Si  tau(  57) = (   0.6339506   0.3836646   0.8990110  )
        58           Si  tau(  58) = (   0.3790489   0.6402264   0.9112998  )
        59           Si  tau(  59) = (   0.7666217   0.5035469   0.7682497  )
        60           Si  tau(  60) = (   0.8974474   0.6355693   0.9079909  )
        61           Si  tau(  61) = (   0.0078536   0.7691275   0.7730609  )
        62           Si  tau(  62) = (   0.1317235   0.8993362   0.9024499  )
        63           Si  tau(  63) = (   0.5102493   0.7550863   0.7718498  )
        64           Si  tau(  64) = (   0.6273686   0.8858490   0.8991814  )

     number of k points=     1  Fermi-Dirac smearing, width (Ry)=  0.0100
                       cart. coord. in units 2pi/alat
        k(    1) = (   0.0000000   0.0000000   0.0000000), wk =   2.0000000

     Dense  grid:    99140 G-vectors     FFT dimensions: (  72,  72,  75)

     Estimated max dynamical RAM per process >     158.31 MB

     Estimated total dynamical RAM >     609.03 MB

     Initial potential from superposition of free atoms

     starting charge     255.9608, renormalised to     256.0000
     Starting wfcs are  256 randomized atomic wfcs

     total cpu time spent up to now is        5.2 secs

     Self-consistent Calculation

     iteration #  1     ecut=    30.00 Ry     beta= 0.50
     Davidson diagonalization with overlap
     ethr =  1.00E-02,  avg # of iterations =  3.0

     Threshold (ethr) on eigenvalues was too large:
     Diagonalizing with lowered threshold

     Davidson diagonalization with overlap
     ethr =  6.50E-04,  avg # of iterations =  4.0

     total cpu time spent up to now is        5.5 secs

     total energy              =    -503.55949190 Ry
     estimated scf accuracy    <       1.84497854 Ry

     iteration #  2     ecut=    30.00 Ry     beta= 0.50
     Davidson diagonalization with overlap
     ethr =  7.21E-04,  avg # of iterations =  1.0

     total cpu time spent up to now is        5.6 secs

     total energy              =    -503.54959450 Ry
     estimated scf accuracy    <       0.34734435 Ry

     iteration #  3     ecut=    30.00 Ry     beta= 0.50
     Davidson diagonalization with overlap
     ethr =  1.36E-04,  avg # of iterations = 16.0

     total cpu time spent up to now is        5.8 secs

     total energy              =    -503.54711948 Ry
     estimated scf accuracy    <       0.19019513 Ry

     iteration #  4     ecut=    30.00 Ry     beta= 0.50
     Davidson diagonalization with overlap
     ethr =  7.43E-05,  avg # of iterations =  3.0

     total cpu time spent up to now is        5.9 secs

     total energy              =    -503.58119875 Ry
     estimated scf accuracy    <       0.02240663 Ry

     iteration #  5     ecut=    30.00 Ry     beta= 0.50
     Davidson diagonalization with overlap
     ethr =  8.75E-06,  avg # of iterations = 19.0

     total cpu time spent up to now is        6.1 secs

     total energy              =    -503.58352839 Ry
     estimated scf accuracy    <       0.00393505 Ry

     iteration #  6     ecut=    30.00 Ry     beta= 0.50
     Davidson diagonalization with overlap
     ethr =  1.54E-06,  avg # of iterations =  6.0

     total cpu time spent up to now is        6.2 secs

     total energy              =    -503.58426841 Ry
     estimated scf accuracy    <       0.00104882 Ry

     iteration #  7     ecut=    30.00 Ry     beta= 0.50
     Davidson diagonalization with overlap
     ethr =  4.10E-07,  avg # of iterations =  4.0

     total cpu time spent up to now is        6.4 secs

     total energy              =    -503.58439569 Ry
     estimated scf accuracy    <       0.00041655 Ry

     iteration #  8     ecut=    30.00 Ry     beta= 0.50
     Davidson diagonalization with overlap
     ethr =  1.63E-07,  avg # of iterations =  3.0

     total cpu time spent up to now is        6.5 secs

     total energy              =    -503.58445045 Ry
     estimated scf accuracy    <       0.00002181 Ry

     iteration #  9     ecut=    30.00 Ry     beta= 0.50
     Davidson diagonalization with overlap
     ethr =  8.52E-09,  avg # of iterations =  5.0

     total cpu time spent up to now is        6.6 secs

     total energy              =    -503.58445726 Ry
     estimated scf accuracy    <       0.00000909 Ry

     iteration # 10     ecut=    30.00 Ry     beta= 0.50
     Davidson diagonalization with overlap
     ethr =  3.55E-09,  avg # of iterations =  3.0

     total cpu time spent up to now is        6.7 secs

     total energy              =    -503.58445863 Ry
     estimated scf accuracy    <       0.00000286 Ry

     iteration # 11     ecut=    30.00 Ry     beta= 0.50
     Davidson diagonalization with overlap
     ethr =  1.12E-09,  avg # of iterations =  3.0

     total cpu time spent up to now is        6.8 secs

     End of self-consistent calculation

          k = 0.0000 0.0000 0.0000 ( 12401 PWs)   bands (ev):

    -5.9531  -5.0505  -4.9556  -4.9230  -4.8685  -4.7758  -4.6650  -4.2624
    -4.1249  -4.0144  -3.9746  -3.9643  -3.9199  -3.8912  -3.8320  -3.7957
    -3.7786  -3.7681  -3.6515  -3.5814  -3.5249  -3.4936  -3.3329  -2.2593
    -2.0955  -1.9819  -1.9460  -1.9077  -1.8675  -1.7935  -1.7682  -1.7103
    -1.7015  -1.6115  -1.5688  -1.5553  -1.4908  -1.4825  -1.4556  -1.4328
    -1.3798  -1.0162  -0.9345  -0.8918  -0.7879   0.2540   0.3097   0.3339
     0.4008   0.4358   0.4468   0.5254   0.5323   0.5516   0.6014   0.6214
     0.6707   1.8463   1.8954   1.9188   1.9519   1.9701   2.0190   2.0706
     2.0936   2.1001   2.1428   2.1743   2.1889   2.1994   2.2392   2.2478
     2.2729   2.3065   2.3344   2.3361   2.3557   2.3820   2.4183   2.4282
     2.4745   2.4935   2.5459   2.5777   2.6232   2.6728   2.7127   2.9629
     3.0106   3.0631   3.0838   3.3573   3.3679   3.8318   3.8614   3.9252
     3.9663   3.9969   4.0490   4.0580   4.1195   4.1346   4.1545   4.2092
     4.2658   4.3036   4.3440   4.4256   4.4556   4.5097   4.5636   4.6071
     4.6401   4.6670   4.7509   4.7750   4.8015   4.8148   4.8804   4.8969
     4.9306   4.9623   5.0090   5.0834   5.3715   5.7967   5.9911   6.1497
     6.3490   6.3818   6.5051   6.5759   6.7766   6.8257   6.8966   6.9807
     7.0118   7.0748   7.1345   7.1583   7.1997   7.2277   7.2839   7.3404
     7.9447   8.0119   8.0351   8.0849   8.1606   8.1970   8.2146   8.2620
     8.3308   8.3894

     the Fermi energy is     6.1976 ev

!    total energy              =    -503.58445914 Ry
     estimated scf accuracy    <       0.00000024 Ry
     smearing contrib. (-TS)   =      -0.06441126 Ry
     internal energy E=F+TS    =    -503.52004787 Ry

     The total energy is F=E-TS. E is the sum of the following terms:
     one-electron contribution =     140.63177968 Ry
     hartree contribution      =      38.39686858 Ry
     xc contribution           =    -153.22472540 Ry
     ewald contribution        =    -529.32397074 Ry

     convergence has been achieved in  11 iterations

     Forces acting on atoms (cartesian axes, Ry/au):

     atom    1 type  1   force =     0.03887916    0.05215627   -0.01061153
     atom    2 type  1   force =    -0.01349183    0.05456481    0.03509669
     atom    3 type  1   force =    -0.06625826    0.03824903    0.04000210
     atom    4 type  1   force =     0.03619615   -0.00648760   -0.00037097
     atom    5 type  1   force =     0.05236544   -0.02480127   -0.04116436
     atom    6 type  1   force =    -0.03641827    0.03589166    0.02408333
     atom    7 type  1   force =    -0.04813961    0.00559745    0.03325851
     atom    8 type  1   force =    -0.00477877   -0.00936796   -0.03099862
     atom    9 type  1   force =    -0.01421915    0.01561643   -0.00070554
     atom   10 type  1   force =    -0.02117524   -0.01042542   -0.06037212
     atom   11 type  1   force =     0.04983135    0.02851043   -0.06462332
     atom   12 type  1   force =     0.05458829    0.02347058   -0.02820089
     atom   13 type  1   force =     0.02763133   -0.00008235   -0.00302392
     atom   14 type  1   force =    -0.01777176   -0.02596949   -0.01294811
     atom   15 type  1   force =    -0.03472090   -0.01684125   -0.07299415
     atom   16 type  1   force =     0.06588110    0.02242452    0.02438761
     atom   17 type  1   force =    -0.01209301   -0.05697522    0.02912275
     atom   18 type  1   force =    -0.02334775    0.03198955    0.03232643
     atom   19 type  1   force =     0.01840607    0.01378747   -0.01283925
     atom   20 type  1   force =    -0.06035211    0.02736845    0.00721526
     atom   21 type  1   force =     0.06958709   -0.02188054   -0.03868108
     atom   22 type  1   force =    -0.04672563   -0.00946132    0.02115329
     atom   23 type  1   force =    -0.02433682   -0.03766526   -0.05758715
     atom   24 type  1   force =    -0.03071909   -0.05014724    0.04817665
     atom   25 type  1   force =     0.06269507    0.08040690   -0.04695408
     atom   26 type  1   force =    -0.00096945   -0.00637887    0.04853508
     atom   27 type  1   force =    -0.00497673    0.07005838   -0.02989137
     atom   28 type  1   force =     0.04238727    0.01918139   -0.03698503
     atom   29 type  1   force =     0.02439276    0.03926950    0.00409175
     atom   30 type  1   force =    -0.05702043   -0.04063496    0.00834677
     atom   31 type  1   force =    -0.04540933    0.02406720   -0.00371132
     atom   32 type  1   force =     0.03614050    0.02067056   -0.06245149
     atom   33 type  1   force =    -0.05116364   -0.01200419    0.03641141
     atom   34 type  1   force =     0.04631713   -0.02093351   -0.05522330
     atom   35 type  1   force =     0.02101355    0.05013010    0.00285384
     atom   36 type  1   force =     0.00725534    0.01754922    0.01314858
     atom   37 type  1   force =     0.00546607   -0.00566869   -0.03406704
     atom   38 type  1   force =     0.00083885    0.00367887   -0.01612341
     atom   39 type  1   force =    -0.02085968   -0.03584068   -0.00219930
     atom   40 type  1   force =     0.06220837   -0.03643056    0.01017071
     atom   41 type  1   force =    -0.02653352   -0.03991086   -0.03483503
     atom   42 type  1   force =    -0.03424737   -0.01753184    0.02708109
     atom   43 type  1   force =     0.04466841   -0.00911079   -0.04402684
     atom   44 type  1   force =    -0.00115506   -0.02717504    0.01564086
     atom   45 type  1   force =    -0.01657256    0.02029852   -0.01728340
     atom   46 type  1   force =    -0.02995962   -0.00039523    0.02935225
     atom   47 type  1   force =    -0.00136647   -0.00950419    0.03778409
     atom   48 type  1   force =    -0.10593558   -0.07184156    0.06522687
     atom   49 type  1   force =     0.08144251    0.04477475   -0.05232517
     atom   50 type  1   force =     0.08974668    0.00866576   -0.01600720
     atom   51 type  1   force =    -0.00360170    0.03357183    0.03143263
     atom   52 type  1   force =    -0.05623526   -0.04236116   -0.03062228
     atom   53 type  1   force =    -0.01589224   -0.00677454    0.02156779
     atom   54 type  1   force =    -0.08734937   -0.00920513    0.06746415
     atom   55 type  1   force =    -0.02755569   -0.02960481    0.04112599
     atom   56 type  1   force =     0.05106804   -0.00687285   -0.00594716
     atom   57 type  1   force =     0.04612203    0.02567014    0.07571159
     atom   58 type  1   force =     0.03379758   -0.04517067   -0.01522881
     atom   59 type  1   force =    -0.02024508    0.04627448    0.01980683
     atom   60 type  1   force =    -0.05672637    0.00789432    0.00561545
     atom   61 type  1   force =     0.02259154   -0.02562324    0.01846288
     atom   62 type  1   force =     0.00225738   -0.08874385    0.03519042
     atom   63 type  1   force =    -0.03701481    0.01332123    0.02649497
     atom   64 type  1   force =     0.06156311   -0.01728761    0.00266465

     Total force =     0.522218     Total SCF correction =     0.000717


     Computing stress (Cartesian axis) and pressure

          total   stress  (Ry/bohr**3)                   (kbar)     P=        7.32
   0.00010441   0.00005049  -0.00006731           15.36        7.43       -9.90
   0.00005049   0.00012292  -0.00002634            7.43       18.08       -3.88
  -0.00006731  -0.00002634  -0.00007810           -9.90       -3.88      -11.49

 
     init_run     :      1.19s CPU      5.11s WALL (       1 calls)
     electrons    :      1.49s CPU      1.62s WALL (       1 calls)
     forces       :      0.04s CPU      0.04s WALL (       1 calls)
     stress       :      0.17s CPU      0.17s WALL (       1 calls)

     Called by init_run:
     wfcinit      :      0.53s CPU      4.27s WALL (       1 calls)
                                        4.26s GPU  (       1 calls)
     potinit      :      0.21s CPU      0.31s WALL (       1 calls)
     hinit0       :      0.43s CPU      0.46s WALL (       1 calls)

     Called by electrons:
     c_bands      :      0.98s CPU      1.04s WALL (      12 calls)
     sum_band     :      0.26s CPU      0.30s WALL (      12 calls)
     v_of_rho     :      0.14s CPU      0.25s WALL (      12 calls)
     mix_rho      :      0.10s CPU      0.11s WALL (      12 calls)

     Called by c_bands:
     init_us_2    :      0.04s CPU      0.05s WALL (      25 calls)
     init_us_2:gp :      0.04s CPU      0.05s WALL (      25 calls)
     regterg      :      0.88s CPU      0.93s WALL (      12 calls)

     Called by *egterg:
     rdiaghg      :      0.42s CPU      1.18s WALL (      81 calls)
                                        1.16s GPU  (      81 calls)
     h_psi        :      0.83s CPU      3.83s WALL (      83 calls)
                                        3.83s GPU  (      83 calls)
     g_psi        :      0.00s CPU      0.00s WALL (      70 calls)
                                        0.00s GPU  (      70 calls)

     Called by h_psi:
     h_psi:calbec :      0.47s CPU      3.40s WALL (      83 calls)
                                        3.40s GPU  (      83 calls)
     vloc_psi     :      0.31s CPU      0.37s WALL (      83 calls)
                                        0.37s GPU  (      83 calls)
     add_vuspsi   :      0.03s CPU      0.05s WALL (      83 calls)
                                        0.05s GPU  (      83 calls)

     General routines
     calbec       :      0.48s CPU      3.41s WALL (      88 calls)
     fft          :      0.50s CPU      0.64s WALL (     103 calls)
                                        0.13s GPU  (      66 calls)
     ffts         :      0.03s CPU      0.04s WALL (      12 calls)
     fftw         :      0.36s CPU      0.48s WALL (    1332 calls)
                                        0.42s GPU  (    1332 calls)
 
     Parallel routines
 
     PWSCF        :      2.92s CPU      7.04s WALL

 
   This run was terminated on:  11:13: 2  10May2023            

=------------------------------------------------------------------------------=
   JOB DONE.
=------------------------------------------------------------------------------=
