An instance of this daemon is already running

     Program PWSCF v.7.1 starts on 10May2023 at 11:24:56 

     This program is part of the open-source Quantum ESPRESSO suite
     for quantum simulation of materials; please cite
         "P. Giannozzi et al., J. Phys.:Condens. Matter 21 395502 (2009);
         "P. Giannozzi et al., J. Phys.:Condens. Matter 29 465901 (2017);
         "P. Giannozzi et al., J. Chem. Phys. 152 154105 (2020);
          URL http://www.quantum-espresso.org", 
     in publications or presentations arising from this work. More details at
     http://www.quantum-espresso.org/quote

     Parallel version (MPI & OpenMP), running on       4 processor cores
     Number of MPI processes:                 4
     Threads/MPI process:                     1

     MPI processes distributed on     1 nodes
     753560 MiB available memory on the printing compute node when the environment starts
 
     Reading input from pw-si-92.in
Warning: card &CELL ignored
Warning: card / ignored

     Current dimensions of program PWSCF are:
     Max number of different atomic species (ntypx) = 10
     Max number of k-points (npk) =  40000
     Max angular momentum in pseudopotentials (lmaxx) =  4

     IMPORTANT: XC functional enforced from input :
     Exchange-correlation= PBE
                           (   1   4   3   4   0   0   0)
     Any further DFT definition will be discarded
     Please, verify this is what you really want


     gamma-point specific algorithms are used
 
     K-points division:     npool     =       2
     R & G space division:  proc/nbgrp/npool/nimage =       2
     Subspace diagonalization in iterative solution of the eigenvalue problem:
     a serial algorithm will be used

     Message from routine divide_et_impera:
     suboptimal parallelization: some nodes have no k-points
 
     Parallelization info
     --------------------
     sticks:   dense  smooth     PW     G-vecs:    dense   smooth      PW
     Min        2039    2039    539                97045    97045   13151
     Max        2040    2040    542                97048    97048   13154
     Sum        4079    4079   1081               194093   194093   26305
 
     Using Slab Decomposition
 


     bravais-lattice index     =            0
     lattice parameter (alat)  =      20.8288  a.u.
     unit-cell volume          =    8745.3324 (a.u.)^3
     number of atoms/cell      =           64
     number of atomic types    =            1
     number of electrons       =       256.00
     number of Kohn-Sham states=          154
     kinetic-energy cutoff     =      30.0000  Ry
     charge density cutoff     =     120.0000  Ry
     scf convergence threshold =      1.0E-06
     mixing beta               =       0.5000
     number of iterations used =            8  plain     mixing
     Exchange-correlation= PBE
                           (   1   4   3   4   0   0   0)

     GPU acceleration is ACTIVE.
     GPU-aware MPI enabled

     Message from routine print_cuda_info:
     High GPU oversubscription detected. Are you sure this is what you want?

     celldm(1)=  20.828806  celldm(2)=   0.000000  celldm(3)=   0.000000
     celldm(4)=   0.000000  celldm(5)=   0.000000  celldm(6)=   0.000000

     crystal axes: (cart. coord. in units of alat)
               a(1) = (   1.000000   0.000000   0.000000 )  
               a(2) = (   0.000000   0.986211   0.000000 )  
               a(3) = (   0.000000   0.000000   0.981326 )  

     reciprocal axes: (cart. coord. in units 2 pi/alat)
               b(1) = (  1.000000  0.000000  0.000000 )  
               b(2) = (  0.000000  1.013982  0.000000 )  
               b(3) = (  0.000000  0.000000  1.019029 )  


     PseudoPot. # 1 for Si read from file:
     /home/ppiaggi/pseudos/Si_ONCV_PBE_sr.upf
     MD5 check sum: 8553c464762ac42b85b1eed164b4d029
     Pseudo is Norm-conserving, Zval =  4.0
     Generated using ONCVPSP code by D. R. Hamann
     Using radial grid of 1510 points,  4 beta functions with: 
                l(1) =   0
                l(2) =   0
                l(3) =   1
                l(4) =   1

     atomic species   valence    mass     pseudopotential
        Si             4.00    28.08500     Si( 1.00)

     No symmetry found



   Cartesian axes

     site n.     atom                  positions (alat units)
         1           Si  tau(   1) = (   0.0070760   0.0011092  -0.0079391  )
         2           Si  tau(   2) = (  -0.0077577   0.2452135   0.2375374  )
         3           Si  tau(   3) = (   0.2420324  -0.0060609   0.2461832  )
         4           Si  tau(   4) = (   0.2516510   0.2505682   0.0005761  )
         5           Si  tau(   5) = (   0.1308921   0.1293234   0.1273659  )
         6           Si  tau(   6) = (   0.4902232   0.0033820   0.0018981  )
         7           Si  tau(   7) = (   0.4909933   0.2528331   0.2431091  )
         8           Si  tau(   8) = (   0.6172629   0.1222990   0.1299381  )
         9           Si  tau(   9) = (   0.7393020   0.0035080   0.2531916  )
        10           Si  tau(  10) = (   0.7337370   0.2571861  -0.0059380  )
        11           Si  tau(  11) = (  -0.0048027   0.5063004  -0.0013562  )
        12           Si  tau(  12) = (   0.2514957   0.5060908   0.2458186  )
        13           Si  tau(  13) = (   0.1235892   0.6211848   0.1201911  )
        14           Si  tau(  14) = (   0.3677829   0.3702835   0.1235543  )
        15           Si  tau(  15) = (   0.4944404   0.4966981   0.0089423  )
        16           Si  tau(  16) = (   0.6240586   0.6323400   0.1200276  )
        17           Si  tau(  17) = (   0.8654658   0.3659232   0.1165258  )
        18           Si  tau(  18) = (   0.7369116   0.4919466   0.2532484  )
        19           Si  tau(  19) = (  -0.0018404   0.7414297   0.2510674  )
        20           Si  tau(  20) = (   0.2528552   0.7569610   0.0068320  )
        21           Si  tau(  21) = (   0.3709272   0.8677465   0.1244206  )
        22           Si  tau(  22) = (   0.4916142   0.7578810   0.2543535  )
        23           Si  tau(  23) = (   0.7346040   0.7531554  -0.0002835  )
        24           Si  tau(  24) = (   0.8542400   0.8819003   0.1194022  )
        25           Si  tau(  25) = (  -0.0076059   0.0048610   0.4996467  )
        26           Si  tau(  26) = (   0.2421838   0.2553657   0.4953417  )
        27           Si  tau(  27) = (   0.1215966   0.1290929   0.6146007  )
        28           Si  tau(  28) = (   0.3780492   0.1169233   0.3721371  )
        29           Si  tau(  29) = (   0.4848053  -0.0062659   0.4966617  )
        30           Si  tau(  30) = (   0.6229618   0.1200142   0.6078771  )
        31           Si  tau(  31) = (   0.8708492   0.1209482   0.3682447  )
        32           Si  tau(  32) = (   0.7476552   0.2540608   0.4909037  )
        33           Si  tau(  33) = (   0.1271172   0.3769058   0.3669912  )
        34           Si  tau(  34) = (  -0.0084829   0.4953058   0.4927329  )
        35           Si  tau(  35) = (   0.1263926   0.6206391   0.6072696  )
        36           Si  tau(  36) = (   0.6251424   0.3673783   0.3618995  )
        37           Si  tau(  37) = (   0.3622419   0.6308504   0.3599790  )
        38           Si  tau(  38) = (   0.3679973   0.3812019   0.6074504  )
        39           Si  tau(  39) = (   0.4845806   0.5076569   0.4923498  )
        40           Si  tau(  40) = (   0.6189572   0.6212990   0.6221018  )
        41           Si  tau(  41) = (   0.8669867   0.6203527   0.3718466  )
        42           Si  tau(  42) = (   0.8608655   0.3744359   0.6184126  )
        43           Si  tau(  43) = (   0.1316149   0.8738234   0.3721556  )
        44           Si  tau(  44) = (   0.2444652   0.7572482   0.5006889  )
        45           Si  tau(  45) = (   0.6126594   0.8681569   0.3766527  )
        46           Si  tau(  46) = (   0.3693745   0.8712987   0.6145782  )
        47           Si  tau(  47) = (   0.7373388   0.7553926   0.4946492  )
        48           Si  tau(  48) = (   0.8659668   0.8755958   0.6161395  )
        49           Si  tau(  49) = (   0.0068197   0.2469564   0.7464474  )
        50           Si  tau(  50) = (   0.2450283   0.0015276   0.7450955  )
        51           Si  tau(  51) = (   0.3773966   0.1166211   0.8581638  )
        52           Si  tau(  52) = (   0.4955906   0.2588418   0.7363214  )
        53           Si  tau(  53) = (   0.7381343   0.0072661   0.7350773  )
        54           Si  tau(  54) = (   0.8563294   0.1291083   0.8664655  )
        55           Si  tau(  55) = (   0.1152498   0.3719218   0.8543428  )
        56           Si  tau(  56) = (   0.2553557   0.5016174   0.7363313  )
        57           Si  tau(  57) = (   0.6094010   0.3736583   0.8665121  )
        58           Si  tau(  58) = (   0.3609186   0.6160313   0.8580124  )
        59           Si  tau(  59) = (   0.7381175   0.5060369   0.7389575  )
        60           Si  tau(  60) = (   0.8701620   0.6266463   0.8543220  )
        61           Si  tau(  61) = (  -0.0082725   0.7540821   0.7289101  )
        62           Si  tau(  62) = (   0.1175673   0.8742003   0.8593719  )
        63           Si  tau(  63) = (   0.5015509   0.7481121   0.7466111  )
        64           Si  tau(  64) = (   0.6118170   0.8682084   0.8695468  )

     number of k points=     1  Fermi-Dirac smearing, width (Ry)=  0.0100
                       cart. coord. in units 2pi/alat
        k(    1) = (   0.0000000   0.0000000   0.0000000), wk =   2.0000000

     Dense  grid:    97047 G-vectors     FFT dimensions: (  75,  72,  72)

     Estimated max dynamical RAM per process >     155.21 MB

     Estimated total dynamical RAM >     597.15 MB

     Initial potential from superposition of free atoms

     starting charge     255.9608, renormalised to     256.0000
     Starting wfcs are  256 randomized atomic wfcs

     total cpu time spent up to now is        5.2 secs

     Self-consistent Calculation

     iteration #  1     ecut=    30.00 Ry     beta= 0.50
     Davidson diagonalization with overlap
     ethr =  1.00E-02,  avg # of iterations =  3.0

     Threshold (ethr) on eigenvalues was too large:
     Diagonalizing with lowered threshold

     Davidson diagonalization with overlap
     ethr =  6.76E-04,  avg # of iterations =  8.0

     total cpu time spent up to now is        5.5 secs

     total energy              =    -503.55955939 Ry
     estimated scf accuracy    <       1.91741951 Ry

     iteration #  2     ecut=    30.00 Ry     beta= 0.50
     Davidson diagonalization with overlap
     ethr =  7.49E-04,  avg # of iterations =  1.0

     total cpu time spent up to now is        5.6 secs

     total energy              =    -503.55040422 Ry
     estimated scf accuracy    <       0.34925486 Ry

     iteration #  3     ecut=    30.00 Ry     beta= 0.50
     Davidson diagonalization with overlap
     ethr =  1.36E-04,  avg # of iterations = 10.0

     total cpu time spent up to now is        5.8 secs

     total energy              =    -503.56069383 Ry
     estimated scf accuracy    <       0.09792657 Ry

     iteration #  4     ecut=    30.00 Ry     beta= 0.50
     Davidson diagonalization with overlap
     ethr =  3.83E-05,  avg # of iterations =  6.0

     total cpu time spent up to now is        5.9 secs

     total energy              =    -503.57944390 Ry
     estimated scf accuracy    <       0.01890713 Ry

     iteration #  5     ecut=    30.00 Ry     beta= 0.50
     Davidson diagonalization with overlap
     ethr =  7.39E-06,  avg # of iterations = 19.0

     total cpu time spent up to now is        6.1 secs

     total energy              =    -503.58176145 Ry
     estimated scf accuracy    <       0.00231552 Ry

     iteration #  6     ecut=    30.00 Ry     beta= 0.50
     Davidson diagonalization with overlap
     ethr =  9.04E-07,  avg # of iterations =  4.0

     total cpu time spent up to now is        6.2 secs

     total energy              =    -503.58221719 Ry
     estimated scf accuracy    <       0.00076468 Ry

     iteration #  7     ecut=    30.00 Ry     beta= 0.50
     Davidson diagonalization with overlap
     ethr =  2.99E-07,  avg # of iterations =  3.0

     total cpu time spent up to now is        6.3 secs

     total energy              =    -503.58229519 Ry
     estimated scf accuracy    <       0.00025380 Ry

     iteration #  8     ecut=    30.00 Ry     beta= 0.50
     Davidson diagonalization with overlap
     ethr =  9.91E-08,  avg # of iterations =  4.0

     total cpu time spent up to now is        6.5 secs

     total energy              =    -503.58233843 Ry
     estimated scf accuracy    <       0.00001298 Ry

     iteration #  9     ecut=    30.00 Ry     beta= 0.50
     Davidson diagonalization with overlap
     ethr =  5.07E-09,  avg # of iterations =  4.0

     total cpu time spent up to now is        6.6 secs

     total energy              =    -503.58234226 Ry
     estimated scf accuracy    <       0.00000275 Ry

     iteration # 10     ecut=    30.00 Ry     beta= 0.50
     Davidson diagonalization with overlap
     ethr =  1.08E-09,  avg # of iterations =  4.0

     total cpu time spent up to now is        6.7 secs

     End of self-consistent calculation

          k = 0.0000 0.0000 0.0000 ( 12109 PWs)   bands (ev):

    -5.8480  -4.8984  -4.8487  -4.8157  -4.7713  -4.6794  -4.5846  -4.0312
    -3.9777  -3.9365  -3.9205  -3.9077  -3.8423  -3.7938  -3.7251  -3.6933
    -3.6711  -3.5969  -3.5343  -3.4875  -3.4277  -3.3632  -3.2724  -2.0068
    -1.9207  -1.8919  -1.7881  -1.7413  -1.6865  -1.6622  -1.6389  -1.5593
    -1.5024  -1.4837  -1.4306  -1.4173  -1.3863  -1.3659  -1.3433  -1.3080
    -1.2310  -0.9189  -0.7813  -0.7152  -0.6553   0.4298   0.4531   0.5156
     0.5519   0.6117   0.6398   0.6769   0.6953   0.7255   0.7936   0.8361
     0.9018   2.0508   2.0998   2.1240   2.1534   2.1621   2.1986   2.2064
     2.2101   2.2383   2.2837   2.2971   2.3103   2.3397   2.3542   2.3850
     2.4338   2.4539   2.4639   2.5029   2.5063   2.5414   2.5448   2.5578
     2.5732   2.6018   2.6426   2.6695   2.7262   2.7821   2.8184   3.1976
     3.2630   3.2847   3.3120   3.3810   3.4263   4.0128   4.0746   4.1514
     4.1668   4.1859   4.2124   4.2301   4.2886   4.3372   4.3775   4.4383
     4.4594   4.4912   4.5914   4.6464   4.6570   4.7486   4.7656   4.7901
     4.8028   4.8828   4.9076   4.9124   4.9641   4.9999   5.0170   5.0585
     5.1006   5.1282   5.1974   5.2564   5.3586   6.0225   6.2707   6.3393
     6.6031   6.6713   6.7421   6.8072   6.8543   6.9464   7.0847   7.1738
     7.1945   7.2553   7.3151   7.3497   7.5117   7.5414   7.5689   7.5965
     8.2424   8.2927   8.3349   8.3619   8.3815   8.4220   8.4616   8.4751
     8.5382   8.5699

     the Fermi energy is     6.4333 ev

!    total energy              =    -503.58234256 Ry
     estimated scf accuracy    <       0.00000087 Ry
     smearing contrib. (-TS)   =      -0.06598499 Ry
     internal energy E=F+TS    =    -503.51635758 Ry

     The total energy is F=E-TS. E is the sum of the following terms:
     one-electron contribution =     146.54699051 Ry
     hartree contribution      =      37.36043775 Ry
     xc contribution           =    -153.94749230 Ry
     ewald contribution        =    -533.47629354 Ry

     convergence has been achieved in  10 iterations

     Forces acting on atoms (cartesian axes, Ry/au):

     atom    1 type  1   force =    -0.09682097    0.08464770    0.09049982
     atom    2 type  1   force =     0.01821332    0.01630718    0.03241738
     atom    3 type  1   force =     0.05327528    0.07166695   -0.01236681
     atom    4 type  1   force =    -0.02078159   -0.01171890   -0.03175764
     atom    5 type  1   force =    -0.02490312   -0.02380644   -0.03367606
     atom    6 type  1   force =     0.02571624    0.00535393    0.04439108
     atom    7 type  1   force =     0.01534463   -0.03627246    0.02832028
     atom    8 type  1   force =    -0.00580828    0.03146936   -0.03431910
     atom    9 type  1   force =    -0.01045028    0.00817758    0.01277832
     atom   10 type  1   force =     0.01283665   -0.04638052    0.05737149
     atom   11 type  1   force =    -0.01509554   -0.04089180   -0.00504797
     atom   12 type  1   force =    -0.03934342   -0.04955333   -0.02792414
     atom   13 type  1   force =     0.00260221    0.02751874    0.01067497
     atom   14 type  1   force =     0.00339943    0.03776131    0.01194880
     atom   15 type  1   force =    -0.01883988    0.03226052   -0.00831046
     atom   16 type  1   force =    -0.04268807   -0.04830291    0.05990731
     atom   17 type  1   force =     0.00544962    0.05324059    0.01315600
     atom   18 type  1   force =     0.05941141    0.05366774   -0.06708510
     atom   19 type  1   force =    -0.01654815    0.03306373   -0.01674846
     atom   20 type  1   force =    -0.06235886   -0.06624128   -0.05643159
     atom   21 type  1   force =     0.01963165    0.02975277    0.02317253
     atom   22 type  1   force =     0.01778989   -0.05267612   -0.04841082
     atom   23 type  1   force =     0.07683693   -0.01837487   -0.00723539
     atom   24 type  1   force =     0.07883390   -0.04972328    0.00051055
     atom   25 type  1   force =     0.02922268    0.01189851   -0.03862987
     atom   26 type  1   force =     0.02694615   -0.03118027   -0.03041842
     atom   27 type  1   force =     0.00826497   -0.01464421    0.02057146
     atom   28 type  1   force =    -0.05944151    0.04647455   -0.02310651
     atom   29 type  1   force =     0.06707136    0.05971404   -0.01063833
     atom   30 type  1   force =    -0.03951334    0.04847557   -0.00274564
     atom   31 type  1   force =     0.00569697    0.03128393    0.00871357
     atom   32 type  1   force =    -0.00490570   -0.03772512   -0.01071877
     atom   33 type  1   force =    -0.04534245   -0.00200826   -0.01561320
     atom   34 type  1   force =     0.01122287   -0.00333476    0.00033507
     atom   35 type  1   force =    -0.03044601    0.00370116    0.03058936
     atom   36 type  1   force =    -0.07373805    0.00783495    0.05726370
     atom   37 type  1   force =     0.02763077    0.02308776    0.06962567
     atom   38 type  1   force =     0.01101617   -0.02553121    0.02832873
     atom   39 type  1   force =     0.04915208   -0.00567905   -0.03944225
     atom   40 type  1   force =    -0.02637935    0.03654065   -0.04773164
     atom   41 type  1   force =    -0.01368105    0.00758642    0.00332346
     atom   42 type  1   force =     0.04735567    0.00383835    0.02401469
     atom   43 type  1   force =    -0.09740071   -0.04016909    0.03014648
     atom   44 type  1   force =     0.00737258   -0.04918483   -0.04498744
     atom   45 type  1   force =     0.01626713    0.02213497   -0.01125790
     atom   46 type  1   force =    -0.00838183   -0.04109981    0.08968267
     atom   47 type  1   force =     0.03406112   -0.05564787    0.01369995
     atom   48 type  1   force =    -0.01790453   -0.01464063   -0.00471394
     atom   49 type  1   force =    -0.10743261   -0.02508593   -0.04774621
     atom   50 type  1   force =     0.00306792    0.02552089   -0.05041032
     atom   51 type  1   force =    -0.02494693    0.07602550   -0.01402427
     atom   52 type  1   force =    -0.01127817   -0.04868331   -0.03207342
     atom   53 type  1   force =     0.00698733   -0.01727527    0.04751230
     atom   54 type  1   force =     0.06365082   -0.01575520   -0.03226550
     atom   55 type  1   force =     0.07117343    0.06134641    0.05372568
     atom   56 type  1   force =    -0.08965256   -0.04291781   -0.03136226
     atom   57 type  1   force =     0.01383340    0.05117741   -0.04288451
     atom   58 type  1   force =     0.07516534    0.06365884    0.06470766
     atom   59 type  1   force =     0.02042373   -0.05679044    0.03196593
     atom   60 type  1   force =    -0.01099341    0.02226300    0.01422196
     atom   61 type  1   force =     0.03052865   -0.03820630    0.01647605
     atom   62 type  1   force =     0.03857382   -0.08729948   -0.03220255
     atom   63 type  1   force =    -0.06075333   -0.02935109   -0.03062459
     atom   64 type  1   force =     0.02180355    0.03870085   -0.04714186

     Total force =     0.561464     Total SCF correction =     0.001715


     Computing stress (Cartesian axis) and pressure

          total   stress  (Ry/bohr**3)                   (kbar)     P=       27.44
   0.00013133   0.00005482   0.00007358           19.32        8.06       10.82
   0.00005482   0.00019610  -0.00000175            8.06       28.85       -0.26
   0.00007358  -0.00000175   0.00023211           10.82       -0.26       34.14

 
     init_run     :      1.29s CPU      5.15s WALL (       1 calls)
     electrons    :      1.38s CPU      1.48s WALL (       1 calls)
     forces       :      0.04s CPU      0.05s WALL (       1 calls)
     stress       :      0.16s CPU      0.17s WALL (       1 calls)

     Called by init_run:
     wfcinit      :      0.56s CPU      4.24s WALL (       1 calls)
                                        4.24s GPU  (       1 calls)
     potinit      :      0.21s CPU      0.30s WALL (       1 calls)
     hinit0       :      0.50s CPU      0.53s WALL (       1 calls)

     Called by electrons:
     c_bands      :      0.91s CPU      0.95s WALL (      11 calls)
     sum_band     :      0.25s CPU      0.28s WALL (      11 calls)
     v_of_rho     :      0.13s CPU      0.23s WALL (      11 calls)
     mix_rho      :      0.08s CPU      0.10s WALL (      11 calls)

     Called by c_bands:
     init_us_2    :      0.04s CPU      0.04s WALL (      23 calls)
     init_us_2:gp :      0.04s CPU      0.04s WALL (      23 calls)
     regterg      :      0.82s CPU      0.85s WALL (      11 calls)

     Called by *egterg:
     rdiaghg      :      0.37s CPU      1.12s WALL (      76 calls)
                                        1.10s GPU  (      76 calls)
     h_psi        :      0.86s CPU      3.81s WALL (      78 calls)
                                        3.81s GPU  (      78 calls)
     g_psi        :      0.00s CPU      0.00s WALL (      66 calls)
                                        0.00s GPU  (      66 calls)

     Called by h_psi:
     h_psi:calbec :      0.49s CPU      3.38s WALL (      78 calls)
                                        3.38s GPU  (      78 calls)
     vloc_psi     :      0.32s CPU      0.38s WALL (      78 calls)
                                        0.38s GPU  (      78 calls)
     add_vuspsi   :      0.03s CPU      0.05s WALL (      78 calls)
                                        0.05s GPU  (      78 calls)

     General routines
     calbec       :      0.50s CPU      3.39s WALL (      83 calls)
     fft          :      0.57s CPU      0.69s WALL (      95 calls)
                                        0.13s GPU  (      61 calls)
     ffts         :      0.03s CPU      0.04s WALL (      11 calls)
     fftw         :      0.36s CPU      0.48s WALL (    1227 calls)
                                        0.43s GPU  (    1227 calls)
 
     Parallel routines
 
     PWSCF        :      2.92s CPU      6.92s WALL

 
   This run was terminated on:  11:25: 3  10May2023            

=------------------------------------------------------------------------------=
   JOB DONE.
=------------------------------------------------------------------------------=
