An instance of this daemon is already running

     Program PWSCF v.7.1 starts on 10May2023 at 11:10:45 

     This program is part of the open-source Quantum ESPRESSO suite
     for quantum simulation of materials; please cite
         "P. Giannozzi et al., J. Phys.:Condens. Matter 21 395502 (2009);
         "P. Giannozzi et al., J. Phys.:Condens. Matter 29 465901 (2017);
         "P. Giannozzi et al., J. Chem. Phys. 152 154105 (2020);
          URL http://www.quantum-espresso.org", 
     in publications or presentations arising from this work. More details at
     http://www.quantum-espresso.org/quote

     Parallel version (MPI & OpenMP), running on       4 processor cores
     Number of MPI processes:                 4
     Threads/MPI process:                     1

     MPI processes distributed on     1 nodes
     753584 MiB available memory on the printing compute node when the environment starts
 
     Reading input from pw-si-1.in
Warning: card &CELL ignored
Warning: card / ignored

     Current dimensions of program PWSCF are:
     Max number of different atomic species (ntypx) = 10
     Max number of k-points (npk) =  40000
     Max angular momentum in pseudopotentials (lmaxx) =  4

     IMPORTANT: XC functional enforced from input :
     Exchange-correlation= PBE
                           (   1   4   3   4   0   0   0)
     Any further DFT definition will be discarded
     Please, verify this is what you really want


     gamma-point specific algorithms are used
 
     K-points division:     npool     =       2
     R & G space division:  proc/nbgrp/npool/nimage =       2
     Subspace diagonalization in iterative solution of the eigenvalue problem:
     a serial algorithm will be used

     Message from routine divide_et_impera:
     suboptimal parallelization: some nodes have no k-points
 
     Parallelization info
     --------------------
     sticks:   dense  smooth     PW     G-vecs:    dense   smooth      PW
     Min        2025    2025    534                97545    97545   13235
     Max        2026    2026    535                97550    97550   13238
     Sum        4051    4051   1069               195095   195095   26473
 
     Using Slab Decomposition
 


     bravais-lattice index     =            0
     lattice parameter (alat)  =      20.8967  a.u.
     unit-cell volume          =    8785.1113 (a.u.)^3
     number of atoms/cell      =           64
     number of atomic types    =            1
     number of electrons       =       256.00
     number of Kohn-Sham states=          154
     kinetic-energy cutoff     =      30.0000  Ry
     charge density cutoff     =     120.0000  Ry
     scf convergence threshold =      1.0E-06
     mixing beta               =       0.5000
     number of iterations used =            8  plain     mixing
     Exchange-correlation= PBE
                           (   1   4   3   4   0   0   0)

     GPU acceleration is ACTIVE.
     GPU-aware MPI enabled

     Message from routine print_cuda_info:
     High GPU oversubscription detected. Are you sure this is what you want?

     celldm(1)=  20.896725  celldm(2)=   0.000000  celldm(3)=   0.000000
     celldm(4)=   0.000000  celldm(5)=   0.000000  celldm(6)=   0.000000

     crystal axes: (cart. coord. in units of alat)
               a(1) = (   1.000000   0.000000   0.000000 )  
               a(2) = (   0.000000   0.971330   0.000000 )  
               a(3) = (   0.000000   0.000000   0.991164 )  

     reciprocal axes: (cart. coord. in units 2 pi/alat)
               b(1) = (  1.000000  0.000000  0.000000 )  
               b(2) = (  0.000000  1.029516  0.000000 )  
               b(3) = (  0.000000  0.000000  1.008914 )  


     PseudoPot. # 1 for Si read from file:
     /home/ppiaggi/pseudos/Si_ONCV_PBE_sr.upf
     MD5 check sum: 8553c464762ac42b85b1eed164b4d029
     Pseudo is Norm-conserving, Zval =  4.0
     Generated using ONCVPSP code by D. R. Hamann
     Using radial grid of 1510 points,  4 beta functions with: 
                l(1) =   0
                l(2) =   0
                l(3) =   1
                l(4) =   1

     atomic species   valence    mass     pseudopotential
        Si             4.00    28.08500     Si( 1.00)

     No symmetry found



   Cartesian axes

     site n.     atom                  positions (alat units)
         1           Si  tau(   1) = (   0.0076145  -0.0037480   0.0082726  )
         2           Si  tau(   2) = (  -0.0075990   0.2322405   0.2603212  )
         3           Si  tau(   3) = (   0.2552483   0.0034086   0.2541377  )
         4           Si  tau(   4) = (   0.2419293   0.2329937  -0.0073981  )
         5           Si  tau(   5) = (   0.1166149   0.1249016   0.1212653  )
         6           Si  tau(   6) = (   0.5093060   0.0064990   0.0066897  )
         7           Si  tau(   7) = (   0.4987102   0.2386548   0.2599156  )
         8           Si  tau(   8) = (   0.6291485   0.1270946   0.1183766  )
         9           Si  tau(   9) = (   0.7523130   0.0024544   0.2599679  )
        10           Si  tau(  10) = (   0.7438520   0.2446195   0.0051479  )
        11           Si  tau(  11) = (   0.0030106   0.4769740   0.0056971  )
        12           Si  tau(  12) = (   0.2424586   0.4788196   0.2587965  )
        13           Si  tau(  13) = (   0.1313048   0.6046422   0.1343694  )
        14           Si  tau(  14) = (   0.3804814   0.3579729   0.1235639  )
        15           Si  tau(  15) = (   0.5096747   0.4876901   0.0007734  )
        16           Si  tau(  16) = (   0.6295947   0.5940265   0.1286189  )
        17           Si  tau(  17) = (   0.8711380   0.3548800   0.1349878  )
        18           Si  tau(  18) = (   0.7572255   0.4768868   0.2616830  )
        19           Si  tau(  19) = (  -0.0082450   0.7236513   0.2523596  )
        20           Si  tau(  20) = (   0.2585851   0.7258103  -0.0069843  )
        21           Si  tau(  21) = (   0.3823636   0.8431102   0.1325363  )
        22           Si  tau(  22) = (   0.5020845   0.7167181   0.2556409  )
        23           Si  tau(  23) = (   0.7518065   0.7281206   0.0046787  )
        24           Si  tau(  24) = (   0.8840339   0.8410750   0.1304797  )
        25           Si  tau(  25) = (  -0.0055259   0.0085244   0.5085050  )
        26           Si  tau(  26) = (   0.2542898   0.2363572   0.5099153  )
        27           Si  tau(  27) = (   0.1190481   0.1257997   0.6343504  )
        28           Si  tau(  28) = (   0.3748294   0.1249737   0.3887616  )
        29           Si  tau(  29) = (   0.5035397  -0.0068119   0.5156764  )
        30           Si  tau(  30) = (   0.6249143   0.1193840   0.6451441  )
        31           Si  tau(  31) = (   0.8800394   0.1259345   0.3755282  )
        32           Si  tau(  32) = (   0.7585368   0.2369663   0.5041471  )
        33           Si  tau(  33) = (   0.1323631   0.3599732   0.3858954  )
        34           Si  tau(  34) = (  -0.0000617   0.4854066   0.5121772  )
        35           Si  tau(  35) = (   0.1267259   0.6061024   0.6425601  )
        36           Si  tau(  36) = (   0.6200679   0.3575577   0.3765061  )
        37           Si  tau(  37) = (   0.3801443   0.5967601   0.3912054  )
        38           Si  tau(  38) = (   0.3672669   0.3551894   0.6463085  )
        39           Si  tau(  39) = (   0.4979109   0.4786506   0.5045992  )
        40           Si  tau(  40) = (   0.6219974   0.5952125   0.6426043  )
        41           Si  tau(  41) = (   0.8817406   0.6014630   0.3861081  )
        42           Si  tau(  42) = (   0.8686867   0.3513522   0.6413960  )
        43           Si  tau(  43) = (   0.1244114   0.8374475   0.3865096  )
        44           Si  tau(  44) = (   0.2479165   0.7239030   0.5086955  )
        45           Si  tau(  45) = (   0.6303005   0.8432644   0.3759870  )
        46           Si  tau(  46) = (   0.3708886   0.8435443   0.6335606  )
        47           Si  tau(  47) = (   0.7577729   0.7242448   0.5109838  )
        48           Si  tau(  48) = (   0.8750838   0.8347430   0.6344535  )
        49           Si  tau(  49) = (   0.0065655   0.2347258   0.7750199  )
        50           Si  tau(  50) = (   0.2425416  -0.0014276   0.7660254  )
        51           Si  tau(  51) = (   0.3684726   0.1227619   0.9007943  )
        52           Si  tau(  52) = (   0.4969296   0.2412971   0.7577756  )
        53           Si  tau(  53) = (   0.7518693  -0.0016411   0.7646429  )
        54           Si  tau(  54) = (   0.8798579   0.1191777   0.9022808  )
        55           Si  tau(  55) = (   0.1307841   0.3523365   0.8965828  )
        56           Si  tau(  56) = (   0.2569596   0.4762433   0.7667605  )
        57           Si  tau(  57) = (   0.6217860   0.3614507   0.9027019  )
        58           Si  tau(  58) = (   0.3824004   0.5994819   0.8850966  )
        59           Si  tau(  59) = (   0.7443553   0.4783673   0.7670122  )
        60           Si  tau(  60) = (   0.8741838   0.5916623   0.8873969  )
        61           Si  tau(  61) = (  -0.0025994   0.7252780   0.7634850  )
        62           Si  tau(  62) = (   0.1223135   0.8362150   0.8944250  )
        63           Si  tau(  63) = (   0.4944567   0.7220952   0.7626396  )
        64           Si  tau(  64) = (   0.6227500   0.8397170   0.8943749  )

     number of k points=     1  Fermi-Dirac smearing, width (Ry)=  0.0100
                       cart. coord. in units 2pi/alat
        k(    1) = (   0.0000000   0.0000000   0.0000000), wk =   2.0000000

     Dense  grid:    97548 G-vectors     FFT dimensions: (  75,  72,  75)

     Estimated max dynamical RAM per process >     156.60 MB

     Estimated total dynamical RAM >     602.60 MB

     Initial potential from superposition of free atoms

     starting charge     255.9608, renormalised to     256.0000
     Starting wfcs are  256 randomized atomic wfcs

     total cpu time spent up to now is        5.1 secs

     Self-consistent Calculation

     iteration #  1     ecut=    30.00 Ry     beta= 0.50
     Davidson diagonalization with overlap
     ethr =  1.00E-02,  avg # of iterations =  3.0

     Threshold (ethr) on eigenvalues was too large:
     Diagonalizing with lowered threshold

     Davidson diagonalization with overlap
     ethr =  6.67E-04,  avg # of iterations =  2.0

     total cpu time spent up to now is        5.4 secs

     total energy              =    -503.39596286 Ry
     estimated scf accuracy    <       1.89935136 Ry

     iteration #  2     ecut=    30.00 Ry     beta= 0.50
     Davidson diagonalization with overlap
     ethr =  7.42E-04,  avg # of iterations =  2.0

     total cpu time spent up to now is        5.5 secs

     total energy              =    -503.37487091 Ry
     estimated scf accuracy    <       0.38786232 Ry

     iteration #  3     ecut=    30.00 Ry     beta= 0.50
     Davidson diagonalization with overlap
     ethr =  1.52E-04,  avg # of iterations = 13.0

     total cpu time spent up to now is        5.7 secs

     total energy              =    -503.30773743 Ry
     estimated scf accuracy    <       0.79390865 Ry

     iteration #  4     ecut=    30.00 Ry     beta= 0.50
     Davidson diagonalization with overlap
     ethr =  1.52E-04,  avg # of iterations =  6.0

     total cpu time spent up to now is        5.8 secs

     total energy              =    -503.42911610 Ry
     estimated scf accuracy    <       0.03886784 Ry

     iteration #  5     ecut=    30.00 Ry     beta= 0.50
     Davidson diagonalization with overlap
     ethr =  1.52E-05,  avg # of iterations = 12.0

     total cpu time spent up to now is        6.0 secs

     total energy              =    -503.43200180 Ry
     estimated scf accuracy    <       0.01228341 Ry

     iteration #  6     ecut=    30.00 Ry     beta= 0.50
     Davidson diagonalization with overlap
     ethr =  4.80E-06,  avg # of iterations =  6.0

     total cpu time spent up to now is        6.2 secs

     total energy              =    -503.43350012 Ry
     estimated scf accuracy    <       0.00303600 Ry

     iteration #  7     ecut=    30.00 Ry     beta= 0.50
     Davidson diagonalization with overlap
     ethr =  1.19E-06,  avg # of iterations =  4.0

     total cpu time spent up to now is        6.3 secs

     total energy              =    -503.43407648 Ry
     estimated scf accuracy    <       0.00046217 Ry

     iteration #  8     ecut=    30.00 Ry     beta= 0.50
     Davidson diagonalization with overlap
     ethr =  1.81E-07,  avg # of iterations =  3.0

     total cpu time spent up to now is        6.4 secs

     total energy              =    -503.43410689 Ry
     estimated scf accuracy    <       0.00011942 Ry

     iteration #  9     ecut=    30.00 Ry     beta= 0.50
     Davidson diagonalization with overlap
     ethr =  4.67E-08,  avg # of iterations =  4.0

     total cpu time spent up to now is        6.5 secs

     total energy              =    -503.43411917 Ry
     estimated scf accuracy    <       0.00002905 Ry

     iteration # 10     ecut=    30.00 Ry     beta= 0.50
     Davidson diagonalization with overlap
     ethr =  1.13E-08,  avg # of iterations =  4.0

     total cpu time spent up to now is        6.6 secs

     total energy              =    -503.43412408 Ry
     estimated scf accuracy    <       0.00000170 Ry

     iteration # 11     ecut=    30.00 Ry     beta= 0.50
     Davidson diagonalization with overlap
     ethr =  6.64E-10,  avg # of iterations =  4.0

     total cpu time spent up to now is        6.8 secs

     End of self-consistent calculation

          k = 0.0000 0.0000 0.0000 ( 12198 PWs)   bands (ev):

    -5.9565  -5.0717  -4.9973  -4.9526  -4.8527  -4.6657  -4.5273  -4.2872
    -4.1623  -4.0007  -3.9510  -3.9102  -3.8733  -3.8015  -3.7154  -3.6846
    -3.6292  -3.5760  -3.5624  -3.4742  -3.4650  -3.3326  -3.1771  -2.1856
    -2.0688  -1.8985  -1.8171  -1.8001  -1.7272  -1.6776  -1.6363  -1.6043
    -1.5605  -1.5236  -1.4810  -1.4498  -1.3973  -1.3735  -1.3364  -1.3030
    -1.1980  -0.9715  -0.8559  -0.8408  -0.5855   0.3607   0.4010   0.4238
     0.4677   0.5180   0.5648   0.5914   0.6200   0.6404   0.7504   0.7560
     0.9036   1.8464   1.9363   1.9650   2.0041   2.0824   2.1387   2.1701
     2.1917   2.2258   2.2390   2.2516   2.2951   2.3049   2.3297   2.3860
     2.3961   2.4508   2.4757   2.4873   2.5121   2.5157   2.5434   2.5796
     2.6082   2.6293   2.6570   2.6856   2.6913   2.7713   2.8332   2.9934
     3.1487   3.1883   3.3038   3.4043   3.4366   3.8240   3.9639   4.0156
     4.0262   4.1355   4.1388   4.2109   4.2702   4.3137   4.3280   4.3716
     4.4499   4.4589   4.5267   4.5712   4.6336   4.6993   4.7288   4.7965
     4.8403   4.8709   4.9024   4.9396   4.9903   5.0147   5.0465   5.0789
     5.1058   5.1645   5.2233   5.2401   5.2820   5.9342   6.1457   6.3605
     6.3938   6.4884   6.5580   6.8285   6.9305   6.9548   7.0224   7.0850
     7.2129   7.2577   7.2685   7.3559   7.3928   7.4180   7.4600   7.4961
     8.0715   8.1019   8.1427   8.2241   8.3405   8.3660   8.4278   8.4574
     8.4926   8.5334

     the Fermi energy is     6.3264 ev

!    total energy              =    -503.43412458 Ry
     estimated scf accuracy    <       0.00000039 Ry
     smearing contrib. (-TS)   =      -0.06793294 Ry
     internal energy E=F+TS    =    -503.36619164 Ry

     The total energy is F=E-TS. E is the sum of the following terms:
     one-electron contribution =     143.38275836 Ry
     hartree contribution      =      38.40911409 Ry
     xc contribution           =    -153.74142623 Ry
     ewald contribution        =    -531.41663788 Ry

     convergence has been achieved in  11 iterations

     Forces acting on atoms (cartesian axes, Ry/au):

     atom    1 type  1   force =    -0.02394680   -0.03372485    0.04332764
     atom    2 type  1   force =     0.09123342    0.08371834   -0.06068712
     atom    3 type  1   force =    -0.02756114   -0.02072047    0.00324572
     atom    4 type  1   force =     0.03761928    0.01130190    0.18828275
     atom    5 type  1   force =     0.04103742   -0.01431454    0.07272913
     atom    6 type  1   force =    -0.03958130   -0.04442387    0.03306427
     atom    7 type  1   force =    -0.00069576   -0.00670215   -0.04813288
     atom    8 type  1   force =    -0.01390513   -0.03079595    0.11265734
     atom    9 type  1   force =     0.00131198   -0.01178489   -0.05101565
     atom   10 type  1   force =     0.08582460   -0.01726965    0.04768830
     atom   11 type  1   force =     0.00465277    0.00460550    0.07832319
     atom   12 type  1   force =     0.06974597    0.00698258   -0.01353305
     atom   13 type  1   force =    -0.02325198    0.01168624   -0.02728627
     atom   14 type  1   force =    -0.03239442    0.00829875    0.01778579
     atom   15 type  1   force =    -0.06395012    0.00981549    0.10133206
     atom   16 type  1   force =     0.02673202    0.04119517    0.03994755
     atom   17 type  1   force =     0.02307130    0.01167951   -0.00414205
     atom   18 type  1   force =    -0.02394906    0.01758948   -0.00492915
     atom   19 type  1   force =     0.06863595   -0.02642464    0.03699505
     atom   20 type  1   force =     0.01563744   -0.02443075    0.11706754
     atom   21 type  1   force =    -0.01021153    0.02468579   -0.00871028
     atom   22 type  1   force =     0.00975608   -0.00421343    0.00418283
     atom   23 type  1   force =     0.03496745   -0.05450501    0.06211037
     atom   24 type  1   force =    -0.05660315    0.05626474   -0.00648447
     atom   25 type  1   force =     0.01790336   -0.06138582   -0.00036270
     atom   26 type  1   force =    -0.03032527    0.02901759    0.02214722
     atom   27 type  1   force =     0.02044338   -0.02867375    0.01383354
     atom   28 type  1   force =     0.03173758   -0.05879172   -0.01113699
     atom   29 type  1   force =    -0.00079792    0.00874939   -0.02821378
     atom   30 type  1   force =     0.01862955   -0.00869204   -0.04317233
     atom   31 type  1   force =    -0.05883321   -0.07554971    0.06661661
     atom   32 type  1   force =    -0.06028981    0.00943934    0.01222009
     atom   33 type  1   force =    -0.05708605   -0.01980785    0.01396781
     atom   34 type  1   force =     0.02073457   -0.03805363    0.02406487
     atom   35 type  1   force =     0.00405090   -0.02013980   -0.00584114
     atom   36 type  1   force =     0.03825432    0.00468131    0.04175313
     atom   37 type  1   force =    -0.05207817    0.03147737   -0.04675241
     atom   38 type  1   force =     0.03311683    0.00937218   -0.07112917
     atom   39 type  1   force =     0.02215286   -0.03468754    0.05963732
     atom   40 type  1   force =     0.00313747    0.02985220   -0.03620305
     atom   41 type  1   force =    -0.02575846    0.00256520   -0.00451073
     atom   42 type  1   force =     0.03884990    0.02810796    0.00809763
     atom   43 type  1   force =    -0.02243863    0.06139037   -0.02879207
     atom   44 type  1   force =     0.01791755   -0.02332158    0.00885663
     atom   45 type  1   force =    -0.01213760    0.00423396    0.03997551
     atom   46 type  1   force =    -0.00048947    0.01957514    0.02390355
     atom   47 type  1   force =    -0.05452185   -0.03689122   -0.02554364
     atom   48 type  1   force =     0.01059936    0.08732279    0.01772384
     atom   49 type  1   force =    -0.03704169    0.01802931   -0.03759736
     atom   50 type  1   force =     0.01120533   -0.00814357   -0.01536393
     atom   51 type  1   force =     0.09005816   -0.08616131   -0.14361581
     atom   52 type  1   force =     0.00887615   -0.00813326    0.06362111
     atom   53 type  1   force =     0.01126738   -0.02520900    0.01295466
     atom   54 type  1   force =    -0.02751900   -0.00859946   -0.08270580
     atom   55 type  1   force =    -0.07299225    0.10953136   -0.12608019
     atom   56 type  1   force =    -0.05059569    0.02853259    0.00912154
     atom   57 type  1   force =    -0.00188076   -0.02525470   -0.16590750
     atom   58 type  1   force =    -0.02453391   -0.00329281   -0.04853875
     atom   59 type  1   force =     0.00286783   -0.02705276   -0.01224480
     atom   60 type  1   force =    -0.00451936    0.04612240   -0.03983022
     atom   61 type  1   force =     0.00551475   -0.03080356    0.00822354
     atom   62 type  1   force =    -0.01584839    0.04425401   -0.08946518
     atom   63 type  1   force =     0.02733553    0.01815536   -0.02674248
     atom   64 type  1   force =    -0.01914056    0.03972198   -0.09078719

     Total force =     0.638738     Total SCF correction =     0.001041


     Computing stress (Cartesian axis) and pressure

          total   stress  (Ry/bohr**3)                   (kbar)     P=       25.23
   0.00015419  -0.00018258   0.00006445           22.68      -26.86        9.48
  -0.00018258   0.00026616  -0.00001838          -26.86       39.15       -2.70
   0.00006445  -0.00001838   0.00009425            9.48       -2.70       13.86

 
     init_run     :      1.19s CPU      5.06s WALL (       1 calls)
     electrons    :      1.51s CPU      1.63s WALL (       1 calls)
     forces       :      0.04s CPU      0.05s WALL (       1 calls)
     stress       :      0.17s CPU      0.17s WALL (       1 calls)

     Called by init_run:
     wfcinit      :      0.54s CPU      4.24s WALL (       1 calls)
                                        4.24s GPU  (       1 calls)
     potinit      :      0.21s CPU      0.30s WALL (       1 calls)
     hinit0       :      0.42s CPU      0.45s WALL (       1 calls)

     Called by electrons:
     c_bands      :      0.97s CPU      1.03s WALL (      12 calls)
     sum_band     :      0.30s CPU      0.32s WALL (      12 calls)
     v_of_rho     :      0.14s CPU      0.25s WALL (      12 calls)
     mix_rho      :      0.10s CPU      0.11s WALL (      12 calls)

     Called by c_bands:
     init_us_2    :      0.04s CPU      0.05s WALL (      25 calls)
     init_us_2:gp :      0.04s CPU      0.05s WALL (      25 calls)
     regterg      :      0.86s CPU      0.91s WALL (      12 calls)

     Called by *egterg:
     rdiaghg      :      0.35s CPU      1.11s WALL (      74 calls)
                                        1.09s GPU  (      74 calls)
     h_psi        :      0.91s CPU      3.87s WALL (      76 calls)
                                        3.87s GPU  (      76 calls)
     g_psi        :      0.00s CPU      0.00s WALL (      63 calls)
                                        0.00s GPU  (      63 calls)

     Called by h_psi:
     h_psi:calbec :      0.49s CPU      3.38s WALL (      76 calls)
                                        3.38s GPU  (      76 calls)
     vloc_psi     :      0.37s CPU      0.44s WALL (      76 calls)
                                        0.44s GPU  (      76 calls)
     add_vuspsi   :      0.03s CPU      0.05s WALL (      76 calls)
                                        0.05s GPU  (      76 calls)

     General routines
     calbec       :      0.50s CPU      3.38s WALL (      81 calls)
     fft          :      0.51s CPU      0.63s WALL (     103 calls)
                                        0.13s GPU  (      66 calls)
     ffts         :      0.04s CPU      0.04s WALL (      12 calls)
     fftw         :      0.41s CPU      0.56s WALL (    1318 calls)
                                        0.50s GPU  (    1318 calls)
 
     Parallel routines
 
     PWSCF        :      2.95s CPU      7.00s WALL

 
   This run was terminated on:  11:10:52  10May2023            

=------------------------------------------------------------------------------=
   JOB DONE.
=------------------------------------------------------------------------------=
