An instance of this daemon is already running
An instance of this daemon is already running

     Program PWSCF v.7.1 starts on 10May2023 at 11:12: 9 

     This program is part of the open-source Quantum ESPRESSO suite
     for quantum simulation of materials; please cite
         "P. Giannozzi et al., J. Phys.:Condens. Matter 21 395502 (2009);
         "P. Giannozzi et al., J. Phys.:Condens. Matter 29 465901 (2017);
         "P. Giannozzi et al., J. Chem. Phys. 152 154105 (2020);
          URL http://www.quantum-espresso.org", 
     in publications or presentations arising from this work. More details at
     http://www.quantum-espresso.org/quote

     Parallel version (MPI & OpenMP), running on       4 processor cores
     Number of MPI processes:                 4
     Threads/MPI process:                     1

     MPI processes distributed on     1 nodes
     753578 MiB available memory on the printing compute node when the environment starts
 
     Reading input from pw-si-10.in
Warning: card &CELL ignored
Warning: card / ignored

     Current dimensions of program PWSCF are:
     Max number of different atomic species (ntypx) = 10
     Max number of k-points (npk) =  40000
     Max angular momentum in pseudopotentials (lmaxx) =  4

     IMPORTANT: XC functional enforced from input :
     Exchange-correlation= PBE
                           (   1   4   3   4   0   0   0)
     Any further DFT definition will be discarded
     Please, verify this is what you really want


     gamma-point specific algorithms are used
 
     K-points division:     npool     =       2
     R & G space division:  proc/nbgrp/npool/nimage =       2
     Subspace diagonalization in iterative solution of the eigenvalue problem:
     a serial algorithm will be used

     Message from routine divide_et_impera:
     suboptimal parallelization: some nodes have no k-points
 
     Parallelization info
     --------------------
     sticks:   dense  smooth     PW     G-vecs:    dense   smooth      PW
     Min        2036    2036    540                99756    99756   13536
     Max        2039    2039    541                99759    99759   13537
     Sum        4075    4075   1081               199515   199515   27073
 
     Using Slab Decomposition
 


     bravais-lattice index     =            0
     lattice parameter (alat)  =      21.0157  a.u.
     unit-cell volume          =    8990.1163 (a.u.)^3
     number of atoms/cell      =           64
     number of atomic types    =            1
     number of electrons       =       256.00
     number of Kohn-Sham states=          154
     kinetic-energy cutoff     =      30.0000  Ry
     charge density cutoff     =     120.0000  Ry
     scf convergence threshold =      1.0E-06
     mixing beta               =       0.5000
     number of iterations used =            8  plain     mixing
     Exchange-correlation= PBE
                           (   1   4   3   4   0   0   0)

     GPU acceleration is ACTIVE.
     GPU-aware MPI enabled

     Message from routine print_cuda_info:
     High GPU oversubscription detected. Are you sure this is what you want?

     celldm(1)=  21.015678  celldm(2)=   0.000000  celldm(3)=   0.000000
     celldm(4)=   0.000000  celldm(5)=   0.000000  celldm(6)=   0.000000

     crystal axes: (cart. coord. in units of alat)
               a(1) = (   1.000000   0.000000   0.000000 )  
               a(2) = (   0.000000   0.967172   0.000000 )  
               a(3) = (   0.000000   0.000000   1.001455 )  

     reciprocal axes: (cart. coord. in units 2 pi/alat)
               b(1) = (  1.000000  0.000000  0.000000 )  
               b(2) = (  0.000000  1.033942  0.000000 )  
               b(3) = (  0.000000  0.000000  0.998547 )  


     PseudoPot. # 1 for Si read from file:
     /home/ppiaggi/pseudos/Si_ONCV_PBE_sr.upf
     MD5 check sum: 8553c464762ac42b85b1eed164b4d029
     Pseudo is Norm-conserving, Zval =  4.0
     Generated using ONCVPSP code by D. R. Hamann
     Using radial grid of 1510 points,  4 beta functions with: 
                l(1) =   0
                l(2) =   0
                l(3) =   1
                l(4) =   1

     atomic species   valence    mass     pseudopotential
        Si             4.00    28.08500     Si( 1.00)

     No symmetry found



   Cartesian axes

     site n.     atom                  positions (alat units)
         1           Si  tau(   1) = (   0.0001245   0.0018239   0.0075079  )
         2           Si  tau(   2) = (  -0.0050601   0.2327996   0.2617510  )
         3           Si  tau(   3) = (   0.2437314  -0.0037821   0.2476439  )
         4           Si  tau(   4) = (   0.2383497   0.2369701   0.0059455  )
         5           Si  tau(   5) = (   0.1146723   0.1216643   0.1215743  )
         6           Si  tau(   6) = (   0.4869488  -0.0053796  -0.0064614  )
         7           Si  tau(   7) = (   0.4960782   0.2424415   0.2623278  )
         8           Si  tau(   8) = (   0.6240771   0.1184576   0.1196506  )
         9           Si  tau(   9) = (   0.7314019  -0.0016067   0.2548184  )
        10           Si  tau(  10) = (   0.7413482   0.2407141  -0.0062360  )
        11           Si  tau(  11) = (  -0.0007551   0.4815623   0.0078961  )
        12           Si  tau(  12) = (   0.2472715   0.4758160   0.2539779  )
        13           Si  tau(  13) = (   0.1201500   0.5888425   0.1322981  )
        14           Si  tau(  14) = (   0.3609738   0.3626575   0.1178773  )
        15           Si  tau(  15) = (   0.4984533   0.4735704   0.0008514  )
        16           Si  tau(  16) = (   0.6227085   0.5998444   0.1220159  )
        17           Si  tau(  17) = (   0.8558278   0.3512392   0.1190603  )
        18           Si  tau(  18) = (   0.7307151   0.4759463   0.2480971  )
        19           Si  tau(  19) = (  -0.0052711   0.7040631   0.2514130  )
        20           Si  tau(  20) = (   0.2459979   0.7099263   0.0005430  )
        21           Si  tau(  21) = (   0.3630305   0.8282447   0.1313827  )
        22           Si  tau(  22) = (   0.4859148   0.7080571   0.2472564  )
        23           Si  tau(  23) = (   0.7383329   0.7151777  -0.0042456  )
        24           Si  tau(  24) = (   0.8532577   0.8371669   0.1197362  )
        25           Si  tau(  25) = (  -0.0077961  -0.0083584   0.5055581  )
        26           Si  tau(  26) = (   0.2529233   0.2362348   0.5102373  )
        27           Si  tau(  27) = (   0.1255861   0.1105231   0.6403956  )
        28           Si  tau(  28) = (   0.3750527   0.1129456   0.3770211  )
        29           Si  tau(  29) = (   0.4862842  -0.0074231   0.5058578  )
        30           Si  tau(  30) = (   0.6068251   0.1230663   0.6323979  )
        31           Si  tau(  31) = (   0.8584566   0.1190205   0.3878732  )
        32           Si  tau(  32) = (   0.7473246   0.2349286   0.5036364  )
        33           Si  tau(  33) = (   0.1151639   0.3565713   0.3809602  )
        34           Si  tau(  34) = (   0.0059267   0.4694779   0.5030588  )
        35           Si  tau(  35) = (   0.1161558   0.5940106   0.6329104  )
        36           Si  tau(  36) = (   0.6138915   0.3511628   0.3847621  )
        37           Si  tau(  37) = (   0.3664182   0.5942914   0.3709353  )
        38           Si  tau(  38) = (   0.3618265   0.3580858   0.6304649  )
        39           Si  tau(  39) = (   0.4941092   0.4804190   0.4984160  )
        40           Si  tau(  40) = (   0.6078343   0.5859578   0.6258758  )
        41           Si  tau(  41) = (   0.8699396   0.5998304   0.3881261  )
        42           Si  tau(  42) = (   0.8548916   0.3596593   0.6356572  )
        43           Si  tau(  43) = (   0.1172410   0.8376677   0.3848174  )
        44           Si  tau(  44) = (   0.2454478   0.7037665   0.5053773  )
        45           Si  tau(  45) = (   0.6107612   0.8369807   0.3822886  )
        46           Si  tau(  46) = (   0.3636360   0.8286984   0.6255006  )
        47           Si  tau(  47) = (   0.7426012   0.7039896   0.5111419  )
        48           Si  tau(  48) = (   0.8587318   0.8245762   0.6361650  )
        49           Si  tau(  49) = (  -0.0086632   0.2402908   0.7599559  )
        50           Si  tau(  50) = (   0.2398635   0.0034861   0.7645891  )
        51           Si  tau(  51) = (   0.3745392   0.1144224   0.8905112  )
        52           Si  tau(  52) = (   0.4904335   0.2428014   0.7595174  )
        53           Si  tau(  53) = (   0.7410001   0.0034610   0.7669525  )
        54           Si  tau(  54) = (   0.8634292   0.1126415   0.8955554  )
        55           Si  tau(  55) = (   0.1179869   0.3478431   0.8852344  )
        56           Si  tau(  56) = (   0.2531454   0.4796190   0.7647515  )
        57           Si  tau(  57) = (   0.6216346   0.3516432   0.8937906  )
        58           Si  tau(  58) = (   0.3745625   0.5915314   0.8876692  )
        59           Si  tau(  59) = (   0.7474305   0.4769475   0.7650299  )
        60           Si  tau(  60) = (   0.8608041   0.5964822   0.8947858  )
        61           Si  tau(  61) = (   0.0060792   0.7107505   0.7562119  )
        62           Si  tau(  62) = (   0.1152951   0.8346030   0.8876524  )
        63           Si  tau(  63) = (   0.5011972   0.7052448   0.7529674  )
        64           Si  tau(  64) = (   0.6243486   0.8364302   0.8844095  )

     number of k points=     1  Fermi-Dirac smearing, width (Ry)=  0.0100
                       cart. coord. in units 2pi/alat
        k(    1) = (   0.0000000   0.0000000   0.0000000), wk =   2.0000000

     Dense  grid:    99758 G-vectors     FFT dimensions: (  75,  72,  75)

     Estimated max dynamical RAM per process >     159.84 MB

     Estimated total dynamical RAM >     615.01 MB

     Initial potential from superposition of free atoms

     starting charge     255.9608, renormalised to     256.0000
     Starting wfcs are  256 randomized atomic wfcs

     total cpu time spent up to now is        5.2 secs

     Self-consistent Calculation

     iteration #  1     ecut=    30.00 Ry     beta= 0.50
     Davidson diagonalization with overlap
     ethr =  1.00E-02,  avg # of iterations =  3.0

     Threshold (ethr) on eigenvalues was too large:
     Diagonalizing with lowered threshold

     Davidson diagonalization with overlap
     ethr =  6.39E-04,  avg # of iterations =  4.0

     total cpu time spent up to now is        5.5 secs

     total energy              =    -503.51534617 Ry
     estimated scf accuracy    <       1.81455718 Ry

     iteration #  2     ecut=    30.00 Ry     beta= 0.50
     Davidson diagonalization with overlap
     ethr =  7.09E-04,  avg # of iterations =  1.0

     total cpu time spent up to now is        5.6 secs

     total energy              =    -503.50682269 Ry
     estimated scf accuracy    <       0.33890688 Ry

     iteration #  3     ecut=    30.00 Ry     beta= 0.50
     Davidson diagonalization with overlap
     ethr =  1.32E-04,  avg # of iterations = 11.0

     total cpu time spent up to now is        5.7 secs

     total energy              =    -503.51148142 Ry
     estimated scf accuracy    <       0.12853079 Ry

     iteration #  4     ecut=    30.00 Ry     beta= 0.50
     Davidson diagonalization with overlap
     ethr =  5.02E-05,  avg # of iterations =  3.0

     total cpu time spent up to now is        5.9 secs

     total energy              =    -503.53575459 Ry
     estimated scf accuracy    <       0.01988838 Ry

     iteration #  5     ecut=    30.00 Ry     beta= 0.50
     Davidson diagonalization with overlap
     ethr =  7.77E-06,  avg # of iterations =  8.0

     total cpu time spent up to now is        6.0 secs

     total energy              =    -503.53795765 Ry
     estimated scf accuracy    <       0.00285985 Ry

     iteration #  6     ecut=    30.00 Ry     beta= 0.50
     Davidson diagonalization with overlap
     ethr =  1.12E-06,  avg # of iterations = 10.0

     total cpu time spent up to now is        6.2 secs

     total energy              =    -503.53858149 Ry
     estimated scf accuracy    <       0.00047253 Ry

     iteration #  7     ecut=    30.00 Ry     beta= 0.50
     Davidson diagonalization with overlap
     ethr =  1.85E-07,  avg # of iterations =  3.0

     total cpu time spent up to now is        6.3 secs

     total energy              =    -503.53861893 Ry
     estimated scf accuracy    <       0.00016485 Ry

     iteration #  8     ecut=    30.00 Ry     beta= 0.50
     Davidson diagonalization with overlap
     ethr =  6.44E-08,  avg # of iterations =  4.0

     total cpu time spent up to now is        6.4 secs

     total energy              =    -503.53864450 Ry
     estimated scf accuracy    <       0.00003957 Ry

     iteration #  9     ecut=    30.00 Ry     beta= 0.50
     Davidson diagonalization with overlap
     ethr =  1.55E-08,  avg # of iterations =  4.0

     total cpu time spent up to now is        6.5 secs

     total energy              =    -503.53865222 Ry
     estimated scf accuracy    <       0.00000277 Ry

     iteration # 10     ecut=    30.00 Ry     beta= 0.50
     Davidson diagonalization with overlap
     ethr =  1.08E-09,  avg # of iterations =  4.0

     total cpu time spent up to now is        6.7 secs

     End of self-consistent calculation

          k = 0.0000 0.0000 0.0000 ( 12486 PWs)   bands (ev):

    -5.9717  -5.1425  -5.0171  -4.9765  -4.8464  -4.7702  -4.7398  -4.3375
    -4.2120  -4.1857  -4.0591  -4.0373  -3.9636  -3.9196  -3.8940  -3.8289
    -3.8036  -3.7412  -3.6808  -3.6374  -3.5258  -3.4707  -3.3642  -2.2286
    -2.2043  -2.1493  -2.0290  -1.9504  -1.8887  -1.8740  -1.8157  -1.8036
    -1.7623  -1.7155  -1.6828  -1.6329  -1.5465  -1.5369  -1.4729  -1.4212
    -1.3982  -1.0918  -1.0035  -0.8775  -0.7421   0.1430   0.1792   0.2670
     0.3223   0.3375   0.4383   0.4523   0.4940   0.5227   0.5648   0.5682
     0.5896   1.7960   1.8487   1.8709   1.8940   1.9323   1.9445   1.9780
     2.0139   2.0355   2.0526   2.0907   2.0998   2.1352   2.1783   2.1913
     2.2064   2.2407   2.2594   2.2820   2.3217   2.3729   2.3855   2.4076
     2.4580   2.4648   2.5063   2.5484   2.5579   2.5820   2.6421   2.9161
     2.9574   3.0933   3.1433   3.1785   3.2684   3.7155   3.7432   3.8417
     3.8963   3.9167   3.9841   4.0242   4.0590   4.1042   4.1301   4.1551
     4.2223   4.2838   4.3369   4.3417   4.4292   4.4413   4.4625   4.5037
     4.5609   4.5860   4.6505   4.6854   4.7000   4.7701   4.8116   4.8684
     4.9324   4.9667   4.9947   5.0678   5.2734   5.7494   5.8711   6.1107
     6.2660   6.3115   6.4842   6.6111   6.6658   6.7209   6.7974   6.8705
     6.9649   7.0002   7.0855   7.1185   7.1261   7.1436   7.1675   7.2216
     7.8399   7.8479   7.9596   8.0197   8.0297   8.1297   8.1474   8.1685
     8.2550   8.2655

     the Fermi energy is     6.1342 ev

!    total energy              =    -503.53865276 Ry
     estimated scf accuracy    <       0.00000073 Ry
     smearing contrib. (-TS)   =      -0.06209992 Ry
     internal energy E=F+TS    =    -503.47655284 Ry

     The total energy is F=E-TS. E is the sum of the following terms:
     one-electron contribution =     139.27393811 Ry
     hartree contribution      =      38.39572118 Ry
     xc contribution           =    -152.98822149 Ry
     ewald contribution        =    -528.15799064 Ry

     convergence has been achieved in  10 iterations

     Forces acting on atoms (cartesian axes, Ry/au):

     atom    1 type  1   force =    -0.05557667   -0.06829634   -0.00884046
     atom    2 type  1   force =    -0.04326606    0.00894632   -0.03387192
     atom    3 type  1   force =    -0.01204423   -0.00959517    0.02139919
     atom    4 type  1   force =     0.03917956   -0.01493247   -0.01305531
     atom    5 type  1   force =     0.02184175   -0.00931260    0.07702576
     atom    6 type  1   force =     0.06760984   -0.07041167    0.09102875
     atom    7 type  1   force =    -0.02311391   -0.03219372   -0.08147520
     atom    8 type  1   force =    -0.05781526    0.00302163    0.02338470
     atom    9 type  1   force =     0.02809551   -0.02395783    0.00296038
     atom   10 type  1   force =     0.03138598   -0.06608975    0.06442069
     atom   11 type  1   force =    -0.03815531   -0.05331601   -0.01247777
     atom   12 type  1   force =    -0.03005167   -0.02581570   -0.00465638
     atom   13 type  1   force =     0.02252207    0.02563731   -0.00363972
     atom   14 type  1   force =     0.03460174   -0.02031274    0.05091202
     atom   15 type  1   force =    -0.00059445    0.01322028    0.03848282
     atom   16 type  1   force =    -0.04557507   -0.01560507    0.01436851
     atom   17 type  1   force =     0.05762118    0.03901720    0.06195843
     atom   18 type  1   force =     0.05134520   -0.00788229    0.03740657
     atom   19 type  1   force =    -0.02493767    0.07147781    0.01232253
     atom   20 type  1   force =    -0.01935219    0.00835783    0.02629686
     atom   21 type  1   force =    -0.00009794    0.04719539   -0.03203286
     atom   22 type  1   force =     0.05019802    0.03532226    0.01404930
     atom   23 type  1   force =     0.00347351    0.02314311    0.04551178
     atom   24 type  1   force =     0.05676352    0.01928423    0.05018494
     atom   25 type  1   force =    -0.01572333   -0.00542729    0.03175926
     atom   26 type  1   force =    -0.04901150   -0.03414848   -0.03680159
     atom   27 type  1   force =    -0.05943386    0.04722737   -0.05231700
     atom   28 type  1   force =    -0.03478257    0.01100084   -0.00157269
     atom   29 type  1   force =     0.01951395   -0.01515042    0.01552431
     atom   30 type  1   force =     0.03382505   -0.02794890   -0.00485268
     atom   31 type  1   force =     0.05986164   -0.05949113   -0.05127794
     atom   32 type  1   force =    -0.06615889    0.03258335    0.05339106
     atom   33 type  1   force =     0.06786823   -0.04128219   -0.01824918
     atom   34 type  1   force =    -0.08859955    0.04001898    0.04823115
     atom   35 type  1   force =     0.05072799   -0.03729656   -0.00504115
     atom   36 type  1   force =     0.03525178    0.03446434   -0.00093448
     atom   37 type  1   force =     0.00809785   -0.00511939    0.03566570
     atom   38 type  1   force =     0.04612404    0.03128264    0.01543067
     atom   39 type  1   force =    -0.04530334   -0.04542905   -0.00370579
     atom   40 type  1   force =     0.07027085    0.00523708    0.03474003
     atom   41 type  1   force =     0.00766108   -0.06047541   -0.04094388
     atom   42 type  1   force =     0.07500705   -0.01684086   -0.02395610
     atom   43 type  1   force =     0.00743328   -0.01658374   -0.03459172
     atom   44 type  1   force =    -0.02299343    0.03545748   -0.01621280
     atom   45 type  1   force =     0.00699793   -0.02116424   -0.00521363
     atom   46 type  1   force =     0.00929659    0.02663248    0.04578034
     atom   47 type  1   force =    -0.03678909    0.03972641   -0.01240777
     atom   48 type  1   force =     0.03631411    0.05305396    0.01745909
     atom   49 type  1   force =    -0.01935633   -0.03624155   -0.01580867
     atom   50 type  1   force =     0.04608590   -0.08174484    0.01734967
     atom   51 type  1   force =    -0.06943043    0.05801084   -0.06400126
     atom   52 type  1   force =    -0.00131405   -0.00013765    0.00682444
     atom   53 type  1   force =    -0.00498770   -0.03756977   -0.04717069
     atom   54 type  1   force =     0.04512261    0.01443028   -0.05813672
     atom   55 type  1   force =    -0.00334122    0.06365617   -0.02170121
     atom   56 type  1   force =    -0.05693770   -0.02453323   -0.02219921
     atom   57 type  1   force =    -0.04847514    0.04889756   -0.10805727
     atom   58 type  1   force =     0.01228585    0.02344136   -0.02987913
     atom   59 type  1   force =    -0.05514876    0.00863227   -0.00384935
     atom   60 type  1   force =     0.08007913   -0.01717190   -0.06230880
     atom   61 type  1   force =    -0.08502537    0.02635605    0.02766634
     atom   62 type  1   force =     0.02425224    0.02568751   -0.01600220
     atom   63 type  1   force =    -0.03346568    0.05638606    0.01960621
     atom   64 type  1   force =    -0.05985668    0.02467157   -0.05389899

     Total force =     0.557285     Total SCF correction =     0.001494


     Computing stress (Cartesian axis) and pressure

          total   stress  (Ry/bohr**3)                   (kbar)     P=        2.35
  -0.00002216  -0.00006091   0.00005566           -3.26       -8.96        8.19
  -0.00006091   0.00010198   0.00009664           -8.96       15.00       14.22
   0.00005566   0.00009664  -0.00003189            8.19       14.22       -4.69

 
     init_run     :      1.24s CPU      5.09s WALL (       1 calls)
     electrons    :      1.38s CPU      1.50s WALL (       1 calls)
     forces       :      0.04s CPU      0.05s WALL (       1 calls)
     stress       :      0.17s CPU      0.17s WALL (       1 calls)

     Called by init_run:
     wfcinit      :      0.59s CPU      4.27s WALL (       1 calls)
                                        4.27s GPU  (       1 calls)
     potinit      :      0.20s CPU      0.30s WALL (       1 calls)
     hinit0       :      0.42s CPU      0.45s WALL (       1 calls)

     Called by electrons:
     c_bands      :      0.90s CPU      0.95s WALL (      11 calls)
     sum_band     :      0.26s CPU      0.29s WALL (      11 calls)
     v_of_rho     :      0.13s CPU      0.23s WALL (      11 calls)
     mix_rho      :      0.09s CPU      0.10s WALL (      11 calls)

     Called by c_bands:
     init_us_2    :      0.04s CPU      0.04s WALL (      23 calls)
     init_us_2:gp :      0.04s CPU      0.04s WALL (      23 calls)
     regterg      :      0.80s CPU      0.85s WALL (      11 calls)

     Called by *egterg:
     rdiaghg      :      0.33s CPU      1.08s WALL (      65 calls)
                                        1.06s GPU  (      65 calls)
     h_psi        :      0.90s CPU      3.87s WALL (      67 calls)
                                        3.87s GPU  (      67 calls)
     g_psi        :      0.00s CPU      0.00s WALL (      55 calls)
                                        0.00s GPU  (      55 calls)

     Called by h_psi:
     h_psi:calbec :      0.51s CPU      3.40s WALL (      67 calls)
                                        3.40s GPU  (      67 calls)
     vloc_psi     :      0.35s CPU      0.43s WALL (      67 calls)
                                        0.42s GPU  (      67 calls)
     add_vuspsi   :      0.03s CPU      0.04s WALL (      67 calls)
                                        0.04s GPU  (      67 calls)

     General routines
     calbec       :      0.52s CPU      3.40s WALL (      72 calls)
     fft          :      0.48s CPU      0.61s WALL (      95 calls)
                                        0.13s GPU  (      61 calls)
     ffts         :      0.04s CPU      0.04s WALL (      11 calls)
     fftw         :      0.39s CPU      0.53s WALL (    1205 calls)
                                        0.48s GPU  (    1205 calls)
 
     Parallel routines
 
     PWSCF        :      2.87s CPU      6.89s WALL

 
   This run was terminated on:  11:12:15  10May2023            

=------------------------------------------------------------------------------=
   JOB DONE.
=------------------------------------------------------------------------------=
