An instance of this daemon is already running
An instance of this daemon is already running

     Program PWSCF v.7.1 starts on 10May2023 at 11:14: 1 

     This program is part of the open-source Quantum ESPRESSO suite
     for quantum simulation of materials; please cite
         "P. Giannozzi et al., J. Phys.:Condens. Matter 21 395502 (2009);
         "P. Giannozzi et al., J. Phys.:Condens. Matter 29 465901 (2017);
         "P. Giannozzi et al., J. Chem. Phys. 152 154105 (2020);
          URL http://www.quantum-espresso.org", 
     in publications or presentations arising from this work. More details at
     http://www.quantum-espresso.org/quote

     Parallel version (MPI & OpenMP), running on       4 processor cores
     Number of MPI processes:                 4
     Threads/MPI process:                     1

     MPI processes distributed on     1 nodes
     753558 MiB available memory on the printing compute node when the environment starts
 
     Reading input from pw-si-22.in
Warning: card &CELL ignored
Warning: card / ignored

     Current dimensions of program PWSCF are:
     Max number of different atomic species (ntypx) = 10
     Max number of k-points (npk) =  40000
     Max angular momentum in pseudopotentials (lmaxx) =  4

     IMPORTANT: XC functional enforced from input :
     Exchange-correlation= PBE
                           (   1   4   3   4   0   0   0)
     Any further DFT definition will be discarded
     Please, verify this is what you really want


     gamma-point specific algorithms are used
 
     K-points division:     npool     =       2
     R & G space division:  proc/nbgrp/npool/nimage =       2
     Subspace diagonalization in iterative solution of the eigenvalue problem:
     a serial algorithm will be used

     Message from routine divide_et_impera:
     suboptimal parallelization: some nodes have no k-points
 
     Parallelization info
     --------------------
     sticks:   dense  smooth     PW     G-vecs:    dense   smooth      PW
     Min        2100    2100    559                98867    98867   13443
     Max        2105    2105    560                98868    98868   13444
     Sum        4205    4205   1119               197735   197735   26887
 
     Using Slab Decomposition
 


     bravais-lattice index     =            0
     lattice parameter (alat)  =      20.6399  a.u.
     unit-cell volume          =    8904.3062 (a.u.)^3
     number of atoms/cell      =           64
     number of atomic types    =            1
     number of electrons       =       256.00
     number of Kohn-Sham states=          154
     kinetic-energy cutoff     =      30.0000  Ry
     charge density cutoff     =     120.0000  Ry
     scf convergence threshold =      1.0E-06
     mixing beta               =       0.5000
     number of iterations used =            8  plain     mixing
     Exchange-correlation= PBE
                           (   1   4   3   4   0   0   0)

     GPU acceleration is ACTIVE.
     GPU-aware MPI enabled

     Message from routine print_cuda_info:
     High GPU oversubscription detected. Are you sure this is what you want?

     celldm(1)=  20.639942  celldm(2)=   0.000000  celldm(3)=   0.000000
     celldm(4)=   0.000000  celldm(5)=   0.000000  celldm(6)=   0.000000

     crystal axes: (cart. coord. in units of alat)
               a(1) = (   1.000000   0.000000   0.000000 )  
               a(2) = (   0.000000   1.034788   0.000000 )  
               a(3) = (   0.000000   0.000000   0.978641 )  

     reciprocal axes: (cart. coord. in units 2 pi/alat)
               b(1) = (  1.000000  0.000000  0.000000 )  
               b(2) = (  0.000000  0.966382  0.000000 )  
               b(3) = (  0.000000  0.000000  1.021825 )  


     PseudoPot. # 1 for Si read from file:
     /home/ppiaggi/pseudos/Si_ONCV_PBE_sr.upf
     MD5 check sum: 8553c464762ac42b85b1eed164b4d029
     Pseudo is Norm-conserving, Zval =  4.0
     Generated using ONCVPSP code by D. R. Hamann
     Using radial grid of 1510 points,  4 beta functions with: 
                l(1) =   0
                l(2) =   0
                l(3) =   1
                l(4) =   1

     atomic species   valence    mass     pseudopotential
        Si             4.00    28.08500     Si( 1.00)

     No symmetry found



   Cartesian axes

     site n.     atom                  positions (alat units)
         1           Si  tau(   1) = (  -0.0044137   0.0042296   0.0033858  )
         2           Si  tau(   2) = (   0.0074016   0.2589069   0.2331653  )
         3           Si  tau(   3) = (   0.2402571  -0.0023954   0.2502182  )
         4           Si  tau(   4) = (   0.2419837   0.2530937   0.0021290  )
         5           Si  tau(   5) = (   0.1230075   0.1229893   0.1146716  )
         6           Si  tau(   6) = (   0.4849868   0.0046774  -0.0035465  )
         7           Si  tau(   7) = (   0.4799972   0.2498773   0.2475257  )
         8           Si  tau(   8) = (   0.6090166   0.1252623   0.1140893  )
         9           Si  tau(   9) = (   0.7358039  -0.0057855   0.2399242  )
        10           Si  tau(  10) = (   0.7397565   0.2446117   0.0037567  )
        11           Si  tau(  11) = (   0.0074667   0.5146959  -0.0016699  )
        12           Si  tau(  12) = (   0.2458072   0.5097504   0.2439864  )
        13           Si  tau(  13) = (   0.1252785   0.6357154   0.1261248  )
        14           Si  tau(  14) = (   0.3617453   0.3797233   0.1135237  )
        15           Si  tau(  15) = (   0.4881883   0.5003149   0.0062490  )
        16           Si  tau(  16) = (   0.6164875   0.6407796   0.1159584  )
        17           Si  tau(  17) = (   0.8496491   0.3781280   0.1170556  )
        18           Si  tau(  18) = (   0.7403006   0.5003707   0.2446596  )
        19           Si  tau(  19) = (  -0.0021854   0.7540064   0.2438433  )
        20           Si  tau(  20) = (   0.2480421   0.7672416   0.0009807  )
        21           Si  tau(  21) = (   0.3676690   0.8924355   0.1280625  )
        22           Si  tau(  22) = (   0.4882098   0.7564124   0.2448103  )
        23           Si  tau(  23) = (   0.7261994   0.7565148  -0.0075647  )
        24           Si  tau(  24) = (   0.8508543   0.8863944   0.1262122  )
        25           Si  tau(  25) = (   0.0078313   0.0057244   0.4827014  )
        26           Si  tau(  26) = (   0.2452625   0.2529938   0.4816182  )
        27           Si  tau(  27) = (   0.1197097   0.1244518   0.6039962  )
        28           Si  tau(  28) = (   0.3597498   0.1301483   0.3608025  )
        29           Si  tau(  29) = (   0.4856073   0.0027196   0.4900785  )
        30           Si  tau(  30) = (   0.6132972   0.1356409   0.6040089  )
        31           Si  tau(  31) = (   0.8496509   0.1223068   0.3565280  )
        32           Si  tau(  32) = (   0.7284567   0.2487467   0.4825598  )
        33           Si  tau(  33) = (   0.1281456   0.3747408   0.3696983  )
        34           Si  tau(  34) = (   0.0061193   0.4993784   0.4814288  )
        35           Si  tau(  35) = (   0.1308046   0.6384469   0.5981653  )
        36           Si  tau(  36) = (   0.6126758   0.3868592   0.3700820  )
        37           Si  tau(  37) = (   0.3574823   0.6307473   0.3608955  )
        38           Si  tau(  38) = (   0.3620032   0.3723237   0.6036043  )
        39           Si  tau(  39) = (   0.4928522   0.5015531   0.4823952  )
        40           Si  tau(  40) = (   0.6062665   0.6320955   0.6034275  )
        41           Si  tau(  41) = (   0.8472707   0.6298971   0.3590443  )
        42           Si  tau(  42) = (   0.8462759   0.3807201   0.6039080  )
        43           Si  tau(  43) = (   0.1195583   0.8876007   0.3632911  )
        44           Si  tau(  44) = (   0.2401369   0.7523797   0.4854498  )
        45           Si  tau(  45) = (   0.6149948   0.8800660   0.3543159  )
        46           Si  tau(  46) = (   0.3626030   0.8769417   0.5984782  )
        47           Si  tau(  47) = (   0.7340017   0.7578596   0.4885159  )
        48           Si  tau(  48) = (   0.8477620   0.8875652   0.6061097  )
        49           Si  tau(  49) = (  -0.0025889   0.2604726   0.7293843  )
        50           Si  tau(  50) = (   0.2450946  -0.0075209   0.7205340  )
        51           Si  tau(  51) = (   0.3720967   0.1305914   0.8423093  )
        52           Si  tau(  52) = (   0.4843186   0.2596982   0.7239769  )
        53           Si  tau(  53) = (   0.7367920   0.0053907   0.7213123  )
        54           Si  tau(  54) = (   0.8485374   0.1233623   0.8525461  )
        55           Si  tau(  55) = (   0.1270161   0.3773042   0.8392712  )
        56           Si  tau(  56) = (   0.2459531   0.5001365   0.7246215  )
        57           Si  tau(  57) = (   0.6056365   0.3799002   0.8384318  )
        58           Si  tau(  58) = (   0.3594967   0.6253478   0.8382277  )
        59           Si  tau(  59) = (   0.7391385   0.5142408   0.7170233  )
        60           Si  tau(  60) = (   0.8585379   0.6343393   0.8368269  )
        61           Si  tau(  61) = (   0.0045785   0.7590980   0.7303618  )
        62           Si  tau(  62) = (   0.1184372   0.8793106   0.8485192  )
        63           Si  tau(  63) = (   0.4962420   0.7582862   0.7223889  )
        64           Si  tau(  64) = (   0.6030801   0.8907111   0.8499177  )

     number of k points=     1  Fermi-Dirac smearing, width (Ry)=  0.0100
                       cart. coord. in units 2pi/alat
        k(    1) = (   0.0000000   0.0000000   0.0000000), wk =   2.0000000

     Dense  grid:    98868 G-vectors     FFT dimensions: (  72,  75,  72)

     Estimated max dynamical RAM per process >     157.76 MB

     Estimated total dynamical RAM >     606.90 MB

     Initial potential from superposition of free atoms

     starting charge     255.9608, renormalised to     256.0000
     Starting wfcs are  256 randomized atomic wfcs

     total cpu time spent up to now is        5.1 secs

     Self-consistent Calculation

     iteration #  1     ecut=    30.00 Ry     beta= 0.50
     Davidson diagonalization with overlap
     ethr =  1.00E-02,  avg # of iterations =  3.0

     Threshold (ethr) on eigenvalues was too large:
     Diagonalizing with lowered threshold

     Davidson diagonalization with overlap
     ethr =  6.38E-04,  avg # of iterations =  4.0

     total cpu time spent up to now is        5.4 secs

     total energy              =    -503.30046908 Ry
     estimated scf accuracy    <       1.82222173 Ry

     iteration #  2     ecut=    30.00 Ry     beta= 0.50
     Davidson diagonalization with overlap
     ethr =  7.12E-04,  avg # of iterations =  2.0

     total cpu time spent up to now is        5.5 secs

     total energy              =    -503.25714173 Ry
     estimated scf accuracy    <       0.42917164 Ry

     iteration #  3     ecut=    30.00 Ry     beta= 0.50
     Davidson diagonalization with overlap
     ethr =  1.68E-04,  avg # of iterations = 18.0

     total cpu time spent up to now is        5.7 secs

     total energy              =    -503.11056557 Ry
     estimated scf accuracy    <       1.59308507 Ry

     iteration #  4     ecut=    30.00 Ry     beta= 0.50
     Davidson diagonalization with overlap
     ethr =  1.68E-04,  avg # of iterations = 10.0

     total cpu time spent up to now is        5.8 secs

     total energy              =    -503.33834432 Ry
     estimated scf accuracy    <       0.06200039 Ry

     iteration #  5     ecut=    30.00 Ry     beta= 0.50
     Davidson diagonalization with overlap
     ethr =  2.42E-05,  avg # of iterations = 12.0

     total cpu time spent up to now is        6.0 secs

     total energy              =    -503.34103845 Ry
     estimated scf accuracy    <       0.03139972 Ry

     iteration #  6     ecut=    30.00 Ry     beta= 0.50
     Davidson diagonalization with overlap
     ethr =  1.23E-05,  avg # of iterations =  3.0

     total cpu time spent up to now is        6.1 secs

     total energy              =    -503.34365138 Ry
     estimated scf accuracy    <       0.00545412 Ry

     iteration #  7     ecut=    30.00 Ry     beta= 0.50
     Davidson diagonalization with overlap
     c_bands:  1 eigenvalues not converged
     ethr =  2.13E-06,  avg # of iterations = 20.0

     total cpu time spent up to now is        6.3 secs

     total energy              =    -503.34472963 Ry
     estimated scf accuracy    <       0.00050336 Ry

     iteration #  8     ecut=    30.00 Ry     beta= 0.50
     Davidson diagonalization with overlap
     ethr =  1.97E-07,  avg # of iterations =  9.0

     total cpu time spent up to now is        6.5 secs

     total energy              =    -503.34476232 Ry
     estimated scf accuracy    <       0.00039536 Ry

     iteration #  9     ecut=    30.00 Ry     beta= 0.50
     Davidson diagonalization with overlap
     ethr =  1.54E-07,  avg # of iterations =  2.0

     total cpu time spent up to now is        6.6 secs

     total energy              =    -503.34478355 Ry
     estimated scf accuracy    <       0.00012384 Ry

     iteration # 10     ecut=    30.00 Ry     beta= 0.50
     Davidson diagonalization with overlap
     ethr =  4.84E-08,  avg # of iterations =  3.0

     total cpu time spent up to now is        6.7 secs

     total energy              =    -503.34479549 Ry
     estimated scf accuracy    <       0.00001075 Ry

     iteration # 11     ecut=    30.00 Ry     beta= 0.50
     Davidson diagonalization with overlap
     ethr =  4.20E-09,  avg # of iterations =  5.0

     total cpu time spent up to now is        6.8 secs

     total energy              =    -503.34479840 Ry
     estimated scf accuracy    <       0.00000161 Ry

     iteration # 12     ecut=    30.00 Ry     beta= 0.50
     Davidson diagonalization with overlap
     ethr =  6.27E-10,  avg # of iterations =  4.0

     total cpu time spent up to now is        7.0 secs

     total energy              =    -503.34479849 Ry
     estimated scf accuracy    <       0.00000174 Ry

     iteration # 13     ecut=    30.00 Ry     beta= 0.50
     Davidson diagonalization with overlap
     ethr =  6.27E-10,  avg # of iterations =  3.0

     total cpu time spent up to now is        7.1 secs

     End of self-consistent calculation

          k = 0.0000 0.0000 0.0000 ( 12359 PWs)   bands (ev):

    -6.0165  -5.1351  -5.1316  -4.9860  -4.8333  -4.7565  -4.6491  -4.3764
    -4.2188  -4.1912  -4.0830  -4.0244  -3.9602  -3.9234  -3.8653  -3.8469
    -3.7818  -3.7145  -3.6794  -3.6240  -3.5243  -3.4069  -3.0875  -2.2353
    -2.1217  -2.0934  -2.0332  -1.9536  -1.9182  -1.8586  -1.8045  -1.7865
    -1.7109  -1.6796  -1.6026  -1.5596  -1.5177  -1.4103  -1.3567  -1.3092
    -1.2977  -1.1874  -0.8875  -0.7869  -0.7257   0.1392   0.2553   0.2776
     0.3316   0.3507   0.4056   0.4261   0.5806   0.6359   0.6751   0.7028
     0.7880   1.8129   1.8384   1.9071   1.9230   1.9520   1.9716   1.9857
     2.0339   2.0373   2.0771   2.0872   2.1308   2.1396   2.1851   2.2055
     2.2342   2.2624   2.2672   2.3210   2.3443   2.3657   2.4025   2.4537
     2.4933   2.5690   2.6495   2.6764   2.6977   2.7538   2.9420   2.9566
     3.0107   3.0770   3.1693   3.3749   3.4038   3.7614   3.8140   3.8897
     3.9173   3.9861   4.0542   4.1047   4.1195   4.1383   4.2171   4.2725
     4.2847   4.3239   4.3644   4.3828   4.4183   4.4761   4.5552   4.5635
     4.6226   4.6734   4.6967   4.7215   4.7575   4.8351   4.8787   4.9232
     4.9817   5.0210   5.1226   5.5508   5.5733   5.8332   6.1092   6.1672
     6.2954   6.4545   6.5388   6.6053   6.7599   6.8321   6.8783   6.8892
     6.9644   7.0744   7.1017   7.1255   7.1729   7.2223   7.3385   7.3653
     7.8637   7.8912   7.9486   8.0074   8.0277   8.0941   8.2285   8.2423
     8.2718   8.3700

     the Fermi energy is     6.2286 ev

!    total energy              =    -503.34479854 Ry
     estimated scf accuracy    <       0.00000025 Ry
     smearing contrib. (-TS)   =      -0.07095080 Ry
     internal energy E=F+TS    =    -503.27384774 Ry

     The total energy is F=E-TS. E is the sum of the following terms:
     one-electron contribution =     138.26480333 Ry
     hartree contribution      =      39.56138265 Ry
     xc contribution           =    -153.22712322 Ry
     ewald contribution        =    -527.87291049 Ry

     convergence has been achieved in  13 iterations

     Forces acting on atoms (cartesian axes, Ry/au):

     atom    1 type  1   force =    -0.05623954   -0.07786304   -0.04927307
     atom    2 type  1   force =    -0.07117462   -0.01349775    0.01811628
     atom    3 type  1   force =    -0.00269622   -0.04356688   -0.03353371
     atom    4 type  1   force =     0.00939946   -0.01387888   -0.07494497
     atom    5 type  1   force =     0.00209026   -0.00176794    0.03612669
     atom    6 type  1   force =    -0.00148592   -0.06349242   -0.01492944
     atom    7 type  1   force =     0.05611915    0.04128610   -0.04422467
     atom    8 type  1   force =    -0.00484320   -0.00571547    0.05428679
     atom    9 type  1   force =    -0.03391993   -0.03501526   -0.01671244
     atom   10 type  1   force =    -0.04577134    0.03483292   -0.05700051
     atom   11 type  1   force =    -0.06626015   -0.03302504   -0.04228394
     atom   12 type  1   force =    -0.02410666   -0.05274725   -0.02412030
     atom   13 type  1   force =     0.00304037    0.01441093   -0.02419382
     atom   14 type  1   force =    -0.00138699   -0.01367276    0.06342667
     atom   15 type  1   force =     0.02799946    0.04529931   -0.07583487
     atom   16 type  1   force =    -0.03705530   -0.07185914    0.04761632
     atom   17 type  1   force =     0.10705104    0.01094518   -0.00122916
     atom   18 type  1   force =    -0.05109075    0.01851242   -0.03452797
     atom   19 type  1   force =    -0.06391318    0.03241087    0.01132253
     atom   20 type  1   force =    -0.00045175   -0.02718608   -0.02441039
     atom   21 type  1   force =    -0.00598114    0.04276280   -0.01344226
     atom   22 type  1   force =    -0.00506946    0.00221031   -0.01965407
     atom   23 type  1   force =     0.06409888    0.05444574   -0.04212595
     atom   24 type  1   force =     0.05124500    0.00657230   -0.02617059
     atom   25 type  1   force =    -0.09479958   -0.06855424   -0.04123201
     atom   26 type  1   force =    -0.00885696   -0.03934040    0.03573058
     atom   27 type  1   force =     0.01422444    0.03559140    0.03571320
     atom   28 type  1   force =     0.01052261   -0.05220890    0.02987865
     atom   29 type  1   force =     0.00664975   -0.05203457   -0.02724313
     atom   30 type  1   force =    -0.04179672   -0.04835401    0.03062042
     atom   31 type  1   force =     0.08847582    0.02273110    0.01732541
     atom   32 type  1   force =     0.04778564    0.02896794   -0.02915023
     atom   33 type  1   force =    -0.02607008    0.02059302   -0.06677697
     atom   34 type  1   force =    -0.08257289    0.03897384    0.02626622
     atom   35 type  1   force =    -0.08951633   -0.08280364    0.07786449
     atom   36 type  1   force =     0.00656463   -0.06771176   -0.06188444
     atom   37 type  1   force =     0.06164583    0.00954207    0.02594309
     atom   38 type  1   force =     0.01356610    0.03916148   -0.02088365
     atom   39 type  1   force =    -0.06737889    0.04371979    0.02985725
     atom   40 type  1   force =     0.02543111   -0.00370839   -0.01513661
     atom   41 type  1   force =     0.10146596    0.02005275    0.03375233
     atom   42 type  1   force =     0.09708524   -0.02883614   -0.02282693
     atom   43 type  1   force =    -0.01088621    0.02444920    0.01007922
     atom   44 type  1   force =     0.03944801    0.07937138   -0.07424104
     atom   45 type  1   force =     0.00282568    0.06553035    0.04383590
     atom   46 type  1   force =     0.02499785    0.06888946    0.02581683
     atom   47 type  1   force =    -0.01190343    0.00296569   -0.03097738
     atom   48 type  1   force =     0.08316372    0.04395588    0.02359913
     atom   49 type  1   force =    -0.07350426   -0.04566009   -0.02460439
     atom   50 type  1   force =     0.00163052   -0.03487175    0.02143808
     atom   51 type  1   force =    -0.05490183   -0.02916669    0.02990106
     atom   52 type  1   force =     0.02800184   -0.03302028   -0.00848545
     atom   53 type  1   force =    -0.02678129   -0.06606090    0.01097331
     atom   54 type  1   force =     0.09588834    0.00467274    0.00221673
     atom   55 type  1   force =    -0.02463147    0.00913287    0.08314226
     atom   56 type  1   force =    -0.01706174    0.02034197   -0.04448876
     atom   57 type  1   force =     0.05519024    0.02395762    0.06731383
     atom   58 type  1   force =     0.04941624    0.04996177    0.07673642
     atom   59 type  1   force =    -0.04395072   -0.02103540    0.03363965
     atom   60 type  1   force =     0.04897707    0.01913767    0.06287978
     atom   61 type  1   force =    -0.07187126   -0.01125382   -0.05278357
     atom   62 type  1   force =     0.02471890    0.09866772    0.04259539
     atom   63 type  1   force =    -0.05504203    0.01454444    0.02824163
     atom   64 type  1   force =     0.02425266    0.04930789    0.00307057

     Total force =     0.619242     Total SCF correction =     0.000939


     Computing stress (Cartesian axis) and pressure

          total   stress  (Ry/bohr**3)                   (kbar)     P=       14.08
   0.00012731   0.00014005   0.00004455           18.73       20.60        6.55
   0.00014005  -0.00003215   0.00013896           20.60       -4.73       20.44
   0.00004455   0.00013896   0.00019191            6.55       20.44       28.23

 
     init_run     :      1.18s CPU      5.03s WALL (       1 calls)
     electrons    :      1.82s CPU      1.96s WALL (       1 calls)
     forces       :      0.04s CPU      0.05s WALL (       1 calls)
     stress       :      0.16s CPU      0.17s WALL (       1 calls)

     Called by init_run:
     wfcinit      :      0.54s CPU      4.21s WALL (       1 calls)
                                        4.21s GPU  (       1 calls)
     potinit      :      0.21s CPU      0.30s WALL (       1 calls)
     hinit0       :      0.41s CPU      0.44s WALL (       1 calls)

     Called by electrons:
     c_bands      :      1.21s CPU      1.28s WALL (      14 calls)
     sum_band     :      0.31s CPU      0.36s WALL (      14 calls)
     v_of_rho     :      0.15s CPU      0.26s WALL (      14 calls)
     mix_rho      :      0.13s CPU      0.14s WALL (      14 calls)

     Called by c_bands:
     init_us_2    :      0.05s CPU      0.05s WALL (      29 calls)
     init_us_2:gp :      0.05s CPU      0.05s WALL (      29 calls)
     regterg      :      1.09s CPU      1.15s WALL (      14 calls)

     Called by *egterg:
     rdiaghg      :      0.51s CPU      1.27s WALL (     111 calls)
                                        1.24s GPU  (     111 calls)
     h_psi        :      0.93s CPU      3.88s WALL (     113 calls)
                                        3.88s GPU  (     113 calls)
     g_psi        :      0.00s CPU      0.00s WALL (      98 calls)
                                        0.00s GPU  (      98 calls)

     Called by h_psi:
     h_psi:calbec :      0.50s CPU      3.37s WALL (     113 calls)
                                        3.37s GPU  (     113 calls)
     vloc_psi     :      0.37s CPU      0.44s WALL (     113 calls)
                                        0.43s GPU  (     113 calls)
     add_vuspsi   :      0.05s CPU      0.07s WALL (     113 calls)
                                        0.07s GPU  (     113 calls)

     General routines
     calbec       :      0.50s CPU      3.37s WALL (     118 calls)
     fft          :      0.50s CPU      0.63s WALL (     119 calls)
                                        0.13s GPU  (      76 calls)
     ffts         :      0.04s CPU      0.05s WALL (      14 calls)
     fftw         :      0.41s CPU      0.56s WALL (    1586 calls)
                                        0.50s GPU  (    1586 calls)
 
     Parallel routines
 
     PWSCF        :      3.25s CPU      7.29s WALL

 
   This run was terminated on:  11:14: 8  10May2023            

=------------------------------------------------------------------------------=
   JOB DONE.
=------------------------------------------------------------------------------=
