An instance of this daemon is already running
An instance of this daemon is already running

     Program PWSCF v.7.1 starts on 10May2023 at 11:19:39 

     This program is part of the open-source Quantum ESPRESSO suite
     for quantum simulation of materials; please cite
         "P. Giannozzi et al., J. Phys.:Condens. Matter 21 395502 (2009);
         "P. Giannozzi et al., J. Phys.:Condens. Matter 29 465901 (2017);
         "P. Giannozzi et al., J. Chem. Phys. 152 154105 (2020);
          URL http://www.quantum-espresso.org", 
     in publications or presentations arising from this work. More details at
     http://www.quantum-espresso.org/quote

     Parallel version (MPI & OpenMP), running on       4 processor cores
     Number of MPI processes:                 4
     Threads/MPI process:                     1

     MPI processes distributed on     1 nodes
     753578 MiB available memory on the printing compute node when the environment starts
 
     Reading input from pw-si-58.in
Warning: card &CELL ignored
Warning: card / ignored

     Current dimensions of program PWSCF are:
     Max number of different atomic species (ntypx) = 10
     Max number of k-points (npk) =  40000
     Max angular momentum in pseudopotentials (lmaxx) =  4

     IMPORTANT: XC functional enforced from input :
     Exchange-correlation= PBE
                           (   1   4   3   4   0   0   0)
     Any further DFT definition will be discarded
     Please, verify this is what you really want


     gamma-point specific algorithms are used
 
     K-points division:     npool     =       2
     R & G space division:  proc/nbgrp/npool/nimage =       2
     Subspace diagonalization in iterative solution of the eigenvalue problem:
     a serial algorithm will be used

     Message from routine divide_et_impera:
     suboptimal parallelization: some nodes have no k-points
 
     Parallelization info
     --------------------
     sticks:   dense  smooth     PW     G-vecs:    dense   smooth      PW
     Min        2035    2035    539                96276    96276   13063
     Max        2036    2036    542                96277    96277   13066
     Sum        4071    4071   1081               192553   192553   26129
 
     Using Slab Decomposition
 


     bravais-lattice index     =            0
     lattice parameter (alat)  =      20.5503  a.u.
     unit-cell volume          =    8672.1902 (a.u.)^3
     number of atoms/cell      =           64
     number of atomic types    =            1
     number of electrons       =       256.00
     number of Kohn-Sham states=          154
     kinetic-energy cutoff     =      30.0000  Ry
     charge density cutoff     =     120.0000  Ry
     scf convergence threshold =      1.0E-06
     mixing beta               =       0.5000
     number of iterations used =            8  plain     mixing
     Exchange-correlation= PBE
                           (   1   4   3   4   0   0   0)

     GPU acceleration is ACTIVE.
     GPU-aware MPI enabled

     Message from routine print_cuda_info:
     High GPU oversubscription detected. Are you sure this is what you want?

     celldm(1)=  20.550348  celldm(2)=   0.000000  celldm(3)=   0.000000
     celldm(4)=   0.000000  celldm(5)=   0.000000  celldm(6)=   0.000000

     crystal axes: (cart. coord. in units of alat)
               a(1) = (   1.000000   0.000000   0.000000 )  
               a(2) = (   0.000000   1.010481   0.000000 )  
               a(3) = (   0.000000   0.000000   0.988878 )  

     reciprocal axes: (cart. coord. in units 2 pi/alat)
               b(1) = (  1.000000  0.000000  0.000000 )  
               b(2) = (  0.000000  0.989627  0.000000 )  
               b(3) = (  0.000000  0.000000  1.011247 )  


     PseudoPot. # 1 for Si read from file:
     /home/ppiaggi/pseudos/Si_ONCV_PBE_sr.upf
     MD5 check sum: 8553c464762ac42b85b1eed164b4d029
     Pseudo is Norm-conserving, Zval =  4.0
     Generated using ONCVPSP code by D. R. Hamann
     Using radial grid of 1510 points,  4 beta functions with: 
                l(1) =   0
                l(2) =   0
                l(3) =   1
                l(4) =   1

     atomic species   valence    mass     pseudopotential
        Si             4.00    28.08500     Si( 1.00)

     No symmetry found



   Cartesian axes

     site n.     atom                  positions (alat units)
         1           Si  tau(   1) = (  -0.0036389   0.0068193   0.0076500  )
         2           Si  tau(   2) = (   0.0065693   0.2404807   0.2376227  )
         3           Si  tau(   3) = (   0.2515745  -0.0036852   0.2460149  )
         4           Si  tau(   4) = (   0.2490807   0.2439777  -0.0012027  )
         5           Si  tau(   5) = (   0.1249437   0.1217414   0.1221121  )
         6           Si  tau(   6) = (   0.4927329  -0.0066069   0.0008536  )
         7           Si  tau(   7) = (   0.4959750   0.2402044   0.2450673  )
         8           Si  tau(   8) = (   0.6144731   0.1188675   0.1149594  )
         9           Si  tau(   9) = (   0.7243473  -0.0067487   0.2354552  )
        10           Si  tau(  10) = (   0.7373909   0.2495812   0.0021041  )
        11           Si  tau(  11) = (   0.0014972   0.4835913  -0.0063960  )
        12           Si  tau(  12) = (   0.2461926   0.4998608   0.2376988  )
        13           Si  tau(  13) = (   0.1243592   0.6075697   0.1205010  )
        14           Si  tau(  14) = (   0.3723696   0.3737157   0.1181895  )
        15           Si  tau(  15) = (   0.4887447   0.4831677  -0.0039599  )
        16           Si  tau(  16) = (   0.6139890   0.6116885   0.1265203  )
        17           Si  tau(  17) = (   0.8572099   0.3710656   0.1266869  )
        18           Si  tau(  18) = (   0.7346925   0.4971934   0.2456080  )
        19           Si  tau(  19) = (   0.0002353   0.7444630   0.2345201  )
        20           Si  tau(  20) = (   0.2497904   0.7408819   0.0065118  )
        21           Si  tau(  21) = (   0.3654737   0.8515853   0.1202923  )
        22           Si  tau(  22) = (   0.4949964   0.7423843   0.2358020  )
        23           Si  tau(  23) = (   0.7267540   0.7434197  -0.0038150  )
        24           Si  tau(  24) = (   0.8547372   0.8567425   0.1227823  )
        25           Si  tau(  25) = (   0.0001039  -0.0044504   0.4871199  )
        26           Si  tau(  26) = (   0.2449262   0.2517503   0.4747217  )
        27           Si  tau(  27) = (   0.1194379   0.1172089   0.6042160  )
        28           Si  tau(  28) = (   0.3650999   0.1162041   0.3523074  )
        29           Si  tau(  29) = (   0.4909654  -0.0032791   0.4820321  )
        30           Si  tau(  30) = (   0.6069662   0.1247855   0.6097062  )
        31           Si  tau(  31) = (   0.8500327   0.1184374   0.3539092  )
        32           Si  tau(  32) = (   0.7346408   0.2370395   0.4767433  )
        33           Si  tau(  33) = (   0.1161668   0.3689711   0.3573872  )
        34           Si  tau(  34) = (   0.0063655   0.4922459   0.4871258  )
        35           Si  tau(  35) = (   0.1197231   0.6066875   0.6008355  )
        36           Si  tau(  36) = (   0.6022613   0.3750713   0.3649212  )
        37           Si  tau(  37) = (   0.3682305   0.6186379   0.3615066  )
        38           Si  tau(  38) = (   0.3584292   0.3649422   0.5978582  )
        39           Si  tau(  39) = (   0.4811579   0.4940958   0.4728899  )
        40           Si  tau(  40) = (   0.6173333   0.6184201   0.6004827  )
        41           Si  tau(  41) = (   0.8543174   0.6107588   0.3554884  )
        42           Si  tau(  42) = (   0.8519889   0.3673563   0.5997021  )
        43           Si  tau(  43) = (   0.1175712   0.8632078   0.3630415  )
        44           Si  tau(  44) = (   0.2423862   0.7374499   0.4868540  )
        45           Si  tau(  45) = (   0.6168498   0.8666505   0.3544994  )
        46           Si  tau(  46) = (   0.3602702   0.8670562   0.5958454  )
        47           Si  tau(  47) = (   0.7352040   0.7369478   0.4767595  )
        48           Si  tau(  48) = (   0.8471589   0.8597777   0.6047743  )
        49           Si  tau(  49) = (  -0.0051505   0.2377541   0.7290736  )
        50           Si  tau(  50) = (   0.2474853   0.0085796   0.7191034  )
        51           Si  tau(  51) = (   0.3728394   0.1301342   0.8401773  )
        52           Si  tau(  52) = (   0.4963346   0.2413483   0.7246085  )
        53           Si  tau(  53) = (   0.7370743  -0.0026289   0.7232843  )
        54           Si  tau(  54) = (   0.8613161   0.1305865   0.8427104  )
        55           Si  tau(  55) = (   0.1178513   0.3645219   0.8338715  )
        56           Si  tau(  56) = (   0.2369832   0.4983015   0.7297148  )
        57           Si  tau(  57) = (   0.6037798   0.3648800   0.8382577  )
        58           Si  tau(  58) = (   0.3734955   0.6085453   0.8417019  )
        59           Si  tau(  59) = (   0.7303240   0.4937476   0.7168271  )
        60           Si  tau(  60) = (   0.8621532   0.6080281   0.8357628  )
        61           Si  tau(  61) = (  -0.0040532   0.7399131   0.7201651  )
        62           Si  tau(  62) = (   0.1199399   0.8660044   0.8406671  )
        63           Si  tau(  63) = (   0.4886027   0.7405799   0.7247321  )
        64           Si  tau(  64) = (   0.6084354   0.8594547   0.8341169  )

     number of k points=     1  Fermi-Dirac smearing, width (Ry)=  0.0100
                       cart. coord. in units 2pi/alat
        k(    1) = (   0.0000000   0.0000000   0.0000000), wk =   2.0000000

     Dense  grid:    96277 G-vectors     FFT dimensions: (  72,  75,  72)

     Estimated max dynamical RAM per process >     154.07 MB

     Estimated total dynamical RAM >     592.79 MB

     Initial potential from superposition of free atoms

     starting charge     255.9608, renormalised to     256.0000
     Starting wfcs are  256 randomized atomic wfcs

     total cpu time spent up to now is        5.1 secs

     Self-consistent Calculation

     iteration #  1     ecut=    30.00 Ry     beta= 0.50
     Davidson diagonalization with overlap
     ethr =  1.00E-02,  avg # of iterations =  3.0

     Threshold (ethr) on eigenvalues was too large:
     Diagonalizing with lowered threshold

     Davidson diagonalization with overlap
     ethr =  6.70E-04,  avg # of iterations =  8.0

     total cpu time spent up to now is        5.4 secs

     total energy              =    -503.21479882 Ry
     estimated scf accuracy    <       1.91499424 Ry

     iteration #  2     ecut=    30.00 Ry     beta= 0.50
     Davidson diagonalization with overlap
     ethr =  7.48E-04,  avg # of iterations =  2.0

     total cpu time spent up to now is        5.5 secs

     total energy              =    -503.17242086 Ry
     estimated scf accuracy    <       0.44148976 Ry

     iteration #  3     ecut=    30.00 Ry     beta= 0.50
     Davidson diagonalization with overlap
     ethr =  1.72E-04,  avg # of iterations =  4.0

     total cpu time spent up to now is        5.7 secs

     total energy              =    -503.03235567 Ry
     estimated scf accuracy    <       1.52421186 Ry

     iteration #  4     ecut=    30.00 Ry     beta= 0.50
     Davidson diagonalization with overlap
     ethr =  1.72E-04,  avg # of iterations =  4.0

     total cpu time spent up to now is        5.8 secs

     total energy              =    -503.25789881 Ry
     estimated scf accuracy    <       0.05303990 Ry

     iteration #  5     ecut=    30.00 Ry     beta= 0.50
     Davidson diagonalization with overlap
     ethr =  2.07E-05,  avg # of iterations = 17.0

     total cpu time spent up to now is        6.0 secs

     total energy              =    -503.25988385 Ry
     estimated scf accuracy    <       0.02210285 Ry

     iteration #  6     ecut=    30.00 Ry     beta= 0.50
     Davidson diagonalization with overlap
     ethr =  8.63E-06,  avg # of iterations =  6.0

     total cpu time spent up to now is        6.1 secs

     total energy              =    -503.26191711 Ry
     estimated scf accuracy    <       0.00451718 Ry

     iteration #  7     ecut=    30.00 Ry     beta= 0.50
     Davidson diagonalization with overlap
     ethr =  1.76E-06,  avg # of iterations =  5.0

     total cpu time spent up to now is        6.2 secs

     total energy              =    -503.26281335 Ry
     estimated scf accuracy    <       0.00058907 Ry

     iteration #  8     ecut=    30.00 Ry     beta= 0.50
     Davidson diagonalization with overlap
     ethr =  2.30E-07,  avg # of iterations =  3.0

     total cpu time spent up to now is        6.3 secs

     total energy              =    -503.26285519 Ry
     estimated scf accuracy    <       0.00021180 Ry

     iteration #  9     ecut=    30.00 Ry     beta= 0.50
     Davidson diagonalization with overlap
     ethr =  8.27E-08,  avg # of iterations =  3.0

     total cpu time spent up to now is        6.4 secs

     total energy              =    -503.26286751 Ry
     estimated scf accuracy    <       0.00004972 Ry

     iteration # 10     ecut=    30.00 Ry     beta= 0.50
     Davidson diagonalization with overlap
     ethr =  1.94E-08,  avg # of iterations =  4.0

     total cpu time spent up to now is        6.6 secs

     total energy              =    -503.26287449 Ry
     estimated scf accuracy    <       0.00001077 Ry

     iteration # 11     ecut=    30.00 Ry     beta= 0.50
     Davidson diagonalization with overlap
     ethr =  4.21E-09,  avg # of iterations =  3.0

     total cpu time spent up to now is        6.7 secs

     End of self-consistent calculation

          k = 0.0000 0.0000 0.0000 ( 12019 PWs)   bands (ev):

    -5.9253  -5.0256  -4.9811  -4.9252  -4.6860  -4.6742  -4.5989  -4.2002
    -4.1544  -4.1100  -3.9626  -3.8787  -3.8252  -3.7932  -3.7600  -3.6957
    -3.6838  -3.5709  -3.4901  -3.4835  -3.3038  -3.2890  -2.8575  -2.0725
    -2.0160  -1.9133  -1.8273  -1.7689  -1.7234  -1.6803  -1.6495  -1.6140
    -1.5705  -1.4688  -1.3416  -1.3268  -1.2708  -1.2506  -1.1739  -1.1419
    -1.0658  -1.0245  -0.7562  -0.6382  -0.5764   0.3679   0.4386   0.4858
     0.5688   0.5979   0.6492   0.7124   0.7732   0.8047   0.9109   0.9330
     0.9698   2.0582   2.0636   2.0843   2.0956   2.1095   2.1265   2.1636
     2.1829   2.1971   2.2080   2.2412   2.2556   2.2975   2.3271   2.3423
     2.3883   2.4008   2.4841   2.5181   2.5393   2.5538   2.6018   2.6530
     2.7254   2.8222   2.8425   2.9119   2.9169   3.0186   3.1134   3.1854
     3.2027   3.3371   3.3916   3.4583   3.4902   4.0023   4.0390   4.1886
     4.2025   4.2315   4.2564   4.2989   4.3608   4.4294   4.4604   4.4961
     4.5570   4.5789   4.6113   4.6579   4.7000   4.7681   4.7896   4.8110
     4.8489   4.8927   4.9130   4.9288   4.9436   5.0169   5.0646   5.0925
     5.1286   5.1891   5.6166   5.8269   5.8710   5.9446   6.4381   6.4856
     6.5268   6.6250   6.6940   6.8099   6.9655   6.9911   7.1283   7.2222
     7.2867   7.3143   7.4321   7.4804   7.5129   7.5326   7.5927   7.6962
     8.1687   8.1951   8.2758   8.3184   8.4103   8.4287   8.4529   8.4865
     8.5091   8.5761

     the Fermi energy is     6.4778 ev

!    total energy              =    -503.26287622 Ry
     estimated scf accuracy    <       0.00000082 Ry
     smearing contrib. (-TS)   =      -0.07879828 Ry
     internal energy E=F+TS    =    -503.18407793 Ry

     The total energy is F=E-TS. E is the sum of the following terms:
     one-electron contribution =     143.26269155 Ry
     hartree contribution      =      39.47555280 Ry
     xc contribution           =    -154.13972533 Ry
     ewald contribution        =    -531.78259695 Ry

     convergence has been achieved in  11 iterations

     Forces acting on atoms (cartesian axes, Ry/au):

     atom    1 type  1   force =    -0.05780240   -0.07875182   -0.07774320
     atom    2 type  1   force =    -0.10941431    0.01777303    0.02104778
     atom    3 type  1   force =    -0.06842942   -0.10994620   -0.06112592
     atom    4 type  1   force =    -0.00482831    0.01879341   -0.06235616
     atom    5 type  1   force =     0.04229007   -0.02632786   -0.01559929
     atom    6 type  1   force =    -0.03637907   -0.04809212   -0.07495407
     atom    7 type  1   force =    -0.01547604    0.02022241   -0.03947668
     atom    8 type  1   force =    -0.00997034    0.01757044   -0.00857193
     atom    9 type  1   force =     0.06520983   -0.04555934    0.00457261
     atom   10 type  1   force =    -0.00290529   -0.00086544   -0.07835868
     atom   11 type  1   force =    -0.04745813    0.00694828   -0.03383514
     atom   12 type  1   force =     0.01997692   -0.05341584    0.04043419
     atom   13 type  1   force =    -0.04634572    0.05310972   -0.05201462
     atom   14 type  1   force =    -0.04027280   -0.06066925    0.03571966
     atom   15 type  1   force =     0.04810687    0.05550944   -0.06385697
     atom   16 type  1   force =    -0.01453945    0.00990268   -0.07633286
     atom   17 type  1   force =     0.06144810   -0.01295834   -0.02011157
     atom   18 type  1   force =    -0.02144030   -0.06758016   -0.01368874
     atom   19 type  1   force =    -0.04710781   -0.03641457    0.00891102
     atom   20 type  1   force =    -0.06414714   -0.05163610   -0.13306060
     atom   21 type  1   force =     0.03336232    0.13994965    0.02459314
     atom   22 type  1   force =    -0.00674152   -0.01542617    0.04080991
     atom   23 type  1   force =     0.02552677   -0.02802884   -0.06015461
     atom   24 type  1   force =     0.02508684    0.07360109   -0.01855724
     atom   25 type  1   force =    -0.08021056   -0.05391905   -0.03567303
     atom   26 type  1   force =    -0.03670175   -0.07066704   -0.00692292
     atom   27 type  1   force =    -0.00102981    0.05343602   -0.03109432
     atom   28 type  1   force =     0.04494813    0.04793930    0.07572230
     atom   29 type  1   force =    -0.00305773   -0.04397322   -0.00615666
     atom   30 type  1   force =     0.06004193   -0.06392263   -0.06276482
     atom   31 type  1   force =     0.08876477   -0.02812613   -0.00901226
     atom   32 type  1   force =    -0.02868644    0.04480513    0.02250914
     atom   33 type  1   force =     0.02930831    0.02056228   -0.00950274
     atom   34 type  1   force =    -0.12981905   -0.04472016   -0.05140757
     atom   35 type  1   force =     0.01654413    0.08774409    0.03883568
     atom   36 type  1   force =     0.06796033   -0.05279945   -0.02382822
     atom   37 type  1   force =    -0.02516176    0.04749147   -0.03743380
     atom   38 type  1   force =     0.03978094    0.03769525    0.05464232
     atom   39 type  1   force =     0.01645009    0.01049457    0.10062449
     atom   40 type  1   force =    -0.06697821    0.00108623   -0.02318705
     atom   41 type  1   force =     0.11953263    0.05636537    0.04684195
     atom   42 type  1   force =     0.06932843   -0.02110394   -0.00153885
     atom   43 type  1   force =     0.01585323    0.05224812    0.00622610
     atom   44 type  1   force =    -0.01889833   -0.00108407   -0.02964230
     atom   45 type  1   force =    -0.02441766    0.03011379    0.02938305
     atom   46 type  1   force =     0.03078988    0.05084470    0.04294357
     atom   47 type  1   force =     0.00807148    0.02070891   -0.01325505
     atom   48 type  1   force =     0.07076591    0.04952428    0.00714369
     atom   49 type  1   force =    -0.03215340    0.02871509   -0.06139634
     atom   50 type  1   force =     0.01269288   -0.09541176    0.03669858
     atom   51 type  1   force =    -0.03096371   -0.05760710    0.09569872
     atom   52 type  1   force =    -0.07491599    0.05356676   -0.02983197
     atom   53 type  1   force =    -0.00451188   -0.03471138    0.01736647
     atom   54 type  1   force =    -0.00947781   -0.04668301    0.08716866
     atom   55 type  1   force =     0.01297706   -0.00804021    0.10713389
     atom   56 type  1   force =     0.03887066   -0.03834100   -0.02015902
     atom   57 type  1   force =     0.06888638    0.04261608    0.09261390
     atom   58 type  1   force =    -0.01420918    0.02667780    0.08366982
     atom   59 type  1   force =     0.01492711   -0.02816002    0.03874908
     atom   60 type  1   force =     0.02207498    0.03025616    0.07708317
     atom   61 type  1   force =    -0.03702040   -0.00138664    0.00112793
     atom   62 type  1   force =     0.02427908    0.04939629    0.06257459
     atom   63 type  1   force =    -0.03164080   -0.01362013   -0.05505862
     atom   64 type  1   force =     0.04925643    0.08428115    0.09681839

     Total force =     0.698944     Total SCF correction =     0.001456


     Computing stress (Cartesian axis) and pressure

          total   stress  (Ry/bohr**3)                   (kbar)     P=       41.55
   0.00029336   0.00014262   0.00014692           43.16       20.98       21.61
   0.00014262   0.00024539   0.00014705           20.98       36.10       21.63
   0.00014692   0.00014705   0.00030862           21.61       21.63       45.40

 
     init_run     :      1.21s CPU      5.06s WALL (       1 calls)
     electrons    :      1.42s CPU      1.52s WALL (       1 calls)
     forces       :      0.04s CPU      0.04s WALL (       1 calls)
     stress       :      0.16s CPU      0.16s WALL (       1 calls)

     Called by init_run:
     wfcinit      :      0.58s CPU      4.25s WALL (       1 calls)
                                        4.25s GPU  (       1 calls)
     potinit      :      0.20s CPU      0.30s WALL (       1 calls)
     hinit0       :      0.41s CPU      0.44s WALL (       1 calls)

     Called by electrons:
     c_bands      :      0.90s CPU      0.94s WALL (      12 calls)
     sum_band     :      0.28s CPU      0.30s WALL (      12 calls)
     v_of_rho     :      0.14s CPU      0.24s WALL (      12 calls)
     mix_rho      :      0.09s CPU      0.11s WALL (      12 calls)

     Called by c_bands:
     init_us_2    :      0.04s CPU      0.05s WALL (      25 calls)
     init_us_2:gp :      0.04s CPU      0.05s WALL (      25 calls)
     regterg      :      0.80s CPU      0.83s WALL (      12 calls)

     Called by *egterg:
     rdiaghg      :      0.35s CPU      1.09s WALL (      73 calls)
                                        1.08s GPU  (      73 calls)
     h_psi        :      0.88s CPU      3.83s WALL (      75 calls)
                                        3.83s GPU  (      75 calls)
     g_psi        :      0.00s CPU      0.00s WALL (      62 calls)
                                        0.00s GPU  (      62 calls)

     Called by h_psi:
     h_psi:calbec :      0.52s CPU      3.40s WALL (      75 calls)
                                        3.40s GPU  (      75 calls)
     vloc_psi     :      0.32s CPU      0.38s WALL (      75 calls)
                                        0.38s GPU  (      75 calls)
     add_vuspsi   :      0.03s CPU      0.04s WALL (      75 calls)
                                        0.04s GPU  (      75 calls)

     General routines
     calbec       :      0.52s CPU      3.41s WALL (      80 calls)
     fft          :      0.48s CPU      0.61s WALL (     103 calls)
                                        0.13s GPU  (      66 calls)
     ffts         :      0.04s CPU      0.04s WALL (      12 calls)
     fftw         :      0.37s CPU      0.49s WALL (    1314 calls)
                                        0.44s GPU  (    1314 calls)
 
     Parallel routines
 
     PWSCF        :      2.88s CPU      6.88s WALL

 
   This run was terminated on:  11:19:46  10May2023            

=------------------------------------------------------------------------------=
   JOB DONE.
=------------------------------------------------------------------------------=
