
     Program PWSCF v.7.1 starts on 10May2023 at 11:24: 9 

     This program is part of the open-source Quantum ESPRESSO suite
     for quantum simulation of materials; please cite
         "P. Giannozzi et al., J. Phys.:Condens. Matter 21 395502 (2009);
         "P. Giannozzi et al., J. Phys.:Condens. Matter 29 465901 (2017);
         "P. Giannozzi et al., J. Chem. Phys. 152 154105 (2020);
          URL http://www.quantum-espresso.org", 
     in publications or presentations arising from this work. More details at
     http://www.quantum-espresso.org/quote

     Parallel version (MPI & OpenMP), running on       4 processor cores
     Number of MPI processes:                 4
     Threads/MPI process:                     1

     MPI processes distributed on     1 nodes
     753555 MiB available memory on the printing compute node when the environment starts
 
     Reading input from pw-si-87.in
Warning: card &CELL ignored
Warning: card / ignored

     Current dimensions of program PWSCF are:
     Max number of different atomic species (ntypx) = 10
     Max number of k-points (npk) =  40000
     Max angular momentum in pseudopotentials (lmaxx) =  4

     IMPORTANT: XC functional enforced from input :
     Exchange-correlation= PBE
                           (   1   4   3   4   0   0   0)
     Any further DFT definition will be discarded
     Please, verify this is what you really want


     gamma-point specific algorithms are used
 
     K-points division:     npool     =       2
     R & G space division:  proc/nbgrp/npool/nimage =       2
     Subspace diagonalization in iterative solution of the eigenvalue problem:
     a serial algorithm will be used

     Message from routine divide_et_impera:
     suboptimal parallelization: some nodes have no k-points
 
     Parallelization info
     --------------------
     sticks:   dense  smooth     PW     G-vecs:    dense   smooth      PW
     Min        2062    2062    544                98163    98163   13296
     Max        2065    2065    545                98166    98166   13301
     Sum        4127    4127   1089               196329   196329   26597
 
     Using Slab Decomposition
 


     bravais-lattice index     =            0
     lattice parameter (alat)  =      20.4825  a.u.
     unit-cell volume          =    8840.1389 (a.u.)^3
     number of atoms/cell      =           64
     number of atomic types    =            1
     number of electrons       =       256.00
     number of Kohn-Sham states=          154
     kinetic-energy cutoff     =      30.0000  Ry
     charge density cutoff     =     120.0000  Ry
     scf convergence threshold =      1.0E-06
     mixing beta               =       0.5000
     number of iterations used =            8  plain     mixing
     Exchange-correlation= PBE
                           (   1   4   3   4   0   0   0)

     GPU acceleration is ACTIVE.
     GPU-aware MPI enabled

     Message from routine print_cuda_info:
     High GPU oversubscription detected. Are you sure this is what you want?

     celldm(1)=  20.482549  celldm(2)=   0.000000  celldm(3)=   0.000000
     celldm(4)=   0.000000  celldm(5)=   0.000000  celldm(6)=   0.000000

     crystal axes: (cart. coord. in units of alat)
               a(1) = (   1.000000   0.000000   0.000000 )  
               a(2) = (   0.000000   1.028612   0.000000 )  
               a(3) = (   0.000000   0.000000   1.000128 )  

     reciprocal axes: (cart. coord. in units 2 pi/alat)
               b(1) = (  1.000000  0.000000  0.000000 )  
               b(2) = (  0.000000  0.972184  0.000000 )  
               b(3) = (  0.000000  0.000000  0.999872 )  


     PseudoPot. # 1 for Si read from file:
     /home/ppiaggi/pseudos/Si_ONCV_PBE_sr.upf
     MD5 check sum: 8553c464762ac42b85b1eed164b4d029
     Pseudo is Norm-conserving, Zval =  4.0
     Generated using ONCVPSP code by D. R. Hamann
     Using radial grid of 1510 points,  4 beta functions with: 
                l(1) =   0
                l(2) =   0
                l(3) =   1
                l(4) =   1

     atomic species   valence    mass     pseudopotential
        Si             4.00    28.08500     Si( 1.00)

     No symmetry found



   Cartesian axes

     site n.     atom                  positions (alat units)
         1           Si  tau(   1) = (   0.0050813  -0.0054856   0.0024403  )
         2           Si  tau(   2) = (   0.0023865   0.2571410   0.2518704  )
         3           Si  tau(   3) = (   0.2505827   0.0050819   0.2519216  )
         4           Si  tau(   4) = (   0.2551889   0.2663549   0.0041502  )
         5           Si  tau(   5) = (   0.1265559   0.1402554   0.1135873  )
         6           Si  tau(   6) = (   0.4937007  -0.0081101  -0.0046458  )
         7           Si  tau(   7) = (   0.4952166   0.2710062   0.2530047  )
         8           Si  tau(   8) = (   0.6173474   0.1258791   0.1245847  )
         9           Si  tau(   9) = (   0.7366370  -0.0013699   0.2412936  )
        10           Si  tau(  10) = (   0.7368880   0.2632279  -0.0036358  )
        11           Si  tau(  11) = (   0.0006693   0.5251878  -0.0014092  )
        12           Si  tau(  12) = (   0.2556583   0.5181516   0.2410214  )
        13           Si  tau(  13) = (   0.1315075   0.6542310   0.1152630  )
        14           Si  tau(  14) = (   0.3683057   0.3931114   0.1169522  )
        15           Si  tau(  15) = (   0.4951069   0.5274076   0.0015952  )
        16           Si  tau(  16) = (   0.6168389   0.6553047   0.1181355  )
        17           Si  tau(  17) = (   0.8692219   0.3969033   0.1217466  )
        18           Si  tau(  18) = (   0.7513499   0.5152511   0.2448858  )
        19           Si  tau(  19) = (   0.0021808   0.7833695   0.2360380  )
        20           Si  tau(  20) = (   0.2447024   0.7865789  -0.0001113  )
        21           Si  tau(  21) = (   0.3711978   0.9186791   0.1284143  )
        22           Si  tau(  22) = (   0.5007537   0.7890443   0.2418181  )
        23           Si  tau(  23) = (   0.7359620   0.7949156   0.0040128  )
        24           Si  tau(  24) = (   0.8725867   0.9259827   0.1145460  )
        25           Si  tau(  25) = (  -0.0017888   0.0018669   0.4945957  )
        26           Si  tau(  26) = (   0.2560833   0.2646544   0.4967465  )
        27           Si  tau(  27) = (   0.1275199   0.1267842   0.6080381  )
        28           Si  tau(  28) = (   0.3643211   0.1402185   0.3650964  )
        29           Si  tau(  29) = (   0.4926248  -0.0063958   0.4848923  )
        30           Si  tau(  30) = (   0.6173306   0.1379709   0.6175728  )
        31           Si  tau(  31) = (   0.8658018   0.1331929   0.3692177  )
        32           Si  tau(  32) = (   0.7405952   0.2697440   0.4966688  )
        33           Si  tau(  33) = (   0.1260252   0.3929751   0.3646513  )
        34           Si  tau(  34) = (  -0.0067302   0.5266329   0.4948681  )
        35           Si  tau(  35) = (   0.1254421   0.6535141   0.6190865  )
        36           Si  tau(  36) = (   0.6279218   0.3921238   0.3747364  )
        37           Si  tau(  37) = (   0.3654520   0.6605856   0.3584032  )
        38           Si  tau(  38) = (   0.3757264   0.3849897   0.6019055  )
        39           Si  tau(  39) = (   0.4887085   0.5219593   0.4816934  )
        40           Si  tau(  40) = (   0.6163524   0.6569918   0.6195820  )
        41           Si  tau(  41) = (   0.8610527   0.6589284   0.3648062  )
        42           Si  tau(  42) = (   0.8653184   0.3859839   0.6086272  )
        43           Si  tau(  43) = (   0.1318744   0.9134819   0.3657500  )
        44           Si  tau(  44) = (   0.2524239   0.7933435   0.4830303  )
        45           Si  tau(  45) = (   0.6252185   0.9264488   0.3659373  )
        46           Si  tau(  46) = (   0.3637935   0.9100577   0.6020221  )
        47           Si  tau(  47) = (   0.7505600   0.7925998   0.4936517  )
        48           Si  tau(  48) = (   0.8627249   0.9079436   0.6022816  )
        49           Si  tau(  49) = (  -0.0073641   0.2668737   0.7394934  )
        50           Si  tau(  50) = (   0.2556641   0.0037057   0.7321525  )
        51           Si  tau(  51) = (   0.3652073   0.1330970   0.8478231  )
        52           Si  tau(  52) = (   0.4934105   0.2608606   0.7356016  )
        53           Si  tau(  53) = (   0.7383219   0.0078339   0.7416758  )
        54           Si  tau(  54) = (   0.8680152   0.1389797   0.8494686  )
        55           Si  tau(  55) = (   0.1227984   0.3982038   0.8514942  )
        56           Si  tau(  56) = (   0.2487781   0.5158093   0.7289304  )
        57           Si  tau(  57) = (   0.6189469   0.3875562   0.8633779  )
        58           Si  tau(  58) = (   0.3717289   0.6576938   0.8484075  )
        59           Si  tau(  59) = (   0.7519849   0.5159544   0.7248175  )
        60           Si  tau(  60) = (   0.8679311   0.6544897   0.8559194  )
        61           Si  tau(  61) = (  -0.0072469   0.7815671   0.7261526  )
        62           Si  tau(  62) = (   0.1327316   0.9250217   0.8634843  )
        63           Si  tau(  63) = (   0.4871061   0.7841466   0.7299494  )
        64           Si  tau(  64) = (   0.6231845   0.9237839   0.8473421  )

     number of k points=     1  Fermi-Dirac smearing, width (Ry)=  0.0100
                       cart. coord. in units 2pi/alat
        k(    1) = (   0.0000000   0.0000000   0.0000000), wk =   2.0000000

     Dense  grid:    98165 G-vectors     FFT dimensions: (  72,  75,  72)

     Estimated max dynamical RAM per process >     156.73 MB

     Estimated total dynamical RAM >     602.97 MB

     Initial potential from superposition of free atoms

     starting charge     255.9608, renormalised to     256.0000
     Starting wfcs are  256 randomized atomic wfcs

     total cpu time spent up to now is        5.1 secs

     Self-consistent Calculation

     iteration #  1     ecut=    30.00 Ry     beta= 0.50
     Davidson diagonalization with overlap
     ethr =  1.00E-02,  avg # of iterations =  3.0

     Threshold (ethr) on eigenvalues was too large:
     Diagonalizing with lowered threshold

     Davidson diagonalization with overlap
     ethr =  6.55E-04,  avg # of iterations =  5.0

     total cpu time spent up to now is        5.4 secs

     total energy              =    -503.35695321 Ry
     estimated scf accuracy    <       1.86773807 Ry

     iteration #  2     ecut=    30.00 Ry     beta= 0.50
     Davidson diagonalization with overlap
     ethr =  7.30E-04,  avg # of iterations =  2.0

     total cpu time spent up to now is        5.5 secs

     total energy              =    -503.33910648 Ry
     estimated scf accuracy    <       0.37034143 Ry

     iteration #  3     ecut=    30.00 Ry     beta= 0.50
     Davidson diagonalization with overlap
     ethr =  1.45E-04,  avg # of iterations = 15.0

     total cpu time spent up to now is        5.7 secs

     total energy              =    -503.29886360 Ry
     estimated scf accuracy    <       0.55280044 Ry

     iteration #  4     ecut=    30.00 Ry     beta= 0.50
     Davidson diagonalization with overlap
     ethr =  1.45E-04,  avg # of iterations =  3.0

     total cpu time spent up to now is        5.8 secs

     total energy              =    -503.38643478 Ry
     estimated scf accuracy    <       0.02386031 Ry

     iteration #  5     ecut=    30.00 Ry     beta= 0.50
     Davidson diagonalization with overlap
     ethr =  9.32E-06,  avg # of iterations = 15.0

     total cpu time spent up to now is        6.0 secs

     total energy              =    -503.38864542 Ry
     estimated scf accuracy    <       0.00691738 Ry

     iteration #  6     ecut=    30.00 Ry     beta= 0.50
     Davidson diagonalization with overlap
     ethr =  2.70E-06,  avg # of iterations =  5.0

     total cpu time spent up to now is        6.1 secs

     total energy              =    -503.38965235 Ry
     estimated scf accuracy    <       0.00115248 Ry

     iteration #  7     ecut=    30.00 Ry     beta= 0.50
     Davidson diagonalization with overlap
     ethr =  4.50E-07,  avg # of iterations =  4.0

     total cpu time spent up to now is        6.2 secs

     total energy              =    -503.38987673 Ry
     estimated scf accuracy    <       0.00051644 Ry

     iteration #  8     ecut=    30.00 Ry     beta= 0.50
     Davidson diagonalization with overlap
     ethr =  2.02E-07,  avg # of iterations =  3.0

     total cpu time spent up to now is        6.3 secs

     total energy              =    -503.38993177 Ry
     estimated scf accuracy    <       0.00005570 Ry

     iteration #  9     ecut=    30.00 Ry     beta= 0.50
     Davidson diagonalization with overlap
     ethr =  2.18E-08,  avg # of iterations =  5.0

     total cpu time spent up to now is        6.5 secs

     total energy              =    -503.38994202 Ry
     estimated scf accuracy    <       0.00000988 Ry

     iteration # 10     ecut=    30.00 Ry     beta= 0.50
     Davidson diagonalization with overlap
     ethr =  3.86E-09,  avg # of iterations =  4.0

     total cpu time spent up to now is        6.6 secs

     total energy              =    -503.38994377 Ry
     estimated scf accuracy    <       0.00000431 Ry

     iteration # 11     ecut=    30.00 Ry     beta= 0.50
     Davidson diagonalization with overlap
     ethr =  1.68E-09,  avg # of iterations =  3.0

     total cpu time spent up to now is        6.7 secs

     End of self-consistent calculation

          k = 0.0000 0.0000 0.0000 ( 12249 PWs)   bands (ev):

    -5.9646  -5.0744  -5.0343  -4.9842  -4.7508  -4.7322  -4.6848  -4.2785
    -4.2609  -4.1706  -4.0369  -3.9713  -3.8877  -3.8689  -3.7915  -3.7653
    -3.6845  -3.6112  -3.5861  -3.5443  -3.4687  -3.3682  -3.1586  -2.2894
    -2.1127  -2.0205  -1.9720  -1.8853  -1.8296  -1.7860  -1.6892  -1.6701
    -1.6433  -1.5666  -1.5548  -1.4591  -1.4237  -1.4013  -1.3376  -1.2782
    -1.2603  -1.0690  -0.8970  -0.8052  -0.5883   0.2801   0.3283   0.3573
     0.3771   0.4352   0.5319   0.5787   0.6171   0.6557   0.6954   0.7407
     0.7804   1.7510   1.9074   1.9369   1.9797   1.9981   2.0479   2.0755
     2.1089   2.1464   2.1572   2.1772   2.2113   2.2200   2.2575   2.2948
     2.3292   2.3790   2.3802   2.4056   2.4163   2.4538   2.5017   2.5666
     2.5850   2.6229   2.6563   2.7056   2.7391   2.7761   2.8506   3.0368
     3.1088   3.1656   3.1818   3.2276   3.4602   3.8236   3.9092   3.9668
     3.9904   4.0074   4.0945   4.1818   4.1929   4.2412   4.2887   4.3442
     4.3470   4.4026   4.4640   4.5236   4.5344   4.5803   4.6024   4.6369
     4.6695   4.7280   4.7523   4.8081   4.9309   4.9720   4.9980   5.0348
     5.0779   5.1324   5.2288   5.2607   5.5651   5.8165   6.0934   6.3057
     6.4243   6.5302   6.5546   6.6145   6.7341   6.8578   6.9390   7.0086
     7.1050   7.1847   7.2454   7.2911   7.3171   7.3532   7.3972   7.4286
     7.9852   8.0166   8.0878   8.1234   8.1575   8.2071   8.2643   8.3208
     8.4057   8.4701

     the Fermi energy is     6.2975 ev

!    total energy              =    -503.38994405 Ry
     estimated scf accuracy    <       0.00000066 Ry
     smearing contrib. (-TS)   =      -0.06876896 Ry
     internal energy E=F+TS    =    -503.32117509 Ry

     The total energy is F=E-TS. E is the sum of the following terms:
     one-electron contribution =     141.44539078 Ry
     hartree contribution      =      38.74537917 Ry
     xc contribution           =    -153.54292065 Ry
     ewald contribution        =    -529.96902440 Ry

     convergence has been achieved in  11 iterations

     Forces acting on atoms (cartesian axes, Ry/au):

     atom    1 type  1   force =     0.02899937    0.11280617   -0.08454610
     atom    2 type  1   force =    -0.02462750    0.01988503   -0.03426099
     atom    3 type  1   force =    -0.01708892    0.06673101   -0.05061972
     atom    4 type  1   force =    -0.04107453   -0.02401134   -0.11515388
     atom    5 type  1   force =    -0.01603419   -0.03309994    0.04168447
     atom    6 type  1   force =     0.01647755    0.07829340   -0.05064289
     atom    7 type  1   force =     0.01136351   -0.02411156   -0.03434763
     atom    8 type  1   force =    -0.03206732    0.04503594   -0.03080797
     atom    9 type  1   force =     0.09432752    0.09128502   -0.02881616
     atom   10 type  1   force =     0.03257547   -0.01711040   -0.00757166
     atom   11 type  1   force =    -0.01303857   -0.00206310   -0.04882737
     atom   12 type  1   force =    -0.04735778    0.02293984    0.00602912
     atom   13 type  1   force =    -0.02962160   -0.02623545    0.01942844
     atom   14 type  1   force =     0.06765880    0.02176128    0.02498442
     atom   15 type  1   force =    -0.00945402   -0.01664787   -0.07709628
     atom   16 type  1   force =     0.02816685   -0.00509522    0.02703841
     atom   17 type  1   force =     0.03957791   -0.04770138   -0.02691686
     atom   18 type  1   force =    -0.04260277    0.04694934    0.00836562
     atom   19 type  1   force =    -0.01775139    0.00575910    0.01862559
     atom   20 type  1   force =     0.04106311    0.01330916   -0.05653588
     atom   21 type  1   force =    -0.00787352   -0.06555536   -0.03042981
     atom   22 type  1   force =     0.00041053   -0.00918376    0.02089347
     atom   23 type  1   force =     0.02918478   -0.01703150   -0.07524390
     atom   24 type  1   force =    -0.03610146   -0.09922399    0.04749158
     atom   25 type  1   force =    -0.00771157    0.01866455   -0.03850222
     atom   26 type  1   force =    -0.08696699   -0.03545438   -0.04902839
     atom   27 type  1   force =    -0.01849962    0.04533454    0.03648216
     atom   28 type  1   force =     0.04742997   -0.00843505    0.01814890
     atom   29 type  1   force =    -0.00690365    0.11622863    0.02732622
     atom   30 type  1   force =    -0.00856052   -0.03149084   -0.03354235
     atom   31 type  1   force =     0.00042364   -0.00312348    0.00308628
     atom   32 type  1   force =     0.00768198   -0.07883910   -0.01622343
     atom   33 type  1   force =    -0.00361132    0.01539334    0.03054201
     atom   34 type  1   force =     0.00690479   -0.00905735   -0.02374190
     atom   35 type  1   force =     0.00171066    0.01023903   -0.05112889
     atom   36 type  1   force =    -0.03789688    0.03777993   -0.03975297
     atom   37 type  1   force =     0.03777659   -0.01188645    0.00405127
     atom   38 type  1   force =     0.02888693    0.06263905    0.06162978
     atom   39 type  1   force =     0.02947264    0.03252772    0.01726144
     atom   40 type  1   force =     0.01778117   -0.02438456   -0.05062677
     atom   41 type  1   force =     0.05057318   -0.00494476   -0.00511828
     atom   42 type  1   force =     0.06661009    0.03380787    0.00752544
     atom   43 type  1   force =    -0.08545489   -0.02362571   -0.00473298
     atom   44 type  1   force =    -0.05539125   -0.09972954    0.01267690
     atom   45 type  1   force =    -0.02803092   -0.13637494    0.02955502
     atom   46 type  1   force =     0.05020759   -0.00837520    0.04772298
     atom   47 type  1   force =    -0.10656264   -0.08723694   -0.06431260
     atom   48 type  1   force =     0.06572829    0.06598774    0.10411592
     atom   49 type  1   force =     0.03698354   -0.01542360   -0.03974719
     atom   50 type  1   force =    -0.03978310    0.01681082   -0.01419359
     atom   51 type  1   force =     0.03618233    0.02377945    0.09919767
     atom   52 type  1   force =     0.00345165    0.02395680    0.01721862
     atom   53 type  1   force =     0.09675300    0.06558951   -0.09887798
     atom   54 type  1   force =    -0.00467402   -0.01455835    0.09261604
     atom   55 type  1   force =    -0.00710832   -0.01433015    0.07865835
     atom   56 type  1   force =     0.02905516    0.01445895    0.00232164
     atom   57 type  1   force =    -0.00244039    0.04119693    0.00403259
     atom   58 type  1   force =    -0.03012282   -0.03112389    0.08255860
     atom   59 type  1   force =    -0.04808582    0.02675874    0.06887542
     atom   60 type  1   force =    -0.00170075    0.00224437    0.03886391
     atom   61 type  1   force =     0.01393875    0.02586524    0.05724055
     atom   62 type  1   force =    -0.04365330   -0.08719917    0.00227545
     atom   63 type  1   force =     0.03936183    0.03643119    0.00826289
     atom   64 type  1   force =    -0.09886684   -0.12778538    0.11455952

     Total force =     0.664842     Total SCF correction =     0.001457


     Computing stress (Cartesian axis) and pressure

          total   stress  (Ry/bohr**3)                   (kbar)     P=       21.15
   0.00020235   0.00016605  -0.00009946           29.77       24.43      -14.63
   0.00016605   0.00005071   0.00002151           24.43        7.46        3.16
  -0.00009946   0.00002151   0.00017818          -14.63        3.16       26.21

 
     init_run     :      1.19s CPU      5.03s WALL (       1 calls)
     electrons    :      1.48s CPU      1.58s WALL (       1 calls)
     forces       :      0.04s CPU      0.05s WALL (       1 calls)
     stress       :      0.16s CPU      0.17s WALL (       1 calls)

     Called by init_run:
     wfcinit      :      0.55s CPU      4.22s WALL (       1 calls)
                                        4.22s GPU  (       1 calls)
     potinit      :      0.21s CPU      0.30s WALL (       1 calls)
     hinit0       :      0.41s CPU      0.44s WALL (       1 calls)

     Called by electrons:
     c_bands      :      0.94s CPU      0.99s WALL (      12 calls)
     sum_band     :      0.28s CPU      0.31s WALL (      12 calls)
     v_of_rho     :      0.14s CPU      0.24s WALL (      12 calls)
     mix_rho      :      0.10s CPU      0.11s WALL (      12 calls)

     Called by c_bands:
     init_us_2    :      0.04s CPU      0.05s WALL (      25 calls)
     init_us_2:gp :      0.04s CPU      0.05s WALL (      25 calls)
     regterg      :      0.84s CPU      0.88s WALL (      12 calls)

     Called by *egterg:
     rdiaghg      :      0.36s CPU      1.12s WALL (      78 calls)
                                        1.11s GPU  (      78 calls)
     h_psi        :      0.87s CPU      3.81s WALL (      80 calls)
                                        3.81s GPU  (      80 calls)
     g_psi        :      0.00s CPU      0.00s WALL (      67 calls)
                                        0.00s GPU  (      67 calls)

     Called by h_psi:
     h_psi:calbec :      0.50s CPU      3.36s WALL (      80 calls)
                                        3.36s GPU  (      80 calls)
     vloc_psi     :      0.32s CPU      0.39s WALL (      80 calls)
                                        0.39s GPU  (      80 calls)
     add_vuspsi   :      0.03s CPU      0.05s WALL (      80 calls)
                                        0.05s GPU  (      80 calls)

     General routines
     calbec       :      0.51s CPU      3.37s WALL (      85 calls)
     fft          :      0.49s CPU      0.62s WALL (     103 calls)
                                        0.14s GPU  (      66 calls)
     ffts         :      0.04s CPU      0.04s WALL (      12 calls)
     fftw         :      0.37s CPU      0.51s WALL (    1328 calls)
                                        0.45s GPU  (    1328 calls)
 
     Parallel routines
 
     PWSCF        :      2.91s CPU      6.90s WALL

 
   This run was terminated on:  11:24:16  10May2023            

=------------------------------------------------------------------------------=
   JOB DONE.
=------------------------------------------------------------------------------=
