An instance of this daemon is already running
An instance of this daemon is already running

     Program PWSCF v.7.1 starts on 10May2023 at 11:10:35 

     This program is part of the open-source Quantum ESPRESSO suite
     for quantum simulation of materials; please cite
         "P. Giannozzi et al., J. Phys.:Condens. Matter 21 395502 (2009);
         "P. Giannozzi et al., J. Phys.:Condens. Matter 29 465901 (2017);
         "P. Giannozzi et al., J. Chem. Phys. 152 154105 (2020);
          URL http://www.quantum-espresso.org", 
     in publications or presentations arising from this work. More details at
     http://www.quantum-espresso.org/quote

     Parallel version (MPI & OpenMP), running on       4 processor cores
     Number of MPI processes:                 4
     Threads/MPI process:                     1

     MPI processes distributed on     1 nodes
     753581 MiB available memory on the printing compute node when the environment starts
 
     Reading input from pw-si-0.in
Warning: card &CELL ignored
Warning: card / ignored

     Current dimensions of program PWSCF are:
     Max number of different atomic species (ntypx) = 10
     Max number of k-points (npk) =  40000
     Max angular momentum in pseudopotentials (lmaxx) =  4

     IMPORTANT: XC functional enforced from input :
     Exchange-correlation= PBE
                           (   1   4   3   4   0   0   0)
     Any further DFT definition will be discarded
     Please, verify this is what you really want


     gamma-point specific algorithms are used
 
     K-points division:     npool     =       2
     R & G space division:  proc/nbgrp/npool/nimage =       2
     Subspace diagonalization in iterative solution of the eigenvalue problem:
     a serial algorithm will be used

     Message from routine divide_et_impera:
     suboptimal parallelization: some nodes have no k-points
 
     Parallelization info
     --------------------
     sticks:   dense  smooth     PW     G-vecs:    dense   smooth      PW
     Min        2078    2078    547                97309    97309   13231
     Max        2079    2079    550                97310    97310   13234
     Sum        4157    4157   1097               194619   194619   26465
 
     Using Slab Decomposition
 


     bravais-lattice index     =            0
     lattice parameter (alat)  =      20.7166  a.u.
     unit-cell volume          =    8764.7270 (a.u.)^3
     number of atoms/cell      =           64
     number of atomic types    =            1
     number of electrons       =       256.00
     number of Kohn-Sham states=          154
     kinetic-energy cutoff     =      30.0000  Ry
     charge density cutoff     =     120.0000  Ry
     scf convergence threshold =      1.0E-06
     mixing beta               =       0.5000
     number of iterations used =            8  plain     mixing
     Exchange-correlation= PBE
                           (   1   4   3   4   0   0   0)

     GPU acceleration is ACTIVE.
     GPU-aware MPI enabled

     Message from routine print_cuda_info:
     High GPU oversubscription detected. Are you sure this is what you want?

     celldm(1)=  20.716584  celldm(2)=   0.000000  celldm(3)=   0.000000
     celldm(4)=   0.000000  celldm(5)=   0.000000  celldm(6)=   0.000000

     crystal axes: (cart. coord. in units of alat)
               a(1) = (   1.000000   0.000000   0.000000 )  
               a(2) = (   0.000000   1.013927   0.000000 )  
               a(3) = (   0.000000   0.000000   0.972248 )  

     reciprocal axes: (cart. coord. in units 2 pi/alat)
               b(1) = (  1.000000  0.000000  0.000000 )  
               b(2) = (  0.000000  0.986264  0.000000 )  
               b(3) = (  0.000000  0.000000  1.028544 )  


     PseudoPot. # 1 for Si read from file:
     /home/ppiaggi/pseudos/Si_ONCV_PBE_sr.upf
     MD5 check sum: 8553c464762ac42b85b1eed164b4d029
     Pseudo is Norm-conserving, Zval =  4.0
     Generated using ONCVPSP code by D. R. Hamann
     Using radial grid of 1510 points,  4 beta functions with: 
                l(1) =   0
                l(2) =   0
                l(3) =   1
                l(4) =   1

     atomic species   valence    mass     pseudopotential
        Si             4.00    28.08500     Si( 1.00)

     No symmetry found



   Cartesian axes

     site n.     atom                  positions (alat units)
         1           Si  tau(   1) = (   0.0005423  -0.0035747   0.0066522  )
         2           Si  tau(   2) = (  -0.0038874   0.2622527   0.2504741  )
         3           Si  tau(   3) = (   0.2587288   0.0022919   0.2375749  )
         4           Si  tau(   4) = (   0.2476548   0.2452472  -0.0030890  )
         5           Si  tau(   5) = (   0.1161955   0.1323672   0.1209331  )
         6           Si  tau(   6) = (   0.5024845   0.0082183   0.0062228  )
         7           Si  tau(   7) = (   0.5087800   0.2600592   0.2512467  )
         8           Si  tau(   8) = (   0.6267233   0.1324993   0.1212482  )
         9           Si  tau(   9) = (   0.7567804  -0.0029155   0.2437776  )
        10           Si  tau(  10) = (   0.7588183   0.2608766   0.0047081  )
        11           Si  tau(  11) = (   0.0007284   0.5087432   0.0023758  )
        12           Si  tau(  12) = (   0.2492175   0.5011097   0.2355813  )
        13           Si  tau(  13) = (   0.1278464   0.6295258   0.1157279  )
        14           Si  tau(  14) = (   0.3836981   0.3835580   0.1286800  )
        15           Si  tau(  15) = (   0.5073264   0.5103712  -0.0003969  )
        16           Si  tau(  16) = (   0.6181358   0.6279022   0.1255075  )
        17           Si  tau(  17) = (   0.8691873   0.3715276   0.1285584  )
        18           Si  tau(  18) = (   0.7590600   0.5045548   0.2446755  )
        19           Si  tau(  19) = (  -0.0084913   0.7587232   0.2400016  )
        20           Si  tau(  20) = (   0.2455504   0.7661699  -0.0034036  )
        21           Si  tau(  21) = (   0.3706665   0.8793067   0.1143101  )
        22           Si  tau(  22) = (   0.5028144   0.7690327   0.2506336  )
        23           Si  tau(  23) = (   0.7488267   0.7615246  -0.0058720  )
        24           Si  tau(  24) = (   0.8686741   0.8961794   0.1287191  )
        25           Si  tau(  25) = (  -0.0076887  -0.0029816   0.4786933  )
        26           Si  tau(  26) = (   0.2540594   0.2590334   0.4859260  )
        27           Si  tau(  27) = (   0.1330517   0.1188073   0.6127815  )
        28           Si  tau(  28) = (   0.3746637   0.1185739   0.3631389  )
        29           Si  tau(  29) = (   0.4923293   0.0078421   0.4791662  )
        30           Si  tau(  30) = (   0.6177636   0.1180068   0.6121849  )
        31           Si  tau(  31) = (   0.8784935   0.1266364   0.3612243  )
        32           Si  tau(  32) = (   0.7438449   0.2472424   0.4774898  )
        33           Si  tau(  33) = (   0.1284410   0.3720346   0.3572663  )
        34           Si  tau(  34) = (   0.0080599   0.5146796   0.4840751  )
        35           Si  tau(  35) = (   0.1270844   0.6383412   0.6065339  )
        36           Si  tau(  36) = (   0.6229922   0.3736620   0.3659979  )
        37           Si  tau(  37) = (   0.3748149   0.6280258   0.3649835  )
        38           Si  tau(  38) = (   0.3739325   0.3858695   0.6127384  )
        39           Si  tau(  39) = (   0.4983547   0.5006051   0.4844938  )
        40           Si  tau(  40) = (   0.6314778   0.6294615   0.6112728  )
        41           Si  tau(  41) = (   0.8731107   0.6404104   0.3580107  )
        42           Si  tau(  42) = (   0.8717869   0.3750703   0.6149983  )
        43           Si  tau(  43) = (   0.1336711   0.8792856   0.3698178  )
        44           Si  tau(  44) = (   0.2431578   0.7645215   0.4831327  )
        45           Si  tau(  45) = (   0.6212147   0.8857524   0.3709419  )
        46           Si  tau(  46) = (   0.3664158   0.8909985   0.6060216  )
        47           Si  tau(  47) = (   0.7425079   0.7567567   0.4833979  )
        48           Si  tau(  48) = (   0.8764818   0.8940735   0.5995908  )
        49           Si  tau(  49) = (  -0.0004774   0.2514012   0.7257379  )
        50           Si  tau(  50) = (   0.2464221   0.0072736   0.7359770  )
        51           Si  tau(  51) = (   0.3763642   0.1329827   0.8569422  )
        52           Si  tau(  52) = (   0.4963756   0.2591442   0.7318950  )
        53           Si  tau(  53) = (   0.7459304  -0.0032186   0.7265724  )
        54           Si  tau(  54) = (   0.8749703   0.1349512   0.8484894  )
        55           Si  tau(  55) = (   0.1184120   0.3893055   0.8546470  )
        56           Si  tau(  56) = (   0.2435168   0.5123916   0.7365622  )
        57           Si  tau(  57) = (   0.6275576   0.3722960   0.8564490  )
        58           Si  tau(  58) = (   0.3815378   0.6245257   0.8553100  )
        59           Si  tau(  59) = (   0.7571270   0.5060247   0.7251756  )
        60           Si  tau(  60) = (   0.8702491   0.6264111   0.8452766  )
        61           Si  tau(  61) = (  -0.0021599   0.7533746   0.7364827  )
        62           Si  tau(  62) = (   0.1198846   0.8817437   0.8509054  )
        63           Si  tau(  63) = (   0.4957070   0.7518331   0.7229746  )
        64           Si  tau(  64) = (   0.6273580   0.8818841   0.8426978  )

     number of k points=     1  Fermi-Dirac smearing, width (Ry)=  0.0100
                       cart. coord. in units 2pi/alat
        k(    1) = (   0.0000000   0.0000000   0.0000000), wk =   2.0000000

     Dense  grid:    97310 G-vectors     FFT dimensions: (  75,  75,  72)

     Estimated max dynamical RAM per process >     156.10 MB

     Estimated total dynamical RAM >     600.62 MB

     Initial potential from superposition of free atoms

     starting charge     255.9608, renormalised to     256.0000
     Starting wfcs are  256 randomized atomic wfcs

     total cpu time spent up to now is        5.0 secs

     Self-consistent Calculation

     iteration #  1     ecut=    30.00 Ry     beta= 0.50
     Davidson diagonalization with overlap
     ethr =  1.00E-02,  avg # of iterations =  3.0

     Threshold (ethr) on eigenvalues was too large:
     Diagonalizing with lowered threshold

     Davidson diagonalization with overlap
     ethr =  6.74E-04,  avg # of iterations =  4.0

     total cpu time spent up to now is        5.3 secs

     total energy              =    -503.58820642 Ry
     estimated scf accuracy    <       1.91024887 Ry

     iteration #  2     ecut=    30.00 Ry     beta= 0.50
     Davidson diagonalization with overlap
     ethr =  7.46E-04,  avg # of iterations =  1.0

     total cpu time spent up to now is        5.4 secs

     total energy              =    -503.58156976 Ry
     estimated scf accuracy    <       0.34286533 Ry

     iteration #  3     ecut=    30.00 Ry     beta= 0.50
     Davidson diagonalization with overlap
     ethr =  1.34E-04,  avg # of iterations =  4.0

     total cpu time spent up to now is        5.5 secs

     total energy              =    -503.60087729 Ry
     estimated scf accuracy    <       0.02950403 Ry

     iteration #  4     ecut=    30.00 Ry     beta= 0.50
     Davidson diagonalization with overlap
     c_bands:  2 eigenvalues not converged
     ethr =  1.15E-05,  avg # of iterations = 20.0

     total cpu time spent up to now is        5.7 secs

     total energy              =    -503.60702637 Ry
     estimated scf accuracy    <       0.01859207 Ry

     iteration #  5     ecut=    30.00 Ry     beta= 0.50
     Davidson diagonalization with overlap
     ethr =  7.26E-06,  avg # of iterations = 10.0

     total cpu time spent up to now is        5.9 secs

     total energy              =    -503.60985518 Ry
     estimated scf accuracy    <       0.00350909 Ry

     iteration #  6     ecut=    30.00 Ry     beta= 0.50
     Davidson diagonalization with overlap
     ethr =  1.37E-06,  avg # of iterations = 12.0

     total cpu time spent up to now is        6.0 secs

     total energy              =    -503.61036133 Ry
     estimated scf accuracy    <       0.00066894 Ry

     iteration #  7     ecut=    30.00 Ry     beta= 0.50
     Davidson diagonalization with overlap
     ethr =  2.61E-07,  avg # of iterations =  4.0

     total cpu time spent up to now is        6.2 secs

     total energy              =    -503.61042777 Ry
     estimated scf accuracy    <       0.00015590 Ry

     iteration #  8     ecut=    30.00 Ry     beta= 0.50
     Davidson diagonalization with overlap
     ethr =  6.09E-08,  avg # of iterations =  4.0

     total cpu time spent up to now is        6.3 secs

     total energy              =    -503.61046153 Ry
     estimated scf accuracy    <       0.00001571 Ry

     iteration #  9     ecut=    30.00 Ry     beta= 0.50
     Davidson diagonalization with overlap
     ethr =  6.14E-09,  avg # of iterations =  4.0

     total cpu time spent up to now is        6.4 secs

     total energy              =    -503.61046436 Ry
     estimated scf accuracy    <       0.00000317 Ry

     iteration # 10     ecut=    30.00 Ry     beta= 0.50
     Davidson diagonalization with overlap
     ethr =  1.24E-09,  avg # of iterations =  4.0

     total cpu time spent up to now is        6.5 secs

     End of self-consistent calculation

          k = 0.0000 0.0000 0.0000 ( 12192 PWs)   bands (ev):

    -5.8163  -4.8918  -4.8421  -4.7829  -4.7352  -4.6889  -4.6037  -4.0096
    -4.0014  -3.9660  -3.9077  -3.8533  -3.8030  -3.7699  -3.7608  -3.6969
    -3.6533  -3.6330  -3.5458  -3.5075  -3.4866  -3.4182  -3.3931  -2.0468
    -1.8795  -1.8233  -1.7760  -1.7263  -1.6916  -1.6511  -1.6306  -1.5825
    -1.5708  -1.5337  -1.4949  -1.4609  -1.4469  -1.3859  -1.3398  -1.3189
    -1.2255  -0.8665  -0.7581  -0.7489  -0.6985   0.3618   0.4051   0.5223
     0.5361   0.5668   0.6240   0.6515   0.7194   0.7759   0.8059   0.8271
     0.8880   2.0788   2.0936   2.1402   2.1494   2.1816   2.2058   2.2261
     2.2352   2.2533   2.2644   2.3066   2.3119   2.3275   2.3325   2.3557
     2.3772   2.4110   2.4290   2.4378   2.4583   2.4829   2.5269   2.5387
     2.5657   2.5927   2.6125   2.6568   2.6756   2.7852   2.8290   3.1248
     3.1708   3.3287   3.3463   3.3913   3.4752   3.9923   4.0066   4.0920
     4.1188   4.1762   4.1928   4.2022   4.2649   4.3162   4.3442   4.4265
     4.4809   4.5242   4.5610   4.6257   4.6562   4.6791   4.7347   4.7529
     4.7799   4.8343   4.8806   4.9234   4.9963   4.9966   5.0191   5.0674
     5.1088   5.1295   5.1536   5.2214   5.2513   6.0201   6.1553   6.3770
     6.5689   6.6161   6.7277   6.8000   6.9075   6.9866   6.9984   7.0457
     7.2131   7.2423   7.3214   7.3746   7.4694   7.4924   7.5296   7.5555
     8.1811   8.2045   8.2486   8.2855   8.4053   8.4412   8.4895   8.5095
     8.5698   8.6044

     the Fermi energy is     6.4097 ev

!    total energy              =    -503.61046482 Ry
     estimated scf accuracy    <       0.00000039 Ry
     smearing contrib. (-TS)   =      -0.06399786 Ry
     internal energy E=F+TS    =    -503.54646696 Ry

     The total energy is F=E-TS. E is the sum of the following terms:
     one-electron contribution =     147.59030670 Ry
     hartree contribution      =      36.64596581 Ry
     xc contribution           =    -153.84847298 Ry
     ewald contribution        =    -533.93426649 Ry

     convergence has been achieved in  10 iterations

     Forces acting on atoms (cartesian axes, Ry/au):

     atom    1 type  1   force =    -0.02296021    0.02375921   -0.03318568
     atom    2 type  1   force =     0.00059767   -0.05745725   -0.03644498
     atom    3 type  1   force =    -0.06072339   -0.02476006   -0.00859222
     atom    4 type  1   force =    -0.01337704    0.08041590    0.03678023
     atom    5 type  1   force =     0.02845604   -0.01795355    0.02728099
     atom    6 type  1   force =    -0.00576015   -0.04927131   -0.03643075
     atom    7 type  1   force =    -0.06239496   -0.06691807   -0.05023714
     atom    8 type  1   force =     0.02912459   -0.00391217    0.02937068
     atom    9 type  1   force =    -0.08368602    0.05224906    0.04052229
     atom   10 type  1   force =    -0.04729901   -0.06334454   -0.03467401
     atom   11 type  1   force =    -0.05262026   -0.01053190    0.00979614
     atom   12 type  1   force =     0.00628110    0.02509391    0.02631690
     atom   13 type  1   force =    -0.01511443    0.03499098    0.02477030
     atom   14 type  1   force =    -0.01016018   -0.03413047   -0.04934788
     atom   15 type  1   force =    -0.01354093   -0.05459012    0.01019542
     atom   16 type  1   force =     0.05860426    0.05065100    0.01961690
     atom   17 type  1   force =     0.06122704    0.07349017   -0.00250193
     atom   18 type  1   force =    -0.06500709    0.00470694    0.00571705
     atom   19 type  1   force =     0.06461141    0.02839773   -0.01547102
     atom   20 type  1   force =     0.02101375   -0.06432901   -0.01201030
     atom   21 type  1   force =     0.04606304    0.04748895    0.03520253
     atom   22 type  1   force =    -0.04187713   -0.05619408   -0.04315058
     atom   23 type  1   force =    -0.00158232   -0.01650735    0.03636924
     atom   24 type  1   force =     0.04053336   -0.08072657   -0.06979343
     atom   25 type  1   force =     0.08622964    0.01650189    0.01011107
     atom   26 type  1   force =    -0.00028231   -0.04595070    0.01018708
     atom   27 type  1   force =    -0.06150290    0.05246609   -0.06467976
     atom   28 type  1   force =    -0.01256815    0.09404133   -0.02532635
     atom   29 type  1   force =     0.03577966   -0.06665126    0.06292260
     atom   30 type  1   force =    -0.00169408    0.04592765   -0.02363453
     atom   31 type  1   force =    -0.02047154    0.00520451    0.00528853
     atom   32 type  1   force =     0.02143357   -0.01096081    0.06601585
     atom   33 type  1   force =     0.01057318    0.06423878    0.04946906
     atom   34 type  1   force =    -0.03563804   -0.04017794   -0.01030158
     atom   35 type  1   force =    -0.00634855   -0.00179355    0.02463712
     atom   36 type  1   force =     0.05035016    0.07124019    0.01933404
     atom   37 type  1   force =    -0.01372874    0.02488784   -0.00741967
     atom   38 type  1   force =    -0.01888951    0.00058254    0.00061520
     atom   39 type  1   force =     0.02065001    0.02536015    0.01942464
     atom   40 type  1   force =    -0.03742619   -0.00978231   -0.03004705
     atom   41 type  1   force =     0.00289641   -0.03607374    0.04708533
     atom   42 type  1   force =     0.02161930   -0.00170519   -0.08507096
     atom   43 type  1   force =    -0.08511125    0.07587606   -0.09473089
     atom   44 type  1   force =     0.07951747   -0.06289655    0.04809696
     atom   45 type  1   force =     0.02155931    0.04632024   -0.00668793
     atom   46 type  1   force =     0.01617472   -0.00284542    0.00539207
     atom   47 type  1   force =     0.03668199    0.01644955    0.01788887
     atom   48 type  1   force =    -0.03206014   -0.06612599    0.04284869
     atom   49 type  1   force =     0.03492006    0.01036089    0.01327642
     atom   50 type  1   force =     0.03988986   -0.05609788    0.02912339
     atom   51 type  1   force =     0.01152526   -0.03439071   -0.02508624
     atom   52 type  1   force =     0.01543303   -0.02558332   -0.00473478
     atom   53 type  1   force =     0.03341995    0.01957401    0.00742855
     atom   54 type  1   force =    -0.00192708   -0.05663585    0.01559025
     atom   55 type  1   force =     0.02121171   -0.06691394   -0.01852901
     atom   56 type  1   force =     0.02239288   -0.00650042   -0.02177820
     atom   57 type  1   force =     0.00938360    0.04842039   -0.02464601
     atom   58 type  1   force =    -0.04201804    0.05206971   -0.01728138
     atom   59 type  1   force =    -0.05383137   -0.03493864    0.02594730
     atom   60 type  1   force =     0.02313212    0.02489862    0.05479063
     atom   61 type  1   force =    -0.01038279    0.03099215   -0.05662163
     atom   62 type  1   force =    -0.00107934    0.03954472   -0.00081118
     atom   63 type  1   force =     0.00251875    0.02868015    0.00949565
     atom   64 type  1   force =    -0.04274173    0.01176933    0.02231910

     Total force =     0.550598     Total SCF correction =     0.001063


     Computing stress (Cartesian axis) and pressure

          total   stress  (Ry/bohr**3)                   (kbar)     P=       23.97
   0.00015915  -0.00002836   0.00009787           23.41       -4.17       14.40
  -0.00002836   0.00007573   0.00000707           -4.17       11.14        1.04
   0.00009787   0.00000707   0.00025389           14.40        1.04       37.35

 
     init_run     :      1.08s CPU      4.91s WALL (       1 calls)
     electrons    :      1.46s CPU      1.56s WALL (       1 calls)
     forces       :      0.04s CPU      0.05s WALL (       1 calls)
     stress       :      0.16s CPU      0.17s WALL (       1 calls)

     Called by init_run:
     wfcinit      :      0.57s CPU      4.22s WALL (       1 calls)
                                        4.22s GPU  (       1 calls)
     potinit      :      0.20s CPU      0.30s WALL (       1 calls)
     hinit0       :      0.28s CPU      0.30s WALL (       1 calls)

     Called by electrons:
     c_bands      :      0.98s CPU      1.02s WALL (      11 calls)
     sum_band     :      0.26s CPU      0.29s WALL (      11 calls)
     v_of_rho     :      0.14s CPU      0.23s WALL (      11 calls)
     mix_rho      :      0.08s CPU      0.10s WALL (      11 calls)

     Called by c_bands:
     init_us_2    :      0.04s CPU      0.04s WALL (      23 calls)
     init_us_2:gp :      0.04s CPU      0.04s WALL (      23 calls)
     regterg      :      0.88s CPU      0.92s WALL (      11 calls)

     Called by *egterg:
     rdiaghg      :      0.37s CPU      1.12s WALL (      80 calls)
                                        1.10s GPU  (      80 calls)
     h_psi        :      0.93s CPU      3.85s WALL (      82 calls)
                                        3.85s GPU  (      82 calls)
     g_psi        :      0.00s CPU      0.00s WALL (      70 calls)
                                        0.00s GPU  (      70 calls)

     Called by h_psi:
     h_psi:calbec :      0.51s CPU      3.36s WALL (      82 calls)
                                        3.36s GPU  (      82 calls)
     vloc_psi     :      0.38s CPU      0.44s WALL (      82 calls)
                                        0.44s GPU  (      82 calls)
     add_vuspsi   :      0.03s CPU      0.04s WALL (      82 calls)
                                        0.04s GPU  (      82 calls)

     General routines
     calbec       :      0.51s CPU      3.37s WALL (      87 calls)
     fft          :      0.35s CPU      0.48s WALL (      95 calls)
                                        0.14s GPU  (      61 calls)
     ffts         :      0.03s CPU      0.04s WALL (      11 calls)
     fftw         :      0.40s CPU      0.55s WALL (    1235 calls)
                                        0.49s GPU  (    1235 calls)
 
     Parallel routines
 
     PWSCF        :      2.79s CPU      6.77s WALL

 
   This run was terminated on:  11:10:42  10May2023            

=------------------------------------------------------------------------------=
   JOB DONE.
=------------------------------------------------------------------------------=
