An instance of this daemon is already running
An instance of this daemon is already running

     Program PWSCF v.7.1 starts on 10May2023 at 11:16: 3 

     This program is part of the open-source Quantum ESPRESSO suite
     for quantum simulation of materials; please cite
         "P. Giannozzi et al., J. Phys.:Condens. Matter 21 395502 (2009);
         "P. Giannozzi et al., J. Phys.:Condens. Matter 29 465901 (2017);
         "P. Giannozzi et al., J. Chem. Phys. 152 154105 (2020);
          URL http://www.quantum-espresso.org", 
     in publications or presentations arising from this work. More details at
     http://www.quantum-espresso.org/quote

     Parallel version (MPI & OpenMP), running on       4 processor cores
     Number of MPI processes:                 4
     Threads/MPI process:                     1

     MPI processes distributed on     1 nodes
     753569 MiB available memory on the printing compute node when the environment starts
 
     Reading input from pw-si-35.in
Warning: card &CELL ignored
Warning: card / ignored

     Current dimensions of program PWSCF are:
     Max number of different atomic species (ntypx) = 10
     Max number of k-points (npk) =  40000
     Max angular momentum in pseudopotentials (lmaxx) =  4

     IMPORTANT: XC functional enforced from input :
     Exchange-correlation= PBE
                           (   1   4   3   4   0   0   0)
     Any further DFT definition will be discarded
     Please, verify this is what you really want


     gamma-point specific algorithms are used
 
     K-points division:     npool     =       2
     R & G space division:  proc/nbgrp/npool/nimage =       2
     Subspace diagonalization in iterative solution of the eigenvalue problem:
     a serial algorithm will be used

     Message from routine divide_et_impera:
     suboptimal parallelization: some nodes have no k-points
 
     Parallelization info
     --------------------
     sticks:   dense  smooth     PW     G-vecs:    dense   smooth      PW
     Min        2035    2035    542                99155    99155   13506
     Max        2036    2036    543                99156    99156   13507
     Sum        4071    4071   1085               198311   198311   27013
 
     Using Slab Decomposition
 


     bravais-lattice index     =            0
     lattice parameter (alat)  =      20.6038  a.u.
     unit-cell volume          =    8934.8643 (a.u.)^3
     number of atoms/cell      =           64
     number of atomic types    =            1
     number of electrons       =       256.00
     number of Kohn-Sham states=          154
     kinetic-energy cutoff     =      30.0000  Ry
     charge density cutoff     =     120.0000  Ry
     scf convergence threshold =      1.0E-06
     mixing beta               =       0.5000
     number of iterations used =            8  plain     mixing
     Exchange-correlation= PBE
                           (   1   4   3   4   0   0   0)

     GPU acceleration is ACTIVE.
     GPU-aware MPI enabled

     Message from routine print_cuda_info:
     High GPU oversubscription detected. Are you sure this is what you want?

     celldm(1)=  20.603835  celldm(2)=   0.000000  celldm(3)=   0.000000
     celldm(4)=   0.000000  celldm(5)=   0.000000  celldm(6)=   0.000000

     crystal axes: (cart. coord. in units of alat)
               a(1) = (   1.000000   0.000000   0.000000 )  
               a(2) = (   0.000000   1.006266   0.000000 )  
               a(3) = (   0.000000   0.000000   1.015152 )  

     reciprocal axes: (cart. coord. in units 2 pi/alat)
               b(1) = (  1.000000  0.000000  0.000000 )  
               b(2) = (  0.000000  0.993773  0.000000 )  
               b(3) = (  0.000000  0.000000  0.985074 )  


     PseudoPot. # 1 for Si read from file:
     /home/ppiaggi/pseudos/Si_ONCV_PBE_sr.upf
     MD5 check sum: 8553c464762ac42b85b1eed164b4d029
     Pseudo is Norm-conserving, Zval =  4.0
     Generated using ONCVPSP code by D. R. Hamann
     Using radial grid of 1510 points,  4 beta functions with: 
                l(1) =   0
                l(2) =   0
                l(3) =   1
                l(4) =   1

     atomic species   valence    mass     pseudopotential
        Si             4.00    28.08500     Si( 1.00)

     No symmetry found



   Cartesian axes

     site n.     atom                  positions (alat units)
         1           Si  tau(   1) = (  -0.0001119  -0.0050079  -0.0082693  )
         2           Si  tau(   2) = (   0.0035757   0.2495845   0.2528258  )
         3           Si  tau(   3) = (   0.2507508  -0.0005908   0.2623942  )
         4           Si  tau(   4) = (   0.2475995   0.2637553   0.0001313  )
         5           Si  tau(   5) = (   0.1178294   0.1235619   0.1339842  )
         6           Si  tau(   6) = (   0.5092785  -0.0079953   0.0022916  )
         7           Si  tau(   7) = (   0.5041961   0.2654787   0.2600871  )
         8           Si  tau(   8) = (   0.6376815   0.1205501   0.1256343  )
         9           Si  tau(   9) = (   0.7511956  -0.0001951   0.2608107  )
        10           Si  tau(  10) = (   0.7612055   0.2625244  -0.0006619  )
        11           Si  tau(  11) = (   0.0014826   0.5255237   0.0061076  )
        12           Si  tau(  12) = (   0.2492081   0.5201272   0.2570622  )
        13           Si  tau(  13) = (   0.1218954   0.6369210   0.1338023  )
        14           Si  tau(  14) = (   0.3839183   0.3787958   0.1221592  )
        15           Si  tau(  15) = (   0.4964875   0.5156001   0.0072864  )
        16           Si  tau(  16) = (   0.6373973   0.6520437   0.1275187  )
        17           Si  tau(  17) = (   0.8748067   0.3837666   0.1242017  )
        18           Si  tau(  18) = (   0.7489128   0.5255540   0.2587304  )
        19           Si  tau(  19) = (   0.0073154   0.7811650   0.2524908  )
        20           Si  tau(  20) = (   0.2542027   0.7804623  -0.0007067  )
        21           Si  tau(  21) = (   0.3720867   0.8948672   0.1322584  )
        22           Si  tau(  22) = (   0.4983932   0.7657121   0.2582939  )
        23           Si  tau(  23) = (   0.7521367   0.7831199   0.0004618  )
        24           Si  tau(  24) = (   0.8811091   0.8979601   0.1198223  )
        25           Si  tau(  25) = (   0.0046082   0.0075134   0.5085291  )
        26           Si  tau(  26) = (   0.2571575   0.2580459   0.5054692  )
        27           Si  tau(  27) = (   0.1245268   0.1244183   0.6406257  )
        28           Si  tau(  28) = (   0.3691663   0.1371362   0.3947088  )
        29           Si  tau(  29) = (   0.4961315   0.0072899   0.5157257  )
        30           Si  tau(  30) = (   0.6197802   0.1385138   0.6518066  )
        31           Si  tau(  31) = (   0.8751589   0.1284190   0.3889606  )
        32           Si  tau(  32) = (   0.7632063   0.2659013   0.5152402  )
        33           Si  tau(  33) = (   0.1285213   0.3783806   0.3803566  )
        34           Si  tau(  34) = (   0.0018149   0.5135243   0.5074011  )
        35           Si  tau(  35) = (   0.1259247   0.6451642   0.6514658  )
        36           Si  tau(  36) = (   0.6336002   0.3949294   0.3784666  )
        37           Si  tau(  37) = (   0.3686934   0.6372224   0.3782414  )
        38           Si  tau(  38) = (   0.3766124   0.3823048   0.6490937  )
        39           Si  tau(  39) = (   0.5120728   0.5127080   0.5186973  )
        40           Si  tau(  40) = (   0.6371463   0.6405732   0.6483025  )
        41           Si  tau(  41) = (   0.8743514   0.6533776   0.3885874  )
        42           Si  tau(  42) = (   0.8769914   0.3862007   0.6442007  )
        43           Si  tau(  43) = (   0.1281093   0.9051498   0.3790165  )
        44           Si  tau(  44) = (   0.2554407   0.7722753   0.5207279  )
        45           Si  tau(  45) = (   0.6287266   0.9086779   0.3856538  )
        46           Si  tau(  46) = (   0.3834470   0.8969803   0.6475768  )
        47           Si  tau(  47) = (   0.7597273   0.7685844   0.5162010  )
        48           Si  tau(  48) = (   0.8814686   0.8949954   0.6430545  )
        49           Si  tau(  49) = (  -0.0052905   0.2541444   0.7805223  )
        50           Si  tau(  50) = (   0.2580008   0.0008659   0.7628439  )
        51           Si  tau(  51) = (   0.3783761   0.1344890   0.9049210  )
        52           Si  tau(  52) = (   0.4969076   0.2615886   0.7788262  )
        53           Si  tau(  53) = (   0.7544390   0.0054358   0.7726043  )
        54           Si  tau(  54) = (   0.8861313   0.1279674   0.9019429  )
        55           Si  tau(  55) = (   0.1298948   0.3873103   0.9093376  )
        56           Si  tau(  56) = (   0.2473620   0.5143986   0.7787940  )
        57           Si  tau(  57) = (   0.6296806   0.3963076   0.8925115  )
        58           Si  tau(  58) = (   0.3761522   0.6449376   0.9057962  )
        59           Si  tau(  59) = (   0.7609592   0.5147062   0.7797250  )
        60           Si  tau(  60) = (   0.8814533   0.6467624   0.8939830  )
        61           Si  tau(  61) = (  -0.0085517   0.7712117   0.7741049  )
        62           Si  tau(  62) = (   0.1294832   0.8997010   0.9079550  )
        63           Si  tau(  63) = (   0.4977375   0.7833617   0.7795272  )
        64           Si  tau(  64) = (   0.6196722   0.8965687   0.8927564  )

     number of k points=     1  Fermi-Dirac smearing, width (Ry)=  0.0100
                       cart. coord. in units 2pi/alat
        k(    1) = (   0.0000000   0.0000000   0.0000000), wk =   2.0000000

     Dense  grid:    99156 G-vectors     FFT dimensions: (  72,  75,  75)

     Estimated max dynamical RAM per process >     158.97 MB

     Estimated total dynamical RAM >     611.68 MB

     Initial potential from superposition of free atoms

     starting charge     255.9608, renormalised to     256.0000
     Starting wfcs are  256 randomized atomic wfcs

     total cpu time spent up to now is        5.1 secs

     Self-consistent Calculation

     iteration #  1     ecut=    30.00 Ry     beta= 0.50
     Davidson diagonalization with overlap
     ethr =  1.00E-02,  avg # of iterations =  3.0

     Threshold (ethr) on eigenvalues was too large:
     Diagonalizing with lowered threshold

     Davidson diagonalization with overlap
     ethr =  6.57E-04,  avg # of iterations =  4.0

     total cpu time spent up to now is        5.4 secs

     total energy              =    -503.46625017 Ry
     estimated scf accuracy    <       1.86980045 Ry

     iteration #  2     ecut=    30.00 Ry     beta= 0.50
     Davidson diagonalization with overlap
     ethr =  7.30E-04,  avg # of iterations =  1.0

     total cpu time spent up to now is        5.5 secs

     total energy              =    -503.45628952 Ry
     estimated scf accuracy    <       0.35633606 Ry

     iteration #  3     ecut=    30.00 Ry     beta= 0.50
     Davidson diagonalization with overlap
     ethr =  1.39E-04,  avg # of iterations = 17.0

     total cpu time spent up to now is        5.7 secs

     total energy              =    -503.43897559 Ry
     estimated scf accuracy    <       0.30251083 Ry

     iteration #  4     ecut=    30.00 Ry     beta= 0.50
     Davidson diagonalization with overlap
     ethr =  1.18E-04,  avg # of iterations =  3.0

     total cpu time spent up to now is        5.8 secs

     total energy              =    -503.49177771 Ry
     estimated scf accuracy    <       0.02537604 Ry

     iteration #  5     ecut=    30.00 Ry     beta= 0.50
     Davidson diagonalization with overlap
     ethr =  9.91E-06,  avg # of iterations = 13.0

     total cpu time spent up to now is        6.0 secs

     total energy              =    -503.49398971 Ry
     estimated scf accuracy    <       0.00472964 Ry

     iteration #  6     ecut=    30.00 Ry     beta= 0.50
     Davidson diagonalization with overlap
     ethr =  1.85E-06,  avg # of iterations =  6.0

     total cpu time spent up to now is        6.1 secs

     total energy              =    -503.49478229 Ry
     estimated scf accuracy    <       0.00163001 Ry

     iteration #  7     ecut=    30.00 Ry     beta= 0.50
     Davidson diagonalization with overlap
     ethr =  6.37E-07,  avg # of iterations =  4.0

     total cpu time spent up to now is        6.3 secs

     total energy              =    -503.49503316 Ry
     estimated scf accuracy    <       0.00039939 Ry

     iteration #  8     ecut=    30.00 Ry     beta= 0.50
     Davidson diagonalization with overlap
     ethr =  1.56E-07,  avg # of iterations =  3.0

     total cpu time spent up to now is        6.4 secs

     total energy              =    -503.49507605 Ry
     estimated scf accuracy    <       0.00005139 Ry

     iteration #  9     ecut=    30.00 Ry     beta= 0.50
     Davidson diagonalization with overlap
     ethr =  2.01E-08,  avg # of iterations =  5.0

     total cpu time spent up to now is        6.5 secs

     total energy              =    -503.49508630 Ry
     estimated scf accuracy    <       0.00000995 Ry

     iteration # 10     ecut=    30.00 Ry     beta= 0.50
     Davidson diagonalization with overlap
     ethr =  3.89E-09,  avg # of iterations =  4.0

     total cpu time spent up to now is        6.7 secs

     total energy              =    -503.49508861 Ry
     estimated scf accuracy    <       0.00000298 Ry

     iteration # 11     ecut=    30.00 Ry     beta= 0.50
     Davidson diagonalization with overlap
     ethr =  1.17E-09,  avg # of iterations =  3.0

     total cpu time spent up to now is        6.8 secs

     End of self-consistent calculation

          k = 0.0000 0.0000 0.0000 ( 12412 PWs)   bands (ev):

    -6.0071  -5.0630  -5.0428  -4.9956  -4.8913  -4.7892  -4.7296  -4.2738
    -4.1435  -4.1057  -4.0745  -4.0072  -3.9423  -3.9018  -3.8536  -3.8375
    -3.7297  -3.6884  -3.6172  -3.5967  -3.5165  -3.4456  -3.3395  -2.2638
    -2.1432  -2.0792  -1.9857  -1.8477  -1.8337  -1.8152  -1.7968  -1.7400
    -1.6896  -1.6471  -1.6308  -1.5810  -1.5613  -1.4952  -1.4729  -1.4220
    -1.3328  -1.0147  -0.9071  -0.8707  -0.7630   0.2205   0.2614   0.3065
     0.3670   0.3968   0.4339   0.4912   0.4953   0.5447   0.5890   0.6388
     0.6666   1.7806   1.8795   1.8883   1.8992   1.9603   1.9887   2.0518
     2.0705   2.0759   2.1537   2.1663   2.1939   2.2316   2.2543   2.2766
     2.3100   2.3150   2.3543   2.3677   2.3940   2.4026   2.4270   2.4569
     2.4649   2.4890   2.5077   2.5494   2.5610   2.5806   2.6311   2.9698
     3.0767   3.1015   3.1271   3.1420   3.2151   3.8665   3.8776   3.9049
     3.9531   3.9802   4.0221   4.0307   4.0980   4.1552   4.2004   4.2237
     4.2636   4.2948   4.3246   4.4281   4.5301   4.5476   4.5935   4.6176
     4.6686   4.7090   4.7506   4.7790   4.7968   4.8126   4.8616   4.8857
     4.8986   4.9328   5.0146   5.0834   5.1393   5.9275   5.9695   6.0693
     6.2943   6.4545   6.5071   6.6415   6.6601   6.7611   6.8998   6.9815
     7.0442   7.0705   7.0933   7.1796   7.2180   7.2414   7.2532   7.2776
     7.9551   8.0279   8.0508   8.1051   8.1266   8.1323   8.2192   8.2740
     8.2907   8.3079

     the Fermi energy is     6.1840 ev

!    total energy              =    -503.49508892 Ry
     estimated scf accuracy    <       0.00000043 Ry
     smearing contrib. (-TS)   =      -0.06417927 Ry
     internal energy E=F+TS    =    -503.43090965 Ry

     The total energy is F=E-TS. E is the sum of the following terms:
     one-electron contribution =     138.89650317 Ry
     hartree contribution      =      39.17644008 Ry
     xc contribution           =    -153.27379574 Ry
     ewald contribution        =    -528.23005716 Ry

     convergence has been achieved in  11 iterations

     Forces acting on atoms (cartesian axes, Ry/au):

     atom    1 type  1   force =    -0.01191666    0.10321661    0.09313226
     atom    2 type  1   force =    -0.04080919    0.03515089    0.02608002
     atom    3 type  1   force =     0.04257632    0.10639693   -0.04068734
     atom    4 type  1   force =     0.02593762   -0.06629754    0.07325881
     atom    5 type  1   force =     0.04450043   -0.00709356   -0.04016952
     atom    6 type  1   force =    -0.07211016    0.10780387    0.07267350
     atom    7 type  1   force =     0.01108523   -0.04771588   -0.00709853
     atom    8 type  1   force =    -0.02716399    0.05261253    0.01218339
     atom    9 type  1   force =     0.05929268    0.05692904   -0.04229267
     atom   10 type  1   force =    -0.04849043   -0.02553706   -0.00009187
     atom   11 type  1   force =    -0.01254451   -0.05642398    0.00363518
     atom   12 type  1   force =    -0.00065679   -0.07706620   -0.02688670
     atom   13 type  1   force =     0.03005578    0.06435431   -0.00228079
     atom   14 type  1   force =    -0.03925194    0.02941787    0.04447943
     atom   15 type  1   force =     0.06036470    0.01455400    0.00441923
     atom   16 type  1   force =    -0.05210279   -0.01386485    0.00455787
     atom   17 type  1   force =     0.02591477    0.04516238    0.05012926
     atom   18 type  1   force =     0.04379841   -0.01369337   -0.02134399
     atom   19 type  1   force =    -0.02419138   -0.04257580    0.01075229
     atom   20 type  1   force =    -0.00994459   -0.07303343    0.06445804
     atom   21 type  1   force =     0.03937558   -0.02829340    0.00671494
     atom   22 type  1   force =     0.01807058    0.01868078    0.00362200
     atom   23 type  1   force =     0.00338836   -0.05165451   -0.01221444
     atom   24 type  1   force =    -0.02514037   -0.02818599    0.06548814
     atom   25 type  1   force =    -0.01857779    0.01089310    0.02142296
     atom   26 type  1   force =    -0.06392457    0.04349758    0.08850390
     atom   27 type  1   force =     0.01843068    0.04541584    0.00627632
     atom   28 type  1   force =     0.06673882   -0.04855035   -0.07688109
     atom   29 type  1   force =     0.02700806    0.05660596    0.00242472
     atom   30 type  1   force =     0.03433357   -0.00639059   -0.03422268
     atom   31 type  1   force =     0.00301170    0.01947346   -0.01623202
     atom   32 type  1   force =    -0.06515172   -0.02247833   -0.01284327
     atom   33 type  1   force =    -0.00669800    0.02980370   -0.00255049
     atom   34 type  1   force =     0.00934449    0.00418274    0.02224761
     atom   35 type  1   force =    -0.00975583   -0.00915259   -0.02828594
     atom   36 type  1   force =    -0.00636733   -0.02190372    0.04196174
     atom   37 type  1   force =     0.04976848    0.02522043    0.07309910
     atom   38 type  1   force =    -0.00659268    0.02955248   -0.02509025
     atom   39 type  1   force =    -0.03715402    0.00244530   -0.00899851
     atom   40 type  1   force =    -0.02432816    0.02140449    0.00478964
     atom   41 type  1   force =     0.04474800   -0.03307749   -0.03891169
     atom   42 type  1   force =     0.03221448    0.01913268    0.01689507
     atom   43 type  1   force =    -0.01762733   -0.09383072    0.07120216
     atom   44 type  1   force =    -0.01767055   -0.01311138   -0.02608037
     atom   45 type  1   force =    -0.04365136   -0.10949550    0.04199971
     atom   46 type  1   force =    -0.00725838   -0.04658194   -0.04402414
     atom   47 type  1   force =    -0.05115034    0.03492407    0.01440436
     atom   48 type  1   force =    -0.01372101   -0.00180404   -0.01614142
     atom   49 type  1   force =     0.05941058    0.03529012   -0.04946915
     atom   50 type  1   force =    -0.03945979    0.06640063    0.05870512
     atom   51 type  1   force =    -0.00471528   -0.03210286   -0.02756795
     atom   52 type  1   force =     0.01721758    0.00912547   -0.00221765
     atom   53 type  1   force =    -0.00820507    0.04183646   -0.01546944
     atom   54 type  1   force =    -0.06519987    0.00848603   -0.03081012
     atom   55 type  1   force =    -0.06295150    0.03661041   -0.06662714
     atom   56 type  1   force =     0.02224236   -0.00067107   -0.01755213
     atom   57 type  1   force =    -0.02104175   -0.03190670    0.02727254
     atom   58 type  1   force =    -0.00660944    0.00525498   -0.04703154
     atom   59 type  1   force =    -0.00482739    0.00640160   -0.05046698
     atom   60 type  1   force =    -0.03872836   -0.00170296    0.03733394
     atom   61 type  1   force =     0.07706262    0.01857320   -0.01404543
     atom   62 type  1   force =     0.04305088   -0.06515244   -0.14744545
     atom   63 type  1   force =     0.00189785   -0.11021611   -0.04116171
     atom   64 type  1   force =     0.09484967   -0.02524559   -0.03093081

     Total force =     0.600003     Total SCF correction =     0.001141


     Computing stress (Cartesian axis) and pressure

          total   stress  (Ry/bohr**3)                   (kbar)     P=       11.14
   0.00012814  -0.00003942  -0.00005159           18.85       -5.80       -7.59
  -0.00003942   0.00005384   0.00000252           -5.80        7.92        0.37
  -0.00005159   0.00000252   0.00004520           -7.59        0.37        6.65

 
     init_run     :      1.13s CPU      5.04s WALL (       1 calls)
     electrons    :      1.55s CPU      1.65s WALL (       1 calls)
     forces       :      0.04s CPU      0.04s WALL (       1 calls)
     stress       :      0.16s CPU      0.17s WALL (       1 calls)

     Called by init_run:
     wfcinit      :      0.57s CPU      4.29s WALL (       1 calls)
                                        4.29s GPU  (       1 calls)
     potinit      :      0.22s CPU      0.32s WALL (       1 calls)
     hinit0       :      0.32s CPU      0.35s WALL (       1 calls)

     Called by electrons:
     c_bands      :      1.00s CPU      1.04s WALL (      12 calls)
     sum_band     :      0.29s CPU      0.31s WALL (      12 calls)
     v_of_rho     :      0.15s CPU      0.25s WALL (      12 calls)
     mix_rho      :      0.10s CPU      0.12s WALL (      12 calls)

     Called by c_bands:
     init_us_2    :      0.05s CPU      0.05s WALL (      25 calls)
     init_us_2:gp :      0.05s CPU      0.05s WALL (      25 calls)
     regterg      :      0.89s CPU      0.94s WALL (      12 calls)

     Called by *egterg:
     rdiaghg      :      0.38s CPU      1.15s WALL (      77 calls)
                                        1.14s GPU  (      77 calls)
     h_psi        :      0.93s CPU      3.90s WALL (      79 calls)
                                        3.90s GPU  (      79 calls)
     g_psi        :      0.00s CPU      0.00s WALL (      66 calls)
                                        0.00s GPU  (      66 calls)

     Called by h_psi:
     h_psi:calbec :      0.52s CPU      3.42s WALL (      79 calls)
                                        3.42s GPU  (      79 calls)
     vloc_psi     :      0.36s CPU      0.44s WALL (      79 calls)
                                        0.43s GPU  (      79 calls)
     add_vuspsi   :      0.03s CPU      0.05s WALL (      79 calls)
                                        0.04s GPU  (      79 calls)

     General routines
     calbec       :      0.53s CPU      3.42s WALL (      84 calls)
     fft          :      0.41s CPU      0.54s WALL (     103 calls)
                                        0.13s GPU  (      66 calls)
     ffts         :      0.04s CPU      0.04s WALL (      12 calls)
     fftw         :      0.40s CPU      0.55s WALL (    1322 calls)
                                        0.49s GPU  (    1322 calls)
 
     Parallel routines
 
     PWSCF        :      2.92s CPU      6.99s WALL

 
   This run was terminated on:  11:16:10  10May2023            

=------------------------------------------------------------------------------=
   JOB DONE.
=------------------------------------------------------------------------------=
