An instance of this daemon is already running

     Program PWSCF v.7.1 starts on 10May2023 at 11:19:30 

     This program is part of the open-source Quantum ESPRESSO suite
     for quantum simulation of materials; please cite
         "P. Giannozzi et al., J. Phys.:Condens. Matter 21 395502 (2009);
         "P. Giannozzi et al., J. Phys.:Condens. Matter 29 465901 (2017);
         "P. Giannozzi et al., J. Chem. Phys. 152 154105 (2020);
          URL http://www.quantum-espresso.org", 
     in publications or presentations arising from this work. More details at
     http://www.quantum-espresso.org/quote

     Parallel version (MPI & OpenMP), running on       4 processor cores
     Number of MPI processes:                 4
     Threads/MPI process:                     1

     MPI processes distributed on     1 nodes
     753569 MiB available memory on the printing compute node when the environment starts
 
     Reading input from pw-si-57.in
Warning: card &CELL ignored
Warning: card / ignored

     Current dimensions of program PWSCF are:
     Max number of different atomic species (ntypx) = 10
     Max number of k-points (npk) =  40000
     Max angular momentum in pseudopotentials (lmaxx) =  4

     IMPORTANT: XC functional enforced from input :
     Exchange-correlation= PBE
                           (   1   4   3   4   0   0   0)
     Any further DFT definition will be discarded
     Please, verify this is what you really want


     gamma-point specific algorithms are used
 
     K-points division:     npool     =       2
     R & G space division:  proc/nbgrp/npool/nimage =       2
     Subspace diagonalization in iterative solution of the eigenvalue problem:
     a serial algorithm will be used

     Message from routine divide_et_impera:
     suboptimal parallelization: some nodes have no k-points
 
     Parallelization info
     --------------------
     sticks:   dense  smooth     PW     G-vecs:    dense   smooth      PW
     Min        2165    2165    568               107359   107359   14499
     Max        2168    2168    569               107360   107360   14500
     Sum        4333    4333   1137               214719   214719   28999
 
     Using Slab Decomposition
 


     bravais-lattice index     =            0
     lattice parameter (alat)  =      21.2586  a.u.
     unit-cell volume          =    9672.9432 (a.u.)^3
     number of atoms/cell      =           64
     number of atomic types    =            1
     number of electrons       =       256.00
     number of Kohn-Sham states=          154
     kinetic-energy cutoff     =      30.0000  Ry
     charge density cutoff     =     120.0000  Ry
     scf convergence threshold =      1.0E-06
     mixing beta               =       0.5000
     number of iterations used =            8  plain     mixing
     Exchange-correlation= PBE
                           (   1   4   3   4   0   0   0)

     GPU acceleration is ACTIVE.
     GPU-aware MPI enabled

     Message from routine print_cuda_info:
     High GPU oversubscription detected. Are you sure this is what you want?

     celldm(1)=  21.258639  celldm(2)=   0.000000  celldm(3)=   0.000000
     celldm(4)=   0.000000  celldm(5)=   0.000000  celldm(6)=   0.000000

     crystal axes: (cart. coord. in units of alat)
               a(1) = (   1.000000   0.000000   0.000000 )  
               a(2) = (   0.000000   1.003633   0.000000 )  
               a(3) = (   0.000000   0.000000   1.003176 )  

     reciprocal axes: (cart. coord. in units 2 pi/alat)
               b(1) = (  1.000000  0.000000  0.000000 )  
               b(2) = (  0.000000  0.996380  0.000000 )  
               b(3) = (  0.000000  0.000000  0.996834 )  


     PseudoPot. # 1 for Si read from file:
     /home/ppiaggi/pseudos/Si_ONCV_PBE_sr.upf
     MD5 check sum: 8553c464762ac42b85b1eed164b4d029
     Pseudo is Norm-conserving, Zval =  4.0
     Generated using ONCVPSP code by D. R. Hamann
     Using radial grid of 1510 points,  4 beta functions with: 
                l(1) =   0
                l(2) =   0
                l(3) =   1
                l(4) =   1

     atomic species   valence    mass     pseudopotential
        Si             4.00    28.08500     Si( 1.00)

     No symmetry found



   Cartesian axes

     site n.     atom                  positions (alat units)
         1           Si  tau(   1) = (   0.0064326  -0.0041125  -0.0089640  )
         2           Si  tau(   2) = (  -0.0078441   0.2438110   0.2588036  )
         3           Si  tau(   3) = (   0.2390368   0.0075523   0.2671699  )
         4           Si  tau(   4) = (   0.2388852   0.2494226   0.0031073  )
         5           Si  tau(   5) = (   0.1279494   0.1315589   0.1280822  )
         6           Si  tau(   6) = (   0.4969773   0.0021672  -0.0000228  )
         7           Si  tau(   7) = (   0.4935645   0.2541044   0.2537734  )
         8           Si  tau(   8) = (   0.6097031   0.1323703   0.1318559  )
         9           Si  tau(   9) = (   0.7416484  -0.0040177   0.2604457  )
        10           Si  tau(  10) = (   0.7392250   0.2437254   0.0054749  )
        11           Si  tau(  11) = (   0.0037715   0.4945347   0.0025691  )
        12           Si  tau(  12) = (   0.2491194   0.5026591   0.2495501  )
        13           Si  tau(  13) = (   0.1303527   0.6238188   0.1348074  )
        14           Si  tau(  14) = (   0.3594421   0.3748200   0.1216638  )
        15           Si  tau(  15) = (   0.4920619   0.5058227   0.0042433  )
        16           Si  tau(  16) = (   0.6082613   0.6286887   0.1304690  )
        17           Si  tau(  17) = (   0.8604857   0.3797184   0.1272249  )
        18           Si  tau(  18) = (   0.7388590   0.5069132   0.2621220  )
        19           Si  tau(  19) = (  -0.0020949   0.7579994   0.2615608  )
        20           Si  tau(  20) = (   0.2452185   0.7591299  -0.0037281  )
        21           Si  tau(  21) = (   0.3639508   0.8750304   0.1302824  )
        22           Si  tau(  22) = (   0.4971508   0.7602130   0.2537610  )
        23           Si  tau(  23) = (   0.7298998   0.7621485   0.0069849  )
        24           Si  tau(  24) = (   0.8566221   0.8822733   0.1247621  )
        25           Si  tau(  25) = (  -0.0065860   0.0029491   0.5155520  )
        26           Si  tau(  26) = (   0.2473173   0.2556897   0.5167984  )
        27           Si  tau(  27) = (   0.1248891   0.1202443   0.6531851  )
        28           Si  tau(  28) = (   0.3615577   0.1178779   0.3820948  )
        29           Si  tau(  29) = (   0.4881052   0.0079969   0.5075887  )
        30           Si  tau(  30) = (   0.6101259   0.1255885   0.6363249  )
        31           Si  tau(  31) = (   0.8631702   0.1233316   0.3871857  )
        32           Si  tau(  32) = (   0.7301279   0.2585200   0.5070949  )
        33           Si  tau(  33) = (   0.1188552   0.3774890   0.3884546  )
        34           Si  tau(  34) = (  -0.0087770   0.4961145   0.5087336  )
        35           Si  tau(  35) = (   0.1188789   0.6261959   0.6441397  )
        36           Si  tau(  36) = (   0.6078093   0.3766061   0.3957314  )
        37           Si  tau(  37) = (   0.3750881   0.6309553   0.3922810  )
        38           Si  tau(  38) = (   0.3693036   0.3811041   0.6542388  )
        39           Si  tau(  39) = (   0.4913766   0.5122432   0.5109249  )
        40           Si  tau(  40) = (   0.6140450   0.6202283   0.6412523  )
        41           Si  tau(  41) = (   0.8556506   0.6198301   0.3958878  )
        42           Si  tau(  42) = (   0.8550286   0.3739903   0.6473862  )
        43           Si  tau(  43) = (   0.1165057   0.8831158   0.3959120  )
        44           Si  tau(  44) = (   0.2393304   0.7490493   0.5114188  )
        45           Si  tau(  45) = (   0.6164707   0.8838718   0.3815982  )
        46           Si  tau(  46) = (   0.3653281   0.8747945   0.6488302  )
        47           Si  tau(  47) = (   0.7348579   0.7581941   0.5096448  )
        48           Si  tau(  48) = (   0.8550721   0.8784690   0.6366026  )
        49           Si  tau(  49) = (  -0.0004221   0.2438880   0.7831362  )
        50           Si  tau(  50) = (   0.2509627  -0.0017989   0.7784004  )
        51           Si  tau(  51) = (   0.3642616   0.1180149   0.9098649  )
        52           Si  tau(  52) = (   0.4948363   0.2535686   0.7805800  )
        53           Si  tau(  53) = (   0.7424810  -0.0047158   0.7730922  )
        54           Si  tau(  54) = (   0.8518796   0.1275578   0.9099076  )
        55           Si  tau(  55) = (   0.1198140   0.3711793   0.8956024  )
        56           Si  tau(  56) = (   0.2385902   0.4987673   0.7790065  )
        57           Si  tau(  57) = (   0.6078641   0.3784073   0.8979353  )
        58           Si  tau(  58) = (   0.3734607   0.6277807   0.8979200  )
        59           Si  tau(  59) = (   0.7333211   0.5020279   0.7808455  )
        60           Si  tau(  60) = (   0.8625185   0.6355733   0.9028179  )
        61           Si  tau(  61) = (   0.0020652   0.7638910   0.7827638  )
        62           Si  tau(  62) = (   0.1212284   0.8747122   0.8959478  )
        63           Si  tau(  63) = (   0.4869944   0.7579077   0.7692245  )
        64           Si  tau(  64) = (   0.6075403   0.8770433   0.9043410  )

     number of k points=     1  Fermi-Dirac smearing, width (Ry)=  0.0100
                       cart. coord. in units 2pi/alat
        k(    1) = (   0.0000000   0.0000000   0.0000000), wk =   2.0000000

     Dense  grid:   107360 G-vectors     FFT dimensions: (  75,  75,  75)

     Estimated max dynamical RAM per process >     171.28 MB

     Estimated total dynamical RAM >     658.91 MB

     Initial potential from superposition of free atoms

     starting charge     255.9608, renormalised to     256.0000
     Starting wfcs are  256 randomized atomic wfcs

     total cpu time spent up to now is        4.9 secs

     Self-consistent Calculation

     iteration #  1     ecut=    30.00 Ry     beta= 0.50
     Davidson diagonalization with overlap
     ethr =  1.00E-02,  avg # of iterations =  3.0

     Threshold (ethr) on eigenvalues was too large:
     Diagonalizing with lowered threshold

     Davidson diagonalization with overlap
     ethr =  5.67E-04,  avg # of iterations =  4.0

     total cpu time spent up to now is        5.2 secs

     total energy              =    -503.34025251 Ry
     estimated scf accuracy    <       1.61860926 Ry

     iteration #  2     ecut=    30.00 Ry     beta= 0.50
     Davidson diagonalization with overlap
     ethr =  6.32E-04,  avg # of iterations =  5.0

     total cpu time spent up to now is        5.4 secs

     total energy              =    -503.31922439 Ry
     estimated scf accuracy    <       0.34483288 Ry

     iteration #  3     ecut=    30.00 Ry     beta= 0.50
     Davidson diagonalization with overlap
     ethr =  1.35E-04,  avg # of iterations =  9.0

     total cpu time spent up to now is        5.5 secs

     total energy              =    -503.26552176 Ry
     estimated scf accuracy    <       0.63263523 Ry

     iteration #  4     ecut=    30.00 Ry     beta= 0.50
     Davidson diagonalization with overlap
     ethr =  1.35E-04,  avg # of iterations =  3.0

     total cpu time spent up to now is        5.7 secs

     total energy              =    -503.35864649 Ry
     estimated scf accuracy    <       0.02195187 Ry

     iteration #  5     ecut=    30.00 Ry     beta= 0.50
     Davidson diagonalization with overlap
     ethr =  8.57E-06,  avg # of iterations = 17.0

     total cpu time spent up to now is        5.9 secs

     total energy              =    -503.36039107 Ry
     estimated scf accuracy    <       0.01121819 Ry

     iteration #  6     ecut=    30.00 Ry     beta= 0.50
     Davidson diagonalization with overlap
     ethr =  4.38E-06,  avg # of iterations =  5.0

     total cpu time spent up to now is        6.0 secs

     total energy              =    -503.36174652 Ry
     estimated scf accuracy    <       0.00231393 Ry

     iteration #  7     ecut=    30.00 Ry     beta= 0.50
     Davidson diagonalization with overlap
     ethr =  9.04E-07,  avg # of iterations =  4.0

     total cpu time spent up to now is        6.2 secs

     total energy              =    -503.36216626 Ry
     estimated scf accuracy    <       0.00022806 Ry

     iteration #  8     ecut=    30.00 Ry     beta= 0.50
     Davidson diagonalization with overlap
     ethr =  8.91E-08,  avg # of iterations =  4.0

     total cpu time spent up to now is        6.3 secs

     total energy              =    -503.36219316 Ry
     estimated scf accuracy    <       0.00008902 Ry

     iteration #  9     ecut=    30.00 Ry     beta= 0.50
     Davidson diagonalization with overlap
     ethr =  3.48E-08,  avg # of iterations =  2.0

     total cpu time spent up to now is        6.4 secs

     total energy              =    -503.36219783 Ry
     estimated scf accuracy    <       0.00002166 Ry

     iteration # 10     ecut=    30.00 Ry     beta= 0.50
     Davidson diagonalization with overlap
     ethr =  8.46E-09,  avg # of iterations =  4.0

     total cpu time spent up to now is        6.6 secs

     total energy              =    -503.36220047 Ry
     estimated scf accuracy    <       0.00000392 Ry

     iteration # 11     ecut=    30.00 Ry     beta= 0.50
     Davidson diagonalization with overlap
     ethr =  1.53E-09,  avg # of iterations =  4.0

     total cpu time spent up to now is        6.7 secs

     End of self-consistent calculation

          k = 0.0000 0.0000 0.0000 ( 13457 PWs)   bands (ev):

    -6.2953  -5.4885  -5.4171  -5.3372  -5.2703  -5.1407  -4.9761  -4.8464
    -4.6397  -4.5361  -4.4772  -4.4269  -4.3590  -4.2356  -4.2066  -4.1713
    -4.1551  -4.1088  -4.0821  -4.0209  -3.9030  -3.8288  -3.7105  -2.8954
    -2.7397  -2.5963  -2.4921  -2.4787  -2.4273  -2.3673  -2.3315  -2.2657
    -2.2429  -2.1952  -2.1801  -2.1449  -2.1042  -2.0277  -2.0169  -1.9579
    -1.9072  -1.5485  -1.4564  -1.3764  -1.0220  -0.4546  -0.4051  -0.3812
    -0.2953  -0.2466  -0.2104  -0.1998  -0.1495  -0.0890  -0.0843  -0.0226
     0.0734   1.1708   1.2207   1.2748   1.3366   1.4441   1.4787   1.5102
     1.5262   1.5313   1.5943   1.6201   1.6531   1.6650   1.7035   1.7302
     1.7533   1.7584   1.7800   1.8137   1.8193   1.8519   1.8898   1.9005
     1.9431   1.9753   1.9990   2.0303   2.0801   2.0963   2.1375   2.3298
     2.4740   2.5059   2.5440   2.6641   2.6998   3.0337   3.1183   3.2890
     3.3332   3.3772   3.3947   3.4630   3.4782   3.4982   3.5724   3.5924
     3.6676   3.7046   3.7439   3.7733   3.7956   3.8327   3.8571   3.8725
     3.9014   3.9718   4.0162   4.0538   4.0761   4.1345   4.1721   4.2207
     4.2424   4.2707   4.3764   4.3845   4.6424   5.0171   5.1355   5.4618
     5.5862   5.6898   5.7823   5.9357   6.0342   6.0687   6.1202   6.1672
     6.1958   6.2381   6.2721   6.3182   6.3519   6.4054   6.4580   6.5331
     6.9615   7.0989   7.1661   7.1958   7.2301   7.2477   7.2929   7.3600
     7.4130   7.4328

     the Fermi energy is     5.4631 ev

!    total energy              =    -503.36220123 Ry
     estimated scf accuracy    <       0.00000055 Ry
     smearing contrib. (-TS)   =      -0.05933700 Ry
     internal energy E=F+TS    =    -503.30286423 Ry

     The total energy is F=E-TS. E is the sum of the following terms:
     one-electron contribution =     119.94985091 Ry
     hartree contribution      =      41.62385982 Ry
     xc contribution           =    -150.69356922 Ry
     ewald contribution        =    -514.18300573 Ry

     convergence has been achieved in  11 iterations

     Forces acting on atoms (cartesian axes, Ry/au):

     atom    1 type  1   force =    -0.07532682    0.06486382    0.10067739
     atom    2 type  1   force =    -0.00417565    0.03250962   -0.00870626
     atom    3 type  1   force =    -0.01176207   -0.04915984   -0.05031260
     atom    4 type  1   force =     0.02579428    0.00674145    0.03231052
     atom    5 type  1   force =    -0.05310235   -0.04099100    0.03031697
     atom    6 type  1   force =    -0.02699733    0.00814054    0.10773640
     atom    7 type  1   force =    -0.04050492    0.00686827    0.02160203
     atom    8 type  1   force =     0.03313222   -0.04298537    0.01032848
     atom    9 type  1   force =    -0.00314347    0.04129359   -0.02077315
     atom   10 type  1   force =    -0.06623091    0.09969603    0.07933546
     atom   11 type  1   force =    -0.05206235    0.05199825    0.06034970
     atom   12 type  1   force =     0.00951991   -0.01097029    0.05998674
     atom   13 type  1   force =    -0.04432883    0.03544013   -0.02538163
     atom   14 type  1   force =     0.03736760    0.00761192    0.02516940
     atom   15 type  1   force =    -0.01285883   -0.01753442    0.05389800
     atom   16 type  1   force =     0.03240317    0.00305787    0.02083236
     atom   17 type  1   force =     0.02709251   -0.01836625    0.02537673
     atom   18 type  1   force =    -0.02122196   -0.02138887   -0.01508986
     atom   19 type  1   force =    -0.02819656   -0.02170943   -0.00865139
     atom   20 type  1   force =     0.02455966   -0.05270567    0.08099078
     atom   21 type  1   force =     0.00487142    0.03833985    0.01334428
     atom   22 type  1   force =    -0.02667979   -0.01768225    0.01922215
     atom   23 type  1   force =     0.03251460   -0.05204274    0.04929553
     atom   24 type  1   force =     0.05783614   -0.00459620    0.02228667
     atom   25 type  1   force =    -0.01793218    0.00420490    0.02681811
     atom   26 type  1   force =    -0.00217977   -0.01383705    0.01079635
     atom   27 type  1   force =    -0.01220892    0.01415112   -0.01956483
     atom   28 type  1   force =     0.02823447    0.07222772    0.02455352
     atom   29 type  1   force =     0.00163695   -0.04215280    0.02027862
     atom   30 type  1   force =     0.01803219    0.01159013    0.03023380
     atom   31 type  1   force =     0.00459866    0.01044672    0.00114567
     atom   32 type  1   force =     0.04019104   -0.04287630    0.04238843
     atom   33 type  1   force =     0.00433240   -0.01560894   -0.02668735
     atom   34 type  1   force =    -0.01622401    0.01505866    0.04485988
     atom   35 type  1   force =    -0.02006323   -0.00400265    0.00777501
     atom   36 type  1   force =    -0.00536230    0.02973300   -0.06002968
     atom   37 type  1   force =    -0.03243409    0.01806437   -0.05747765
     atom   38 type  1   force =    -0.00207039   -0.00468783   -0.02564617
     atom   39 type  1   force =    -0.00106807   -0.04877769    0.04195837
     atom   40 type  1   force =     0.00829831    0.04734197    0.01771270
     atom   41 type  1   force =     0.03834288    0.03601320   -0.02123490
     atom   42 type  1   force =     0.03228990   -0.00338961    0.00041714
     atom   43 type  1   force =    -0.00164742   -0.00934124   -0.02562534
     atom   44 type  1   force =     0.01548780    0.01176578    0.02710785
     atom   45 type  1   force =    -0.01479915   -0.00474796    0.01607083
     atom   46 type  1   force =    -0.00859949    0.02191865   -0.04447118
     atom   47 type  1   force =    -0.00429075   -0.03284185    0.01467793
     atom   48 type  1   force =     0.05503246    0.00811846    0.02799783
     atom   49 type  1   force =    -0.05433595   -0.00124962   -0.04263895
     atom   50 type  1   force =    -0.01532007   -0.00715357   -0.02362944
     atom   51 type  1   force =     0.00633951    0.03675031   -0.07756653
     atom   52 type  1   force =    -0.03347602   -0.03209054   -0.04318649
     atom   53 type  1   force =    -0.03266119    0.02052330   -0.01312735
     atom   54 type  1   force =     0.11039764   -0.08611635   -0.11100182
     atom   55 type  1   force =    -0.00496697    0.00031847   -0.03662055
     atom   56 type  1   force =     0.02497914    0.02517596   -0.03238995
     atom   57 type  1   force =     0.04607186   -0.01756070   -0.00764627
     atom   58 type  1   force =    -0.04026420    0.01416831   -0.05488383
     atom   59 type  1   force =     0.02567229    0.01188400   -0.03632921
     atom   60 type  1   force =     0.02757846   -0.01837970   -0.03035199
     atom   61 type  1   force =    -0.07487142   -0.06374100   -0.08785087
     atom   62 type  1   force =     0.03870755    0.02922000   -0.04920674
     atom   63 type  1   force =     0.03099357   -0.03727611   -0.00252901
     atom   64 type  1   force =     0.01905883    0.00072748   -0.10924065

     Total force =     0.529102     Total SCF correction =     0.001256


     Computing stress (Cartesian axis) and pressure

          total   stress  (Ry/bohr**3)                   (kbar)     P=      -49.10
  -0.00030269  -0.00009945   0.00003573          -44.53      -14.63        5.26
  -0.00009945  -0.00032038   0.00005675          -14.63      -47.13        8.35
   0.00003573   0.00005675  -0.00037816            5.26        8.35      -55.63

 
     init_run     :      1.01s CPU      4.86s WALL (       1 calls)
     electrons    :      1.62s CPU      1.75s WALL (       1 calls)
     forces       :      0.04s CPU      0.05s WALL (       1 calls)
     stress       :      0.18s CPU      0.18s WALL (       1 calls)

     Called by init_run:
     wfcinit      :      0.59s CPU      4.26s WALL (       1 calls)
                                        4.26s GPU  (       1 calls)
     potinit      :      0.21s CPU      0.30s WALL (       1 calls)
     hinit0       :      0.19s CPU      0.22s WALL (       1 calls)

     Called by electrons:
     c_bands      :      1.04s CPU      1.09s WALL (      12 calls)
     sum_band     :      0.31s CPU      0.35s WALL (      12 calls)
     v_of_rho     :      0.15s CPU      0.24s WALL (      12 calls)
     mix_rho      :      0.11s CPU      0.13s WALL (      12 calls)

     Called by c_bands:
     init_us_2    :      0.05s CPU      0.05s WALL (      25 calls)
     init_us_2:gp :      0.05s CPU      0.05s WALL (      25 calls)
     regterg      :      0.93s CPU      0.97s WALL (      12 calls)

     Called by *egterg:
     rdiaghg      :      0.34s CPU      1.10s WALL (      75 calls)
                                        1.08s GPU  (      75 calls)
     h_psi        :      1.02s CPU      3.96s WALL (      77 calls)
                                        3.96s GPU  (      77 calls)
     g_psi        :      0.00s CPU      0.00s WALL (      64 calls)
                                        0.00s GPU  (      64 calls)

     Called by h_psi:
     h_psi:calbec :      0.53s CPU      3.39s WALL (      77 calls)
                                        3.39s GPU  (      77 calls)
     vloc_psi     :      0.44s CPU      0.51s WALL (      77 calls)
                                        0.51s GPU  (      77 calls)
     add_vuspsi   :      0.03s CPU      0.05s WALL (      77 calls)
                                        0.05s GPU  (      77 calls)

     General routines
     calbec       :      0.53s CPU      3.40s WALL (      82 calls)
     fft          :      0.28s CPU      0.40s WALL (     103 calls)
                                        0.12s GPU  (      66 calls)
     ffts         :      0.04s CPU      0.05s WALL (      12 calls)
     fftw         :      0.47s CPU      0.64s WALL (    1318 calls)
                                        0.58s GPU  (    1318 calls)
 
     Parallel routines
 
     PWSCF        :      2.90s CPU      6.93s WALL

 
   This run was terminated on:  11:19:37  10May2023            

=------------------------------------------------------------------------------=
   JOB DONE.
=------------------------------------------------------------------------------=
