-0.014612478445899272 0.002603894996705645 -0.008986008579957034 0.002603894996705645 -0.006953207619905448 -0.0006491374339460123 -0.008986008579957034 -0.0006491374339460123 -0.023311103692298878
-0.014157072268760347 0.016763721738311588 -0.005917525829960466 0.016763721738311588 -0.024437683086148604 0.0016875736967365922 -0.005917525829960466 0.0016875736967365922 -0.008653635523254832
0.002979421461322221 -0.002479943718653719 0.010035462734130007 -0.002479943718653719 -0.0046192509620684415 0.00013864179989511721 0.010035462734130007 0.00013864179989511721 0.0036340678409594296
0.0037497557004745607 0.006567581421521678 0.006845783178927112 0.006567581421521678 0.007466457726801942 -0.008843694149601119 0.006845783178927112 -0.008843694149601119 0.006608898514205653
-0.010846195908351123 -0.0008254236960643071 0.0011991138454504838 -0.0008254236960643071 0.005465792283282336 -0.004189553198155099 0.0011991138454504838 -0.004189553198155099 0.001485579021392713
-0.004443882857565346 -0.006072694466929173 -0.009332154000887227 -0.006072694466929173 -0.017154856882386556 0.017960999268531674 -0.009332154000887227 0.017960999268531674 -0.021389399803686426
0.006473929344771334 0.00723416385015648 0.003112554315526141 0.00723416385015648 0.010997691914859033 -0.0014121264121767566 0.003112554315526141 -0.0014121264121767566 0.006055249472240384
0.004284123432520642 0.0006289379664116244 -0.00621225442443949 0.0006289379664116244 -0.018457722538354576 -0.0016738013325086004 -0.00621225442443949 -0.0016738013325086004 -0.015350677168519634
0.003972868000968027 0.01704467796856262 0.014431601395704983 0.01704467796856262 0.0071506115071733305 -0.00738474169904919 0.014431601395704983 -0.00738474169904919 -0.008614154745801256
0.007407695639429176 0.012798198998265158 0.00252860607225929 0.012798198998265158 0.009928038293151671 -0.009595665236449469 0.00252860607225929 -0.009595665236449469 0.0009190757728146512
0.002034637275281985 0.00559249803417986 -0.0051104652862001484 0.00559249803417986 -0.009363371359804008 -0.008873075193287502 -0.0051104652862001484 -0.008873075193287502 0.0029280046348710517
-0.01167253776203063 -0.0027893628349759344 0.007786894734506549 -0.0027893628349759344 -0.006151656021836326 -0.006578599312904071 0.007786894734506549 -0.006578599312904071 -0.0038470804076857026
0.0022182687983218754 -0.0018427423337052996 -0.0012909296069704291 -0.0018427423337052996 0.014017512311250029 -0.001966693611757226 -0.0012909296069704291 -0.001966693611757226 0.005432738609135156
0.0017858165615629335 -0.0008327689569859026 -0.0014332440373263442 -0.0008327689569859026 0.019138077331217373 0.0006372013849484195 -0.0014332440373263442 0.0006372013849484195 0.018405387554288208
-0.0219384580575757 -0.008079787013755176 -0.0070064607615870165 -0.008079787013755176 -0.024121836866519992 0.009613110231138259 -0.0070064607615870165 0.009613110231138259 -0.014141463589301954
-0.009586483660297474 -0.004635777799142032 0.00618011890790751 -0.004635777799142032 -0.011285993406031659 0.0024184271584353555 0.00618011890790751 0.0024184271584353555 0.007170810974707718
-0.013920187604038887 -0.008815231263529935 0.005958842922644442 -0.008815231263529935 -0.015698658904680224 0.011723036430866599 0.005958842922644442 0.011723036430866599 -0.009517621839157516
-0.014734593408720801 -0.00023504834949105964 0.00231100271745702 -0.00023504834949105964 -0.023180725310940554 0.002587368159632055 0.00231100271745702 0.002587368159632055 -0.028069914611877637
0.018983826851863863 0.008908883340280279 0.006248062571432269 0.008908883340280279 0.006312333604496231 -0.003675384933643405 0.006248062571432269 -0.003675384933643405 0.012284030733753464
-4.2235250299174776e-05 -0.006565745106291279 -0.0040628474472575735 -0.006565745106291279 -0.019927692880288898 -0.007377396438127595 -0.0040628474472575735 -0.007377396438127595 -0.015897899107178506
-0.007744659484207376 -0.007662943456454624 0.008126613052130348 -0.007662943456454624 -0.007994398355541627 -0.006361914115717 0.008126613052130348 -0.006361914115717 -0.013336239360772037
0.025955397624073298 0.0027957899382823307 0.0007841066033803317 0.0027957899382823307 0.026543936655416146 -0.003250277957806059 0.0007841066033803317 -0.003250277957806059 0.021344410080541654
-0.01168906459910422 -0.01285879740086832 -0.004090392175713557 -0.01285879740086832 0.0029518767328662373 -0.012758718220811581 -0.004090392175713557 -0.012758718220811581 -0.01762036279329268
-0.002487288979575315 0.009452432648478355 -0.002715910225759978 0.009452432648478355 0.00627927993034905 -0.001044863366096976 -0.002715910225759978 -0.001044863366096976 0.016750867531698795
0.02909274219520983 -0.00629672492503784 -0.006071776309313975 -0.00629672492503784 0.02489859820897873 -0.0010430270508665772 -0.006071776309313975 -0.0010430270508665772 0.027693469989645864
0.0125622324911589 -0.0066887782267280056 -0.008494794255825328 -0.0066887782267280056 0.013058037603366603 -0.004029793773110394 -0.008494794255825328 -0.004029793773110394 0.020324336970055062
0.011398926792701193 -0.001044863366096976 0.0001882223111158876 -0.001044863366096976 0.011842396920842529 -0.0004801964327493132 0.0001882223111158876 -0.0004801964327493132 0.020388608003119025
-0.01902606210216304 -0.005456610707130341 -0.0012239041010608691 -0.005456610707130341 -0.018938837128719088 9.732470721114188e-05 -0.0012239041010608691 9.732470721114188e-05 -0.01100320086055023
0.013233405707869697 0.0015581134729934693 -0.0009502931317314325 0.0015581134729934693 0.018685425626924042 -0.0007620708206155449 -0.0009502931317314325 -0.0007620708206155449 0.020970719931155478
-0.0244468646623006 -0.011683555653413023 -0.00810733174221116 -0.011683555653413023 -0.025062030264484232 -0.0014029448360247622 -0.00810733174221116 -0.0014029448360247622 -0.0125594780183133
0.00768589739683461 -0.008209247237498298 0.006407821996476973 -0.008209247237498298 -0.0008373597450619001 0.0037460830700137633 0.006407821996476973 0.0037460830700137633 -0.001008137061488998
0.0075647005916282825 0.0003773627798469746 0.006540036693065694 0.0003773627798469746 -0.005429065978674358 3.029920130158191e-05 0.006540036693065694 3.029920130158191e-05 0.0036092775853490446
-0.0021374709281843235 0.0025377876484112844 0.015500336859797143 0.0025377876484112844 0.0017894891920237316 -0.004022448512188798 0.015500336859797143 -0.004022448512188798 -0.009354189783652014
-0.00790350075163688 -0.005818364807518925 -0.0016453384464374175 -0.005818364807518925 0.009402852137257585 0.0007299353040835641 -0.0016453384464374175 0.0007299353040835641 0.0037653643799329516
-0.029443478404216017 -0.00371762018394258 -0.005503436745505514 -0.00371762018394258 -0.037229454981107364 0.004700966989821193 -0.005503436745505514 0.004700966989821193 -0.03518471797205819
-0.011765271681165774 0.0036193773191162387 0.004736775136813971 0.0036193773191162387 -0.004943360600233848 -0.00023137571903026182 0.004736775136813971 -0.00023137571903026182 -0.004150072420701522
-0.00714969334955813 -0.0014708884995495216 0.006626343508894442 -0.0014708884995495216 -0.030032935593174062 0.005527308843500699 0.006626343508894442 0.005527308843500699 -0.029444396561831215
-0.015829037286038548 0.015784047562893776 0.024163153959203973 0.015784047562893776 -0.012252813374836682 -0.020675991336676452 0.024163153959203973 -0.020675991336676452 -0.006712650324723191
0.016288116093638273 -0.002229286689704269 0.004311668160976625 -0.002229286689704269 0.011215295269661302 -0.003959095636740036 0.004311668160976625 -0.003959095636740036 -0.0006307742816420234
0.02937369842546086 0.0071267394091781445 0.003439418426537146 0.0071267394091781445 0.023803236174045783 -0.0012110498944480769 0.003439418426537146 -0.0012110498944480769 0.030519559129229774
0.01684819223890994 0.0002488207137190514 -0.0008052242285299192 0.0002488207137190514 0.012830334514797136 -0.0042740236987534475 -0.0008052242285299192 -0.0042740236987534475 0.005690740899006202
-0.012941431586236273 0.005567707778569475 0.000180877050194292 0.005567707778569475 -0.027290398796573304 -0.01041557998682258 0.000180877050194292 -0.01041557998682258 -0.02724724538865893
-0.028632745229994903 0.0033953468610075726 0.012261994950988677 0.0033953468610075726 -0.017424795221255195 0.004288714220596639 0.012261994950988677 0.004288714220596639 -0.0017904073496389308
0.0013304103844240056 -0.011388827058934 0.009483650007395136 -0.011388827058934 -0.0066731695472696155 0.014294795911040263 0.009483650007395136 0.014294795911040263 0.003194270343278892
-0.013652085580400646 -0.007042268908579794 -0.00403622087641679 -0.007042268908579794 -0.0003305367414718026 0.004247397127912664 -0.00403622087641679 0.004247397127912664 -0.013693402673084623
-0.018172175520027548 0.0017757168277957396 -0.0040628474472575735 0.0017757168277957396 -0.0014038629936399618 0.007781385788815353 -0.0040628474472575735 0.007781385788815353 -0.007557355330706687
0.03125316706377414 -0.0007997152828387224 -0.004745038555350766 -0.0007997152828387224 0.024041957153997644 0.01753405597746393 -0.004745038555350766 0.01753405597746393 0.01900586263462865
-0.0396855266017659 -0.009197184831452907 -0.010340291062376225 -0.009197184831452907 -0.041786271225342245 -0.011749663001707385 -0.010340291062376225 -0.011749663001707385 -0.03985814023342339
0.004779928544728346 0.011400763107931592 0.010102488240039568 0.011400763107931592 0.01664527940595086 -0.0004884598512861083 0.010102488240039568 -0.0004884598512861083 0.005272061026475252
-0.017713096712427823 -0.004863480887711496 -0.007645498461765834 -0.004863480887711496 -0.005701758790388595 -0.008589364490190871 -0.007645498461765834 -0.008589364490190871 -0.021009282550993852
0.004240970024606268 0.013341748306463232 -0.005959761080259641 0.013341748306463232 0.012088463161715982 0.004836854316870711 -0.005959761080259641 0.004836854316870711 0.015478301077032356
0.0031667256148229087 -0.002522178968952894 -0.0020419825362035806 -0.002522178968952894 -0.015988796711083254 0.00544283834290235 -0.0020419825362035806 0.00544283834290235 -0.008616909218646855
-0.021207604595876933 -0.002756309160828754 0.012769736112193975 -0.002756309160828754 0.002312839032687419 -0.0020704454222747635 0.012769736112193975 -0.0020704454222747635 -0.025754321106344617
-0.04903145296688111 0.01108399873068778 -0.005003040845221812 0.01108399873068778 -0.050394917025452304 0.016783003048230778 -0.005003040845221812 0.016783003048230778 -0.05285649759180203
-0.012720155600973206 0.02204129171047804 0.0035312341880570914 0.02204129171047804 -0.03722853682349217 0.011801997985773754 0.0035312341880570914 0.011801997985773754 -0.02572218558981264
-0.03754438304312078 0.011072062681690188 0.018084032388968403 0.011072062681690188 -0.023113699805030998 -0.01237217386481261 0.018084032388968403 -0.01237217386481261 -0.03348245375347841
0.0024542353054281345 0.009507522105390322 -0.0032971039961812313 0.009507522105390322 -0.013887133929891706 0.010329273170993832 -0.0032971039961812313 0.010329273170993832 -0.01845221359266338
0.0277917128544722 0.009131077483158547 -0.003280577159107641 0.009131077483158547 0.029415933675760033 -0.005210544466256888 -0.003280577159107641 -0.005210544466256888 0.034721048376382464
-0.026935071799491114 -0.013094763907974582 -0.013489571682510346 -0.013094763907974582 -0.022530669719379347 -0.013501507731507937 -0.013489571682510346 -0.013501507731507937 -0.028336180320285478
-0.0024046547942073644 0.005289506021164041 0.006759476363098363 0.005289506021164041 0.0019804659759852174 0.0036248862648074354 0.006759476363098363 0.0036248862648074354 0.011396172319855595
-0.012761472693657178 -0.005180245264955306 -0.0030804187989941605 -0.005180245264955306 -0.014243379084589093 -0.0018776323230828785 -0.0030804187989941605 -0.0018776323230828785 -0.0010926075620873476
0.020188449643005542 -0.004730348033507575 0.008298308526172644 -0.004730348033507575 0.027134312001989395 0.002550641855024077 0.008298308526172644 0.002550641855024077 0.023637049645694685
0.005381321782683987 -0.006170019174140315 -0.005327150483387218 -0.006170019174140315 -0.004865317202941894 -0.002935349895792647 -0.005327150483387218 -0.002935349895792647 -0.013941305229188475
-0.02283917067808636 0.011962675568433657 0.005535572262037494 0.011962675568433657 -0.024344949167013463 -0.0069550439351358465 0.005535572262037494 -0.0069550439351358465 -0.003006048032163005
0.022402127653251423 -0.0025442147517176807 0.0055107820064271085 -0.0025442147517176807 0.01655989074773731 0.013895397348428502 0.0055107820064271085 0.013895397348428502 0.021829197301366964
-0.004323604209974218 -0.015818937552271352 -0.0017784713006413378 -0.015818937552271352 -0.017153020567156157 -0.0043649213026581936 -0.0017784713006413378 -0.0043649213026581936 -0.004127118480321536
-0.019907493412754513 -8.17160277527512e-05 0.012951531320003467 -8.17160277527512e-05 -0.002940858841483844 -0.0022880487770770334 0.012951531320003467 -0.0022880487770770334 -0.0034430910569979434
0.013956913908646866 -0.009971191701066045 0.003578978384047463 -0.009971191701066045 0.012428181479339778 0.006937598940447058 0.003578978384047463 0.006937598940447058 0.0009071397238170583
-0.018225428661709116 0.006282952560809847 -0.008952036748194654 0.006282952560809847 -0.017388068916647216 0.004070192708179169 -0.008952036748194654 0.004070192708179169 -0.0015259779564614888
-0.01582995544365375 -0.011701000648101813 0.0069173994729126685 -0.011701000648101813 -0.026631161628860093 0.011732218007018593 0.0069173994729126685 0.011732218007018593 -0.026403458540290633
-0.02542286620725762 0.004302486584824631 0.01605398590176241 0.004302486584824631 -0.01595390672170567 -0.005187590525876902 0.01605398590176241 -0.005187590525876902 -0.013251768860173686
-0.04926650131637218 -0.00559433434941026 0.009384488984953596 -0.00559433434941026 -0.04929129157198256 0.014274596443505875 0.009384488984953596 0.014274596443505875 -0.04898003614042995
0.020524495330168542 0.0022614222062362493 0.008729842605316387 0.0022614222062362493 0.02640713117075143 0.010644201233007243 0.008729842605316387 0.010644201233007243 0.022010992509176458
0.0071799925508597125 -0.006961471038442243 -0.008658226311330829 -0.006961471038442243 -0.007453603520189149 1.652683707359013e-05 -0.008658226311330829 1.652683707359013e-05 0.0034926715682187144
-0.0027911991502063333 -0.006154410494681925 0.012275767315216669 -0.006154410494681925 -0.008997944628954627 -0.00733607934544362 0.012275767315216669 -0.00733607934544362 -0.005734812464535775
0.005434574924365555 -0.0014424256134783387 0.013282068061475267 -0.0014424256134783387 0.014488527167847346 -0.0016591108106654092 0.013282068061475267 -0.0016591108106654092 0.005266552080784055
0.008783095746997956 -0.0033797381815491817 -0.007526137971789906 -0.0033797381815491817 -0.0058918174167348816 -0.0020135196501323976 -0.007526137971789906 -0.0020135196501323976 0.006428021464011361
-0.045190799662501814 -0.014036793621169219 0.013013966037837029 -0.014036793621169219 -0.03718997420365379 0.001945575986607638 0.013013966037837029 0.001945575986607638 -0.045618661111184754
-0.012160997613316737 0.015455347136652371 0.006670415074424017 0.015455347136652371 -0.005981796863024427 0.0034926715682187144 0.006670415074424017 0.0034926715682187144 -0.009794905438947751
0.006645624818813631 0.006870573434537497 -0.0022972303532290284 0.006870573434537497 -0.004509072048244508 0.0037268017600945746 -0.0022972303532290284 0.0037268017600945746 0.01595666119455127
-0.012679756665904427 0.0013469372214975957 0.009350517153191216 0.0013469372214975957 -0.009188003255300912 -0.0051499460636537245 0.009350517153191216 -0.0051499460636537245 -0.009748997558187778
0.021530796076427144 0.0053372502171544125 -0.0028490430799638987 0.0053372502171544125 0.008850121252907515 0.006586862731440867 -0.0028490430799638987 0.006586862731440867 0.01011626060426756
0.014159826741605944 0.0004884598512861083 -0.007742823168976976 0.0004884598512861083 0.0031153087883717396 -0.005518127267348704 -0.007742823168976976 -0.005518127267348704 0.011015136909547822
-0.005461201495206338 -0.0072883351494532475 0.0049369334969274516 -0.0072883351494532475 0.005182081580185706 -0.0008033879132995201 0.0049369334969274516 -0.0008033879132995201 -0.013408773812372793
-0.017942636116227685 0.015592152621317088 -0.00537581283699279 0.015592152621317088 -0.03420688011187077 -0.002479943718653719 -0.00537581283699279 -0.002479943718653719 -0.023570024139785123
-0.015149600650790953 0.013945896017264472 0.009486404480240735 0.013945896017264472 0.0057338943069205756 -0.005822955595594923 0.009486404480240735 -0.005822955595594923 -0.0072011101760093
0.001750008414570155 0.0034605360516867336 -0.00741871353081157 0.0034605360516867336 -0.006820074765701527 0.011772616942087368 -0.00741871353081157 0.011772616942087368 0.006209499951593892
-0.018578919343560905 -0.015246007200386895 0.009131995640773747 -0.015246007200386895 -0.00465597726667642 -0.0019749570302940206 0.009131995640773747 -0.0019749570302940206 -0.01635973238762383
-0.012618240105686063 0.0007088176789339768 -0.00592670740611246 0.0007088176789339768 -0.012968058157077056 0.00694953498944465 -0.00592670740611246 0.00694953498944465 0.004380529982116584
-0.036460957057185425 -0.005631060654018237 -0.0015186326955398933 -0.005631060654018237 -0.03111452526387902 0.01295979473854026 -0.0015186326955398933 0.01295979473854026 -0.03878205950840964
0.008058669388605588 0.015197344846781325 -0.006269180196581857 0.015197344846781325 -0.004523762570087699 0.008549883712737294 -0.006269180196581857 0.008549883712737294 -0.0050590484597489785
-0.003558778916513075 0.014878744154307115 0.0002965649097094229 0.014878744154307115 -0.014600542396901681 -0.006511573806994512 0.0002965649097094229 -0.006511573806994512 -0.003720374656788178
-0.0120581639604144 -0.005033340046523394 -0.0067558037326375655 -0.005033340046523394 -0.01800507083406125 0.00016067758265990404 -0.0067558037326375655 0.00016067758265990404 -0.021311356406394474
-0.022213905342135534 0.007962262839009644 0.0016765558053541988 0.007962262839009644 -0.022478334735312973 0.007884219441717692 0.0016765558053541988 0.007884219441717692 -0.015865763590646526
-0.03522695322235737 -0.0019593483508356297 -0.0063968041050945805 -0.0019593483508356297 -0.027993707529816083 0.0023468108644497986 -0.0063968041050945805 0.0023468108644497986 -0.03764629853840792
0.014291123280579465 0.008243219069260677 0.001170650959379301 0.008243219069260677 0.014524335314840127 0.007856674713261708 0.001170650959379301 0.007856674713261708 0.004385120770192581
0.0029500404176358384 0.0073158798779092305 -0.011836887975151332 0.0073158798779092305 -0.00532623232577202 -0.002341301918758602 -0.011836887975151332 -0.002341301918758602 0.013088336804668184
-0.03341910087802964 -0.0070835860012637706 0.014751120245794391 -0.0070835860012637706 -0.005982715020639628 -0.004168435573005511 0.014751120245794391 -0.004168435573005511 -0.02817825721047117
-0.002324775081685012 0.01495586939398387 -0.00292984095010145 0.01495586939398387 -0.0038957427612912733 0.017339406563041646 -0.00292984095010145 0.017339406563041646 -0.015670196018609042
-0.03686311009264279 0.00941295187102478 -0.0013047019711984209 0.00941295187102478 -0.03340532851380165 0.0002717746540990377 -0.0013047019711984209 0.0002717746540990377 -0.030480996509391397
