LAMMPS data file via write_data, version 23 Jun 2022, timestep = 1000000

64 atoms
1 atom types

0.04705386565184799 10.814346134350119 xlo xhi
0.04705386565184799 10.814346134350119 ylo yhi
0.04705386565184799 10.814346134350119 zlo zhi

Masses

1 28.0855

Atoms # atomic

59 1 2.745187310493043 2.0667078069260816 0.839304397029292 9 7 1
41 1 1.2008026421192783 4.820454433215287 5.4227318551614445 0 -8 17
15 1 5.169182759478617 1.1588827706963145 1.5731210726579643 -10 -4 5
35 1 4.0507464370831 2.7418016060335426 4.079799012548012 4 -4 1
33 1 0.9707535412097874 2.05684139803914 2.1558330072927694 -19 -6 -2
20 1 0.5977213858923789 2.8168717351792787 4.30201493585436 -12 1 -3
58 1 4.87491472099525 0.8327538309735241 4.967430939510903 21 1 4
43 1 5.610146643020082 3.5581170352451577 2.05629214238759 -8 -11 -2
17 1 7.365026392937277 1.552364777246926 2.334110156056924 11 2 2
3 1 7.4282469968878635 0.7643896028587012 4.640205393544647 3 7 5
2 1 6.193619265072894 4.796966390599592 5.166017921636181 8 -11 -3
60 1 9.488438691905 2.1880883603078183 1.3392133502790968 2 -4 12
62 1 5.159289001031067 9.502851517197534 1.77698563123791 4 -14 0
61 1 3.6824250232193245 7.012599806676186 2.3427078419950806 -8 3 3
63 1 3.6138698410475887 5.538952373895245 4.153562375623682 -6 -10 9
10 1 2.216585168058962 8.823818290029234 2.215466690044377 -3 -2 -4
53 1 3.6622624635704693 10.80015899229408 3.021951918437831 -10 12 -6
28 1 1.5339419302565032 7.100364028596407 3.9340913806253424 -5 -7 1
26 1 5.376045383767706 8.248706113554022 4.352944968503223 8 -21 2
11 1 0.8205394967093488 10.663250136856899 3.2022847223462567 -4 8 -11
54 1 0.2334733458788608 7.6758415416339805 0.7748406467193318 2 -3 4
46 1 8.435739693663173 8.63386044198328 1.0209658857198094 3 -15 -2
30 1 5.99660297460384 5.982915361030271 3.1087171998861884 1 -4 4
49 1 7.835897492111977 7.719838109684454 3.278964927278313 -6 3 -15
19 1 9.370915868129014 10.6515796856379 5.3881450809266145 0 6 -5
50 1 10.413629001271758 10.806510410595024 0.9674810327051903 -2 2 -9
8 1 5.5609040799110625 7.232502197120908 0.743160947930989 13 4 -7
6 1 9.352903002318183 6.141832690179817 3.8524766720803933 0 -7 -9
23 1 2.6024684065867185 3.7313920359289594 9.751449136707425 -3 11 6
39 1 1.4145798353222236 5.168032182905845 8.142303710329202 8 -2 -7
47 1 1.3188171086006693 1.007224685080344 7.335081746558172 11 5 1
57 1 4.756507656946555 0.38725372942494735 9.944803716805712 1 7 4
34 1 0.8199685015561603 1.0351304408059478 9.804102050298386 7 3 -4
4 1 3.7184233557270208 1.9011441922879362 8.163544859025865 -3 9 6
55 1 2.842490483696612 2.4300560571472003 6.088828489372291 0 -2 5
44 1 4.505209064145382 4.567146225320515 6.861776118618558 -8 -13 -4
42 1 5.760551122678279 4.270153833774286 10.525219438739562 11 6 -2
24 1 9.647337717808377 2.2395509940303127 5.622540716892113 23 9 -7
38 1 8.084587068779353 4.615329327051686 10.642712500300977 -7 0 -7
36 1 9.025562377502421 2.23111513377683 9.509153153792617 -2 15 15
5 1 6.239346301178947 2.6091331582979804 6.319293042628441 -3 -12 -3
12 1 8.523270858138439 3.2307825096846376 7.296540093249358 -11 -6 9
21 1 7.330786925650808 1.0551762609476978 7.425645412960979 3 -2 -5
16 1 5.844149263114545 2.4592049822934943 9.208677115613163 4 -9 15
56 1 7.91754944523935 5.1032151830785875 8.354216646239518 -11 4 -10
52 1 2.6438148049666634 9.511235413034282 10.52213400685255 -4 4 2
48 1 1.084018255889848 5.548217496665082 10.437667974693507 -7 -3 -8
13 1 2.5470871888446824 9.47006505665248 7.113664007716482 -9 9 2
25 1 4.975520869262368 10.420815679481006 7.180641545478408 4 -8 -5
1 1 3.595360514990709 7.835287314218151 5.773275362322983 -9 4 3
40 1 3.9089076152270423 8.420049193868234 8.568445710429234 0 3 -4
64 1 4.693555871857247 6.350303331710353 8.24020634294624 2 12 1
27 1 3.550999594862155 5.909569055425611 10.650322537537782 7 3 0
45 1 1.1148300377300482 8.457126934108832 8.951344349667291 4 8 -1
51 1 6.856422956416294 9.106487645129903 5.941624158574679 8 2 1
7 1 9.871713270857 7.524553726309181 8.408243043967254 -3 0 2
31 1 10.499999046936598 6.512741497357366 5.928831102132209 -6 2 2
18 1 8.429952601839531 6.947759006681907 10.38087688472785 3 8 2
32 1 8.175221789403004 5.503421714563657 6.072608215335907 3 12 -7
37 1 8.263783071855848 9.659903939456363 7.7631171355270885 0 5 -8
22 1 8.219076689434573 10.630012788047008 10.087265012358714 0 -5 18
14 1 10.602113240349361 9.262008334772617 6.451950487097972 0 -7 -3
9 1 6.304895488715692 9.035461166697864 9.929004889118367 -7 5 -4
29 1 6.802745846455425 7.237503977518328 7.651425800158224 -3 -4 -2

Velocities

59 -1.0941616130884257 -15.927935425551343 2.677725256996095
41 -1.3729210617409557 0.09787403528136214 1.7199946949317444
15 6.22105612613231 1.5683306298406499 -1.7657233110833153
35 -11.792950148459209 -15.263052291316784 1.77650679568397
33 -4.038644486468895 12.19877672103606 1.5800461219850124
20 0.8463424912537431 5.97810080555255 -0.35496925965565956
58 -3.0290959836385216 3.919355381757055 -9.782865454206
43 0.7008777445943322 9.396477331780641 1.654795262031917
17 5.003867882988333 11.087689476419742 11.313922665890338
3 1.0656546454221527 -9.821165176263277 -4.508804089271996
2 8.382550332591158 5.9981367786974555 0.4561009404825984
60 0.00011048856206374103 -7.043020971109079 10.303337420658208
62 -5.440400294383083 -12.91816579740809 -2.320517422941293
61 0.6022021349133481 -1.466613963611701 -2.09838555352683
63 10.177544338509389 8.263926949049353 -2.7493973740865836
10 3.569521794667358 11.907361842480096 -2.9048901960073734
53 -7.480184726897555 4.425961757209486 6.957557996162348
28 7.218010331598694 4.016922093458794 15.43800716626989
26 -1.3556822506456552 -0.20695604555935299 -13.800283164537726
11 5.003724214174158 -4.178862775861201 5.327521907249682
54 -2.8852236267516 7.688519820890752 6.816739867615955
46 3.2110007730628096 -5.650124703076389 3.86682232728494
30 -5.463915138273326 3.235460844683605 -5.819634060443506
49 -0.7094346672659256 -3.7683905426540436 -3.4283679836587617
19 -8.71479468204576 -15.923503094039441 2.0906780902830904
50 6.9826843125906235 5.24830943201172 -0.1904085145826733
8 11.548803729376576 -20.227935413034036 -4.706255489352977
6 -4.946592349086616 3.461919165497819 -2.4047036660645134
23 -0.1459042688448189 -12.758628134353971 -4.013354302939311
39 3.7982543777398963 4.05134277888936 -7.209294761927879
47 -2.7604584468581783 2.899023961433132 4.959774559683241
57 0.15031895215087998 -2.8445972762847855 10.700467175480634
34 3.9181268536039613 0.14638547686352857 3.7980595278552802
4 -8.454586927020143 2.2419728080623704 9.32588635975328
55 4.7678411966984555 1.9777794920237401 -10.117881532745098
44 -8.913152559369209 -4.637660701090061 -1.0614344780898837
42 -6.6295999774256344 2.5399751428775694 -1.6083248654610032
24 2.8778241515359375 3.7481515269717374 -3.553594256814522
38 -1.0962190815047 5.89532544138315 0.5333167240499483
36 -2.820316884984294 2.435237210153341 -6.760105676275643
5 -1.0185956908306004 1.8487515230916336 4.940862174688555
12 7.241186759364031 -15.495074874308417 -2.527079607840212
21 5.700438762167332 -15.200337214890855 1.9175680585121686
16 3.3506392649880796 11.586884345315056 -7.623510687205462
56 1.146872729992606 -7.571401519982884 -6.944496974679611
52 6.575032405748076 -1.2556388570773431 0.35306480012680985
48 7.452888293282313 8.210793649689066 0.01649031279337472
13 -3.2687573053783368 5.848707487356262 -6.109902034528321
25 -0.6982946134881097 -10.669027854185964 -4.515067479812692
1 -17.302289464512015 -2.6271954048495285 -5.003664165989201
40 4.306315219831864 10.978811997110311 -5.958399934989473
64 9.944771925286764 -0.028593242538108233 -8.86535227965174
27 -1.3712689888264424 -3.52466021850452 -3.4612531487312905
45 -0.849069598772137 11.644759806341776 -1.272134924248797
51 -6.0156921509523915 -4.389244880650741 5.196511408806416
7 9.010611361636537 4.611498475388899 13.290220593783115
31 -3.132106428086559 1.4153564587927148 1.5471320311753294
18 6.878318245323417 4.767896925632616 1.9929630690185804
32 -11.993911699669066 -5.227300835438443 7.801464529113242
37 0.3747397598114264 2.786752516946298 3.254602655762582
22 -19.253956454046968 9.424811098709867 2.9271329232795265
14 -5.755520865534679 -7.088036275819871 5.2700637748485155
9 5.392870989477845 13.758345561383797 1.629232129285454
29 6.3826998457733355 -5.598563260603129 -7.994512670192501
