LAMMPS data file via write_data, version 23 Jun 2022, timestep = 1000

64 atoms
1 atom types

0.17190853553507512 10.68949146446482 xlo xhi
0.17190853553507512 10.68949146446482 ylo yhi
0.17190853553507512 10.68949146446482 zlo zhi

Masses

1 28.0855

Atoms # atomic

48 1 4.423818514981555 3.918250332719344 2.5021755292840155 0 0 0
40 1 2.2560087913064177 2.6431718096628902 1.9801193481770551 0 1 0
36 1 4.7390715762290645 1.4907280333900856 2.2801071352014195 0 1 0
17 1 3.9758350139843452 5.036492963458236 0.5771402363287043 0 0 0
7 1 2.257014557522984 3.295918525960332 4.989981462131071 0 1 0
38 1 3.7605835070321083 1.8077317704151743 4.242844826453618 1 0 -1
61 1 10.481930860651907 2.063488519718881 1.964701875231654 -1 1 0
62 1 8.112627875616404 4.9626773217517 3.8793450253888606 0 0 0
19 1 7.469109904552971 2.9432560168285344 0.22808556887291018 0 0 1
2 1 5.75656252385345 2.990272938501647 4.218949408924453 0 0 0
32 1 10.672755326419864 5.266920704147841 2.478939471792072 -1 0 1
1 1 10.059274469639341 3.328654229265321 3.7308662214820223 -1 0 0
31 1 8.060154330640366 5.35198312593967 1.4485249383403866 0 0 1
46 1 7.885689721954916 0.3765662206954611 4.569384282666701 0 1 0
3 1 7.9894944860754595 2.3645400745275995 2.8052567351770867 0 0 1
11 1 3.49173140364975 6.338039050284268 2.665204047040385 0 0 0
4 1 4.547264973123844 9.520630118368306 2.4252651539517047 0 0 0
6 1 1.7524183307478185 10.68187675228927 1.8421723109905495 0 -1 0
55 1 1.988847547294358 10.482425165224836 4.152337820223648 0 0 1
12 1 1.2305469287825856 8.24883398997547 2.0541973225341756 1 0 0
50 1 1.241164467920707 6.733041729625884 3.94017867148272 1 0 0
28 1 10.238233490193188 9.887583301155946 4.397638704911175 -1 -1 0
29 1 7.610848077769915 8.673056563906357 5.14264159902564 0 -1 0
58 1 5.923447600912289 5.891935375543118 3.5884034829579115 1 0 1
45 1 9.236492512459112 8.573361674111112 1.21366150768134 0 -1 0
16 1 5.501486261156376 8.098583587351555 4.237161722328248 0 0 0
26 1 9.385723950763175 7.643466993587136 4.054740361217359 -1 0 0
24 1 6.4788743410693534 7.2972205021110055 1.6004443192679014 0 0 0
25 1 7.435661043811337 10.028846509181225 2.4483158142958286 0 -1 0
43 1 4.211681323314142 4.2616658137189285 8.622340437117828 0 0 -1
8 1 4.451386023528829 0.728616460863011 10.47636029754667 0 0 -1
10 1 2.4443502359255147 2.8567785911617154 7.065530691285507 0 0 0
14 1 4.809502062310254 1.7529809353002264 7.118934089851146 0 0 0
56 1 0.20549977482597354 5.114591898971254 10.52992025469246 0 0 -1
5 1 0.5386404863488501 1.2812128654058699 8.316637470874674 0 0 0
64 1 0.50915115519137 4.465360856203896 6.493548632726019 1 0 -1
23 1 3.6297249297952057 4.994349665311828 6.542037109735975 1 1 -1
60 1 1.5980713434103717 3.694529362999713 9.131542982256384 0 0 0
21 1 2.927328327060715 1.5862795820358973 8.950086601113327 0 1 0
18 1 8.87539444267549 3.7335668863434295 7.046755887586295 -1 0 0
44 1 8.96030348517846 1.7183890191001314 9.07880052298773 0 0 -1
59 1 9.378942156301434 1.8245535913627828 5.873342860895595 -1 1 -1
49 1 6.138481986701198 2.0645785860159904 9.003980878781892 0 0 0
63 1 6.938200789199649 4.23526711154938 8.03641462250618 0 0 0
13 1 6.855557211849361 4.080721778179264 5.698923916776015 0 0 0
20 1 1.477207061338531 6.451164499518859 8.761761594285261 0 0 -1
53 1 0.532246504246163 8.432075086747734 7.677416078993233 0 0 -1
54 1 4.71368247164624 8.532136831653798 10.469909509291444 0 -1 0
41 1 0.5572795226662499 9.77585599699178 10.018754443638453 1 0 0
34 1 2.0237664931367716 6.804406367637976 6.174260754404321 1 0 0
15 1 2.9782089486901873 10.648428673946462 6.733088547552969 0 -1 0
33 1 2.8856859637254892 9.469100722206026 8.840893583544364 0 0 0
35 1 5.354235096708599 9.40195988133911 6.182159870796387 0 -1 0
22 1 0.4298953692859039 10.629722204224272 6.347260825775703 0 -1 0
39 1 3.7903216579344003 6.585028946350339 9.128777245457176 0 0 0
47 1 6.779917975984078 10.349584437361127 7.729070671557792 0 -1 0
27 1 7.974831298515327 7.958476856913659 7.366018694067251 0 0 0
42 1 6.9562122494073515 8.234040338668468 9.952903705574052 0 0 0
51 1 5.646528357790316 6.039319460629198 5.8349110224105285 0 0 0
52 1 6.87407184165447 10.56023705264396 10.408151899717204 0 -1 0
57 1 7.601562910482458 6.274662783701895 8.934333579571955 0 0 0
37 1 9.238586864736284 9.569773146036617 8.74901183887852 -1 0 0
30 1 9.782527829951277 6.678403717823549 6.192681284367768 -1 0 0
9 1 9.5615561874123 6.699289469189535 9.64287178797817 0 0 0

Velocities

48 1.6757091563981226 -4.019749245636542 -1.9444239771554372
40 -2.2044973180032 -4.741082597913325 2.7146312087076687
36 -1.9369146598815532 -1.4628626154145297 -15.092748453774432
17 -0.17051403937010556 4.552360512882593 8.602440664042717
7 -1.187952686762485 -6.608668892132107 -6.082816640307733
38 5.80782758206732 4.52416356688376 -10.144374513231899
61 -3.0011322611429554 -4.788506934102664 -5.202782262722876
62 4.948172454680838 -5.6330263638045075 8.707711274225723
19 15.431584785867067 -5.125121533769397 6.928323328519862
2 1.3108333852827507 -2.5879689657443556 -5.602579306166339
32 13.413517743437398 -2.2638792991592007 7.457920575405443
1 -10.503361773623665 5.069455446066436 -0.8462252848692936
31 -7.149646810076809 11.229108349382544 6.207326115688856
46 2.977410826346481 -3.3190191188361537 -2.876061806726696
3 -4.91265207209514 0.8105330074381152 5.952705558111279
11 -4.9283585973168815 2.634872039503894 -4.123716671771288
4 -10.98862550504003 12.903673837108125 -11.003117220234122
6 1.564254193682179 11.818783540270678 5.556766183122735
55 -11.430393611316394 2.926453988945028 6.211319098561131
12 -5.04169663180052 -9.101615941459247 9.828257187352678
50 -9.604445659756996 -6.610409813306673 -6.750710969461806
28 13.875054193534618 -2.9419308382719627 4.621574052098186
29 -1.447736201187741 -17.308354653558975 24.947412907526445
58 -12.091521449309788 4.452266000772285 7.787299410959258
45 5.382635616948968 -6.959140404461879 -4.3278384575596
16 -9.408947650324514 2.311678072089602 0.39686513297711956
26 0.7179337672182393 12.992902163214072 3.6222805324200094
24 -0.7840200396542002 -7.75536868614984 -3.97379996641016
25 0.7168930861161419 2.430797220395808 -2.068736108960412
43 2.04300959780747 -1.1555901539007727 0.007354091367686439
8 1.7371595058126221 -2.029939493716068 -2.5535978353285063
10 -0.7235134442408522 7.812573225854046 12.247165735305636
14 -15.453429194810276 -0.9843280710612955 5.549479847596923
56 -5.7022208441474245 -6.202550232451829 5.24988308573564
5 -3.8918421978634545 -4.778290815182364 -4.292676868331083
64 0.5808891996572654 1.7442009026731837 11.909393144639933
23 -0.823030836455739 2.8065795005177527 -0.6079978741972623
60 7.378277958716377 2.3334423380209675 5.621707867871553
21 5.659047644671833 2.6680311715823812 -10.199939030805833
18 12.838985014036457 3.555932888473511 0.9539499309943033
44 -3.3766361631228867 -2.8296208809416146 -14.2540386147554
59 7.992608963950886 -3.7910647132900115 -5.481737722085628
49 -6.527667727975803 0.49751046741151284 0.4521381526236003
63 0.7340380709751474 -17.295617331512855 13.807332687281237
13 -4.749649198918511 5.646959167689437 -11.856796423375904
20 -2.3093940934730823 4.328814367360663 -11.221983116067447
53 10.16418818828139 7.406161910078873 -1.755608696815173
54 7.263724538689894 -7.4691790219152425 6.641018296689429
41 12.459219136228223 5.070834441868119 -0.6140180251881521
34 -2.741068762687976 -1.3493822229709296 6.295791391828869
15 5.876087050567959 -7.247757911816347 -5.108782966694619
33 3.5483031398330915 8.621206368592935 -8.274921812463548
35 -3.582006979104133 7.0017496384714795 -8.61663045683778
22 0.8104927005372982 14.236485239902088 -13.483960663275234
39 -0.6074827401946049 -0.18595181164297842 7.790023520617526
47 1.48491241885655 -4.562857477630022 -5.743298931927749
27 -6.890942342719592 -7.297715430854716 -0.5575849949020447
42 -15.048772538932575 1.0802283181687067 8.655909085120351
51 8.383526089395643 4.756112587413174 -0.6385675030014194
52 -3.8712252657101645 -2.0459510835734145 -2.9788869440328476
57 3.2773642565297285 -11.618716143826582 3.064457941684923
37 -3.506319265991312 1.3478077624978562 -5.938737591956477
30 11.442528306517879 3.331133218710519 -4.509662785635011
9 5.101429990365562 9.168407439768554 0.940922487952067
