4.239604561192184 1.0722966204046074 5.345844093717284 3.6300548362432314 3.130190511706173 10.169655329739053 1.4625710985520073 2.8465755565999 8.5769608871305 8.061223977788895 2.508792088000114 8.828501542106649 10.32321064347027 2.4954251420008324 10.140893569046398 5.922831131311357 8.295724165466515 3.2596768289478195 5.1465290204492105 3.276759764700674 1.7650314302656864 10.157679225618967 8.10840643054569 5.403187124171707 8.092661251104122 5.153281504687132 8.924267906613016 10.422533741026486 1.0769150648126193 7.084555699414093 9.256742818421984 0.030043246301958645 10.007489536893127 2.7563407082695655 0.6077511859082227 10.291699050359972 0.3021662376674678 4.346433958050617 7.077399764860069 4.643490178951242 5.91410386394725 1.0110900223178274 0.8234346631851069 8.228666476084895 1.0394249750445006 7.80860037722742 0.3845614093291211 1.4857164061599764 4.191498419553786 3.7114350118464805 7.330214473466014 1.5252120686836665 2.3695804947176873 1.3679195309717123 2.824778622416799 1.0573678969974674 7.484502368034365 4.862277038528039 10.377984332437938 1.9268787097041633 0.899803561177823 6.186878746086672 4.4903383155361265 3.9849000063687083 7.361269530692302 8.534959585801545 2.3540051890934257 4.348610466334852 6.080261691499872 7.308438773510075 8.009221355466035 6.303390950531559 9.639946298924011 3.9539723545053995 5.234799702766942 9.72041340275924 4.594332943068262 0.5755898254467275 7.216112353804159 6.304707472615681 0.25811052486046443 5.930432984635808 1.4931908541214487 3.6004012380097192 7.525675534503954 3.488836608493876 6.130618661217577 3.6710475117819326 7.862418525972739 2.9540313631596495 8.402012089532283 10.288800578352184 7.59459121876236 4.781279079013729 9.518104303461145 10.16554650678296 7.1971820402881 9.771099502997977 4.575275224189224 0.8707126699641372 9.876123990547532 9.436639190949242 1.947688252324172 5.483017201192037 10.25523988232063 8.237648554174958 2.561951975703371 3.452812742111381 6.739828638531916 5.53290701791215 6.935003037503152 2.5545943159912965 0.6111412302748395 2.8286751031012596 9.085552479031666 7.593518890290615 2.2080304944594964 6.332630481335387 1.8251030589105894 0.15206785611843074 2.772956491024828 4.168735328034756 2.2854823380375398 3.6339725511548555 5.8564741714261235 4.348419358290383 6.784133853508089 8.335527724284072 8.765605761249029 10.265623419403472 1.4118000614046187 2.595300329463293 1.414157060619742 7.477505690184066 8.489305997400505 9.93513390783427 6.43914136478637 7.813218821635433 1.288482287153903 9.52565307121769 6.501166542330295 5.428445237382422 3.8750765834802534 4.77096986172596 1.320577821511192 9.136843754744554 3.0663285735126258 9.372257014190195 8.108905434884027 9.958948093597883 3.2449084239557626 7.657720576118774 0.3259018567905758 6.749362806528226 1.205382139150429 6.728999182678646 0.19126093090504429 1.8228522308312824 4.873807223877697 7.355408883995238 8.756910345225668 1.0220054767911084 2.737686439706629 2.717333432970631 4.50190035222653 8.587970833914659 6.223359148353177 4.483946813159981 4.675787438466583 7.765749706811933 6.04542694183852 6.304898580660151 5.8505604391611525 3.3109999560014534 9.6236490295762 9.589366369821093 3.4231272925371234 3.103934389818784 9.567473881615756 5.103752669828795 5.155128882450337 1.1445779296683931 8.482096977278573 0.7136271659670248 5.925814540227797 1.869970980906588 5.034465386595031 5.245629158620212 9.091657319341106 7.789563892575544 4.537032381068167 1.7920626014445347
4.268221131244722 1.103389762347361 5.335090627820144 3.688079723287347 3.219441905854005 10.232299022492212 1.4694098795040869 2.8113810176342335 8.572580339433538 8.105588057231198 2.4978481661683407 8.9712457523021 10.300976231584848 2.3940308176265415 10.19178700674055 5.94536125503937 8.33023015715394 3.22252064918943 5.187427727639361 3.3818084595505264 1.8490189327619988 10.162804353962237 8.13738404443671 5.35698155457065 8.01732367071146 5.139558576951665 8.947443881412365 10.503801719251387 0.9504250538158483 7.00329177958573 9.270669466206682 0.03825179348920725 10.042956307363568 2.643939845612425 0.5778450900834013 10.2954769590064 0.3867156421845796 4.3684289186346446 7.106780021081328 4.663096504903812 6.000630006088414 0.9167796973378167 0.6765251837975726 8.17480670049662 1.0746406694082882 7.836251097163149 0.4302235936923005 1.5244663034265504 4.123753754318983 3.639817767415477 7.26568564261458 1.5026709238830067 2.281232031630364 1.3123515039720917 2.892521829057178 1.1360456744155252 7.565311067289414 4.809432360543465 10.342783442808654 2.0020643256016126 0.9979958848906975 6.1835604419943095 4.435587988772227 4.025520609206265 7.34014876590655 8.43023623377361 2.443386258200304 4.366815232472629 6.066122308282336 7.301250436316904 8.068292797447238 6.410453209458809 9.571292828376446 3.878951193727373 5.2087453711480975 9.663018147059455 4.623614275716068 0.6922809182255187 7.25873192921905 6.325416195263101 0.22227252919009582 5.972294951046174 1.404915514805096 3.631462694984513 7.506167346180265 3.310593941295245 6.120032165721262 3.6812003243861215 7.891052728533715 2.8724887646642565 8.334911970295051 10.316677822595516 7.57275313307608 4.684923733516342 9.434118888248765 10.079051918882346 7.190160883689703 9.759297882607628 4.654072602024118 0.7906701237762739 9.688582333099813 9.282315609099651 1.9507448591069751 5.32763794567715 10.30968164377467 8.175592310864968 2.6352556661352606 3.4420668980742253 6.804872079795748 5.56034847640997 7.066257388973337 2.6372833901941095 0.4692100390394781 2.7001534523747552 9.009921138408835 7.693705280732969 2.2678978880810745 6.349610871337012 1.840281671503189 0.2641466234587756 2.7296350739005333 4.279187827332634 2.26918246719689 3.6391383206104173 5.963568306143693 4.328256626285511 6.7869198212433215 8.351696429651282 8.85620691512049 10.392956342819755 1.4671379792496697 2.573043818047016 1.4648342299262653 7.471324464708317 8.445014201783648 9.83217916880657 6.405569685547445 7.848725315849785 1.3570994458990457 9.624151666538797 6.4109415618499455 5.415413979805752 3.7967593630278524 4.791257158508127 1.4026011491253627 9.168529501964873 3.0183044188437855 9.35478285740176 8.123306755944387 9.813632394299717 3.1485458782885956 7.658246650593934 0.36382783957477643 6.7398681299929635 1.1848172153911898 6.7212470409918055 0.10918179339486944 1.8937562583326242 4.876920537727248 7.349947662798265 8.768483962773535 1.091149103499964 2.855385814618154 2.7083598958171127 4.373567235097906 8.575202579446813 6.260284849184368 4.459145683466394 4.737570244552111 7.7719478268780815 6.042776940714751 6.337688703179486 5.849835280790559 3.36978012782971 9.524941816643805 9.717140331624963 3.437703575622985 3.2105666319629176 9.66475922949742 5.011971206589118 5.118708053121407 1.1626077979508131 8.533098110245794 0.6940570346393691 6.065347314270315 1.8837874997396442 4.993021010541761 5.149750279027555 9.09442733478809 7.737688845004231 4.398451974333203 1.7825817748547916
4.31565925015196 1.1384992338865199 5.352323098197597 3.7366708416192678 3.312377962922414 10.288144350969885 1.4683444095176896 2.7765799009590935 8.573968428415418 8.140037595753219 2.4963362218918648 9.122058066030576 10.267913139232057 2.304649205746305 10.251195322607147 5.98288729782898 8.369023918324134 3.166630445413433 5.2329950381993475 3.4824432695664234 1.9287053141773662 10.179186644522453 8.146692878942945 5.306054550471893 7.970396868579047 5.092321245354942 8.985810514159244 10.591304706921674 0.7993207400596148 6.938148647019736 9.277719514160298 0.06067771348336542 10.073912164975875 2.5379874678830707 0.5461949517310026 10.289301330025197 0.4527726080849792 4.408100815222656 7.141352381284679 4.710305867367306 6.058133394371197 0.8236767413469287 0.5123856885477234 8.148189521574126 1.0687195980184812 7.878411726438429 0.49130425642154263 1.5620490985111557 4.1107784269811525 3.542839699151021 7.240905652475178 1.5021197063433815 2.189853531588586 1.227650308065963 2.957482598570744 1.2040649185164067 7.640403090133435 4.778058136266864 10.30208117206735 2.069931060332562 1.0997351282902197 6.183607242195366 4.367542861366285 4.0665160172504375 7.331500296852073 8.316439750984575 2.5025456966382604 4.423290145756145 6.005496154597908 7.284605494408357 8.114541598589387 6.524565785449571 9.494255043778185 3.837805671334917 5.176982391640838 9.649714816659735 4.645069231826544 0.7772999258564154 7.285369737454067 6.358066946352208 0.19986123238863568 6.026650826682634 1.3139460853107388 3.644462795256984 7.461538373977011 3.1499550867355066 6.11450693347907 3.66836661940892 7.923852344197948 2.7771955411903604 8.283683444886497 10.328999510455143 7.566483804434465 4.586360505634557 9.35231812701101 9.985589020762617 7.197386256816681 9.77335235827685 4.732054950709808 0.7243644190055639 9.506100810986693 9.134328412708923 1.9603470991671172 5.171367328152217 10.367890989892395 8.111505855380038 2.701333804416878 3.416198257784794 6.847670761997046 5.594694288555187 7.1693321683470685 2.72595941366754 0.36290930184488124 2.560522023244775 8.953139123955133 7.7661316856395075 2.3498350758239197 6.359425600655693 1.8652519124099283 0.3383590554501159 2.6857092799268028 4.389684680718388 2.254591286252287 3.6358119885590146 6.070594801810971 4.325987145755794 6.78864360120268 8.373439544810461 8.96203406384826 10.470745366460891 1.4974493321751527 2.5705527132197212 1.525535264105002 7.456698168020847 8.396876331545572 9.739003879166875 6.370878631854601 7.893112790581604 1.3990530400399654 9.720969866185463 6.357727282776338 5.4054167609009625 3.729251315383831 4.814709959000715 1.4897962872313049 9.194756685753758 2.9970215616995 9.334655621065709 8.132819744765955 9.657622609285486 3.0429929037963177 7.67720351568173 0.39824174387620787 6.711656728834124 1.1576371534895127 6.706805908391214 0.059586544245879204 1.9614934637356827 4.869671771371373 7.308870211109656 8.766292313765735 1.1467042321411587 2.9411044455217046 2.6992321360411746 4.226041138555694 8.572344411943284 6.307021879590816 4.427493482507551 4.788895527234504 7.777510415431192 6.040598262266846 6.375028896172277 5.841852612435213 3.4333512683662897 9.42270278862357 9.854033072033005 3.46781650683047 3.3273443892342383 9.726032976363292 4.909932519598856 5.087661485673459 1.1856381695253944 8.60966494734213 0.6752405743451922 6.141446500840353 1.9189187573975772 4.9419882695716995 5.052315244809362 9.082349271113884 7.6291729631561935 4.26225776733296 1.8097912191622094
4.384075629635373 1.1849481192087243 5.399469523846133 3.777248306633018 3.3999246244772534 10.348793115305792 1.4451215798114727 2.750148941421898 8.591454892855516 8.157981032038913 2.5067006143609154 9.283245045258493 10.23487967403846 2.2380478506491115 10.315555096109847 6.026237535887181 8.411670319675913 3.105154758198009 5.279284157500639 3.579443887797374 2.004734360220354 10.21537409316932 8.14154243314539 5.240156259424186 7.9658224070130546 4.997089978560857 9.062210095126579 0.04704686676228196 0.6491644091391077 6.888993361740567 9.27730210440609 0.08554332737316751 10.098404282320752 2.438717615967164 0.49949038253187233 10.26702461661334 0.5027462651274394 4.462978781845417 7.167887086028388 4.781403675196105 6.097298128650927 0.722777282751074 0.32384252068131714 8.178335604458397 1.0298225056088461 7.93511013767938 0.5526892543158304 1.6025140008507681 4.1456151279326585 3.423600876337456 7.251247443877737 1.5435727624681743 2.1094362431664595 1.1124654655981527 3.013962453296744 1.2596593756389474 7.703017072604242 4.815044965378465 10.245640641939064 2.1232111310707817 1.2051753428956569 6.19556890060318 4.296258066146724 4.105288029291345 7.328229752705128 8.20834745576304 2.5299417580515673 4.51353622866837 5.894792419105257 7.256532416278624 8.150318883297064 6.650978580601783 9.402984691040057 3.852299159683378 5.158653070591215 9.658499310510296 4.656357832224895 0.8415978951793907 7.298037490696039 6.405153077199839 0.19946101359825083 6.098645902737096 1.2146628234707448 3.6366234687130055 7.404511643503486 3.0469882246051037 6.105045176547811 3.646535445063265 7.957162693199551 2.6699829142807183 8.262725364562536 10.323822151331315 7.577578571040997 4.483598664124384 9.271093853694204 9.87925833838835 7.21396610242328 9.8103520616836 4.806247290438031 0.6628915412687233 9.36031225324092 8.994152809972173 1.972716766378027 5.01040853350687 10.433066139071759 8.050572988526088 2.7363952783063343 3.3999670740547705 6.860371734099615 5.639129226113707 7.221755599897681 2.791388705979831 0.3294522323502115 2.406965331984319 8.924959998619181 7.812653718936717 2.4578517630330294 6.356336063055091 1.9024733279814863 0.3776982996773535 2.637201228043082 4.495919653998743 2.236487828675356 3.628971932365535 6.182398919178477 4.343663631839026 6.790382993168177 8.401185274029173 9.089919056850913 10.491243285059042 1.4984488615674203 2.599527227996592 1.6045303557828337 7.409923964636926 8.337627644091587 9.662245485726187 6.3308026421785115 7.94711275572236 1.449292250802535 9.785190074610297 6.318810636529911 5.398026238210549 3.6690231087529868 4.840567773860664 1.549526315714958 9.189675564016268 2.998691217784941 9.308205396838591 8.141139162158975 9.492075741854222 2.928500841360297 7.705373024156444 0.42354702711421327 6.640132713546146 1.0954325726193874 6.6992225254500495 0.04543059909831562 2.003365361345425 4.856794124866603 7.236623564423071 8.765784695324164 1.1789202792012858 3.006459490470584 2.7014062140378052 4.063878466423343 8.586615641018561 6.360963067004462 4.392512483166912 4.83297991187947 7.787311321158965 6.0259828384220775 6.409843755515486 5.827531063529297 3.5031513846046365 9.323466019956015 10.001661695159116 3.5106967970083143 3.440103149597256 9.743833573714191 4.811001643119954 5.083994876132888 1.21173380262206 8.713837024837526 0.6602023605330104 6.134197423907729 1.9831699748416307 4.880374865177392 4.96807569232787 9.04701314637543 7.480761697118707 4.154338516112437 1.837896908183488
4.45957242613593 1.238003187553523 5.462109578402795 3.81214959061633 3.4575764287426445 10.425815518238169 1.3956065863238682 2.7415012004374715 8.625764634632239 8.151490136898575 2.5271189834606953 9.440223941130279 10.219391461166985 2.209896118743922 10.37974307782473 6.059947772270618 8.442090304011174 3.07456610880631 5.28430306435212 3.659915297062291 2.0767826307230517 10.27475903235016 8.127838485659154 5.158139702648801 7.996295407859655 4.8690356695984525 9.165879641984835 0.044112610900690484 0.5552408166131579 6.868136048763051 9.264284941937449 0.09540454312421241 10.112147298279227 2.3595944120080454 0.4216986490453736 10.218797251894035 0.5398104751002086 4.524893002641029 7.180573406656596 4.858743116120553 6.126891813396459 0.6144442208708257 0.1326434260424462 8.241035352156297 0.9811371297367344 7.997759709282284 0.6028868505119312 1.6447394348883961 4.196199776780329 3.3120057677495547 7.270543057109282 1.6085775562773859 2.0548817746628623 0.9984646965711769 3.0501398633360792 1.2967556294165405 7.747438442171855 4.9319263546123775 10.18190322257171 2.1597384895789435 1.299376516745449 6.224766569355367 4.245741974912608 4.133340924406026 7.322493924972987 8.12824169909437 2.543459738466844 4.6133134646320935 5.765612575442327 7.2161410759946545 8.176807696278232 6.781254164353735 9.309413014042093 3.9188207659908865 5.159317510314828 9.659190058212674 4.651257971061957 0.8915802425111511 7.297855461905274 6.460720705116234 0.21717606164763245 6.183617577203519 1.1129115247174899 3.6109460864432146 7.3501352670450775 3.017967675557739 6.0873768967452255 3.633886808731068 7.9794241088598 2.5701461013502627 8.280720042885516 10.305827688621589 7.604732718744778 4.382983095204511 9.194338021807232 9.762349032348897 7.233150316432873 9.85974629871347 4.872240155320437 0.6113946539950029 9.284668442175638 8.862503975503792 1.9742496984994038 4.8564193334281205 10.501099710945072 8.006046806463974 2.7193456832603027 3.4228894624341373 6.851742239357531 5.6915804665605725 7.235813647281279 2.8088166223589055 0.3750988479021886 2.245983721195813 8.922540333831579 7.84782797666093 2.5735628046697303 6.339162465278284 1.9473405071386283 0.38835714230490503 2.589001634886579 4.588059570531682 2.217207014977192 3.6315099716392645 6.2980028622465625 4.3809988606680506 6.793976609322807 8.43494918185589 9.233714997020101 10.47255644408368 1.477384637513732 2.640252184678592 1.7010619852602398 7.322854694888708 8.269355790540331 9.608735324411223 6.277523864089505 7.99988188525711 1.554918336753947 9.76745286556835 6.270955729447423 5.3907726330090675 3.6190209660274224 4.864685208850061 1.5682456018758453 9.153454301652237 3.0218830902312908 9.268805176763827 8.150291107472798 9.339654021683343 2.8134323551041494 7.727903812323595 0.42569258422999334 6.52742069600497 0.9927921201904708 6.708230089060021 0.06336074699234914 2.016099008722944 4.854700370888512 7.164964802361761 8.774285120230335 1.17048615891448 3.0599124837001463 2.7130746532546968 3.901196094519968 8.619928650701471 6.407814858063858 4.365751026288936 4.872112824761948 7.805522398602803 5.9857777219505 6.434310225109543 5.8080030405394485 3.5739141156825265 9.233290561825136 10.147110147464462 3.5585389507449228 3.534643249268398 9.725508057425943 4.7319537125046605 5.1190279994327845 1.2361356726956774 8.838173227952428 0.6460741926875982 6.076670518952236 2.048865405774235 4.821987028236592 4.923649868310562 8.979870917791462 7.359037795259465 4.115949692292339 1.824211857079308
4.522322609461139 1.2885952481423708 5.517197295545977 3.8618174079554155 3.474267970445431 10.524229922921727 1.3225701502342797 2.7536541429713552 8.672194558950329 8.122601178670939 2.54206965745769 9.588837841811042 10.228090161090002 2.222756508315309 10.444099235664357 6.088032947526802 8.427844771231848 3.1104224465123744 5.199857704114119 3.7176946424606006 2.154562662049007 10.362408801184156 8.109178864134316 5.057878264735033 8.045749143739116 4.748984651462187 9.273684018596214 10.5842642752128 0.5075449294673884 6.871079106015492 9.238488906091884 0.08402262794672326 10.114324108551138 2.3033540586869954 0.2950914419295739 10.133189622579687 0.5727593402223198 4.589625171600107 7.178603961521361 4.925649898129984 6.1526404362331215 0.4964526862922224 10.56510166647514 8.3043913090709 0.937924813505855 8.060243121333604 0.6452483271403406 1.6820016956319725 4.251085750568114 3.2296847511697937 7.280730267778271 1.6754231699302287 2.040075093788015 0.9057950817680321 3.060934956394741 1.3113123828640376 7.785579062760476 5.071120200341124 10.14313168480958 2.1767811020803807 1.3716756614401993 6.27821600345915 4.2311804050576765 4.152439696617934 7.305590728615666 8.07676370926524 2.5498365619958783 4.703210845208441 5.642125620727156 7.161722615728661 8.200206560900865 6.91410478620996 9.233268527631791 4.01819533020106 5.174275727554596 9.639439437087843 4.626401252377921 0.927991239696222 7.290131193216568 6.511870381649632 0.24335345939042438 6.276369772052531 1.0133560990966075 3.5751316241886184 7.299118308167176 3.0322653169655287 6.07299783314072 3.640036207604048 7.985354033586979 2.486767599461741 8.332657748537747 10.286660260886173 7.642782612931335 4.2839041053995555 9.123110053703561 9.637402216225366 7.250193175891789 9.911323538025716 4.9390616021412805 0.5836680213093565 9.271901450341549 8.72490764876688 1.943105502839247 4.71450044415466 10.56010410904688 7.977024771206545 2.665883877479703 3.482183422338174 6.842536792890184 5.742564853457327 7.247285891952631 2.8052955697300437 0.4562154521532665 2.083312984488992 8.935600850153213 7.898825199558398 2.6761124238933824 6.308922863750837 1.9959883610610067 0.3856522755818045 2.5518843933836792 4.6613417122744405 2.2079548254863854 3.6615013003373185 6.426773968539979 4.432907712544051 6.793558607988169 8.477724850786522 9.391184976049619 10.438995572982842 1.4435831915703887 2.6666478353031313 1.7989615162937813 7.209289600762398 8.199262224146905 9.574121043184721 6.198042874100479 8.046120512125505 1.710108977218939 9.681149412141963 6.213576683176855 5.374857098305827 3.583789812854139 4.883229017879062 1.55629880210204 9.106101381606955 3.060149777520662 9.216334129212465 8.163992837965298 9.212906929532362 2.69587983257459 7.736600877858462 0.3932260685590701 6.40615771783274 0.8686020073449315 6.742362823293147 0.10117135897762367 2.019310295726221 4.8781890183495 7.118198240843897 8.79502200011708 1.115548190610534 3.1112182359117786 2.730013892546379 3.7381729563386092 8.667175780471416 6.429522094599255 4.3627403085672265 4.910338910085441 7.835522805467102 5.916800289825608 6.446891524556924 5.785304049468011 3.6460948175648475 9.152395103601647 10.282246282350808 3.6082576842544953 3.61688404134404 9.68866166407234 4.674955016266919 5.182435221529823 1.2551933144180332 8.974499035996104 0.6173224855364384 6.011859986215805 2.086867510472999 4.771086375714981 4.928992213607482 8.880914202626137 7.320901716660209 4.147548244442928 1.7650502773538248
4.545247605083382 1.3274255954415115 5.537259236125254 3.9449024512632986 3.4628987467909997 0.01487332993237581 1.2378630207916457 2.7853111781751374 8.719489672855318 8.086004244078891 2.5215472734953908 9.718165438598625 10.254150756488443 2.2661772072692035 10.505997745133616 6.130706798295763 8.346616479958756 3.2143307670992396 5.045036484332123 3.760110665131455 2.23974351373214 10.475043476146217 8.092169629845666 4.945647494501478 8.101592801206932 4.691476548054371 9.366016855689171 10.504045196112815 0.4662092807627182 6.879042433877342 9.205918447662805 0.05889800451174761 10.106552906867 2.266410664217343 0.12421925860116864 10.016894827101986 0.6078401830233062 4.654791972158093 7.165366769090929 4.961681742166875 6.174140402329163 0.3739746852246017 10.416583733996204 8.353588353364557 0.9034412484215989 8.115345537788237 0.6861702949638258 1.6963194085402415 4.309668321051745 3.188883959752039 7.273075315618907 1.7326007406170059 2.070423556254266 0.8291308406608626 3.045520170235488 1.3023926435932847 7.832820183821647 5.172525201375191 10.151344805871394 2.160612219992324 1.4146005422126782 6.357297989824031 4.245138698250106 4.1754093525126335 7.2703693373563825 8.038782270477956 2.5513554811010155 4.764962428320997 5.542352842266478 7.096783484735233 8.224348709210444 7.045072770722342 9.190552735803445 4.131328436032119 5.197356531313661 9.605607354557023 4.584118186948602 0.9483169796937336 7.283665771720871 6.539744594795019 0.2690506433871595 6.360279871752539 0.9313807392741619 3.544205434820297 7.2565529306983105 3.0548160014432226 6.074783247536901 3.6628864579108305 7.97549421417324 2.4209591638856662 8.401924553308886 10.276976479008805 7.685445179468882 4.191560328652099 9.06610957076565 9.517551638390602 7.261009836071882 9.949234758859387 5.020300659508801 0.5910525061161869 9.301253775939394 8.578524122896928 1.8684302377163284 4.588893442706 10.59046671364226 7.958547362074207 2.6143994687781307 3.5583720269005785 6.845541361819329 5.779789170203771 7.276513499764234 2.8175070136594615 0.5192114361659983 1.9439747837983654 8.95562076421892 7.983060341628851 2.7499212271730875 6.264222949272612 2.047237036632233 0.39384399384716196 2.5420172031754373 4.7088903140496825 2.222117514147611 3.721600880367905 6.563079677929505 4.484633692002809 6.775546724095335 8.529795290812546 9.535740056986558 10.409919599294769 1.4109925711959772 2.668412917234033 1.8658197645689507 7.091138071262042 8.135815467468284 9.548017770122803 6.093809988810266 8.08536754331124 1.8571287990904861 9.5736555877003 6.166691003347621 5.3417814887762995 3.572719017531694 4.892652767273821 1.528410804430665 9.064708829076814 3.102717122529656 9.164883083187565 8.181742816174992 9.118212916918594 2.57972050029996 7.729600377705623 0.32824365258791965 6.325176436095933 0.7421935955096196 6.814067120538345 0.14635522195657386 2.027838886577736 4.927979048199106 7.100136775444872 8.832376718960209 1.051539969313596 3.1618029537678614 2.7512052403878546 3.578077915659441 8.716794306272254 6.411767740496751 4.393150403370524 4.952237347446688 7.880243779332339 5.837633434945053 6.450733827477119 5.761844820235415 3.7173455969040896 9.090696832076521 10.38631922417376 3.665210415712764 3.691240865430314 9.649773164473224 4.63640193165238 5.250987959308971 1.2655276691461717 9.098347852967818 0.5628318057579105 5.96416710083664 2.0893335690535624 4.727036285927796 4.975689159055243 8.770404510908643 7.3494051259810504 4.218015245548084 1.6921490185121137
4.525202471672315 1.3504478696803324 5.518870983555867 4.058837546521794 3.4445363513006506 0.09915561980610615 1.1516568482350718 2.8330692655800354 8.753216187555202 8.05578111365191 2.4525767968312744 9.824806788739782 10.27915593877945 2.324373146841107 10.56595295973361 6.193325356827538 8.223715369861086 3.353494564087067 4.878139328947779 3.80923423227119 2.329733541214764 10.599972888382268 8.088293763090547 4.832591898735178 8.159571086296706 4.7057363083201675 9.440248911980898 10.450773475875081 0.4212718016293896 6.876653571082135 9.174458268186083 0.03144906227776685 10.096891915432774 2.2411968095896615 10.540042617820545 9.886032045665042 0.6513823867160632 4.721732574302547 7.144248704072043 4.958025127078761 6.190480632684685 0.2465324982262487 10.293644925551812 8.389282560831996 0.8666770540467942 8.163296825752456 0.730163200581109 1.6752240808700285 4.369708576266952 3.179159678556473 7.2492912045110804 1.7833235982983995 2.1369504073249295 0.7521450633700342 3.00865667890487 1.2798074250136189 7.898896700102094 5.232180109024948 10.173179349815895 2.114256302036059 1.4425192771993511 6.452481849169808 4.2621822495240815 4.211072746733664 7.21765957038534 7.990076477665891 2.5548170316967562 4.7962367487752235 5.464534629498932 7.02470660221832 8.249965380328522 7.177621139538933 9.18177175674737 4.240018876351415 5.229611365582522 9.57602080194813 4.53139080814725 0.9539909788761631 7.283587113860164 6.539161018388197 0.2941911807971092 6.427325146861752 0.8721860534129886 3.5288696845654193 7.230365297247257 3.0735970606435554 6.094970081052667 3.6943625730400593 7.955897329382372 2.3618746781720605 8.468531480423533 10.278359840605146 7.731588707790037 4.1070174080307655 9.029610859031767 9.414402257921779 7.263950025560627 9.963264183215005 5.126553803258086 0.6329118476079418 9.350459652561556 8.421699678489718 1.7619457086577144 4.471704674358981 10.591948218785268 7.950823530351465 2.593167734413636 3.6436988852272534 6.864521034905717 5.797335510285627 7.327393742731618 2.860964545607702 0.5395040566203217 1.8378404012748444 8.97151692159211 8.096413964468464 2.8061186887192116 6.201233265358973 2.109076356581911 0.44251488531255917 2.554923178119997 4.74164564330251 2.2586685108550877 3.78526636990343 6.681312308392197 4.5142693900785185 6.726180401496059 8.584103706048051 9.612651932608513 10.398878489552683 1.392396936145073 2.649276733738692 1.8871454148701687 6.97551834968856 8.078740584998883 9.519593363353353 5.981987828155221 8.119787406866077 1.9673921108401693 9.463824032582668 6.139530349529129 5.29189808674019 3.593841910231077 4.891397017210548 1.4983629104663054 9.03376118418048 3.1429106750197597 9.12887899404651 8.19738044225506 9.0464244524731 2.4647199476500146 7.712482351606704 0.239243423342307 6.293134838600806 0.6166788751017352 6.9259798139621065 0.18965712172539467 2.043806920931179 4.9940299938420205 7.105961689209107 8.896174190375831 1.0605662336667971 3.2023208281076023 2.765676901464489 3.4266719082692334 8.761750359983756 6.369761941538298 4.4435015697039155 5.01393244819966 7.950133578600401 5.7802247068592205 6.451568989929937 5.734273920238303 3.7879306451267727 9.055510586302509 10.451909242603758 3.740578725719078 3.7671577900985596 9.622693384247086 4.604907820883787 5.305665277834514 1.262494943383054 9.183470099519223 0.48710699771599464 5.939582332070545 2.068602725400216 4.69235124434951 5.046402639069003 8.665942598366662 7.383513356698998 4.298972599819322 1.641925947899408