
     Program PWSCF v.7.1 starts on 11May2023 at  9:55:40 

     This program is part of the open-source Quantum ESPRESSO suite
     for quantum simulation of materials; please cite
         "P. Giannozzi et al., J. Phys.:Condens. Matter 21 395502 (2009);
         "P. Giannozzi et al., J. Phys.:Condens. Matter 29 465901 (2017);
         "P. Giannozzi et al., J. Chem. Phys. 152 154105 (2020);
          URL http://www.quantum-espresso.org", 
     in publications or presentations arising from this work. More details at
     http://www.quantum-espresso.org/quote

     Parallel version (MPI & OpenMP), running on       4 processor cores
     Number of MPI processes:                 4
     Threads/MPI process:                     1

     MPI processes distributed on     1 nodes
     917687 MiB available memory on the printing compute node when the environment starts
 
     Reading input from pw-si-77.in
Warning: card &CELL ignored
Warning: card / ignored

     Current dimensions of program PWSCF are:
     Max number of different atomic species (ntypx) = 10
     Max number of k-points (npk) =  40000
     Max angular momentum in pseudopotentials (lmaxx) =  4

     IMPORTANT: XC functional enforced from input :
     Exchange-correlation= PBE
                           (   1   4   3   4   0   0   0)
     Any further DFT definition will be discarded
     Please, verify this is what you really want


     gamma-point specific algorithms are used
 
     K-points division:     npool     =       2
     R & G space division:  proc/nbgrp/npool/nimage =       2
     Subspace diagonalization in iterative solution of the eigenvalue problem:
     a serial algorithm will be used

     Message from routine divide_et_impera:
     suboptimal parallelization: some nodes have no k-points
 
     Parallelization info
     --------------------
     sticks:   dense  smooth     PW     G-vecs:    dense   smooth      PW
     Min        2024    2024    542                97580    97580   13262
     Max        2025    2025    543                97587    97587   13267
     Sum        4049    4049   1085               195167   195167   26529
 
     Using Slab Decomposition
 


     bravais-lattice index     =            0
     lattice parameter (alat)  =      20.6336  a.u.
     unit-cell volume          =    8784.6200 (a.u.)^3
     number of atoms/cell      =           64
     number of atomic types    =            1
     number of electrons       =       256.00
     number of Kohn-Sham states=          154
     kinetic-energy cutoff     =      30.0000  Ry
     charge density cutoff     =     120.0000  Ry
     scf convergence threshold =      1.0E-06
     mixing beta               =       0.5000
     number of iterations used =            8  plain     mixing
     Exchange-correlation= PBE
                           (   1   4   3   4   0   0   0)

     GPU acceleration is ACTIVE.
     GPU-aware MPI enabled

     Message from routine print_cuda_info:
     High GPU oversubscription detected. Are you sure this is what you want?

     celldm(1)=  20.633568  celldm(2)=   0.000000  celldm(3)=   0.000000
     celldm(4)=   0.000000  celldm(5)=   0.000000  celldm(6)=   0.000000

     crystal axes: (cart. coord. in units of alat)
               a(1) = (   1.000000   0.000000   0.000000 )  
               a(2) = (   0.000000   1.000000   0.000000 )  
               a(3) = (   0.000000   0.000000   1.000000 )  

     reciprocal axes: (cart. coord. in units 2 pi/alat)
               b(1) = (  1.000000  0.000000  0.000000 )  
               b(2) = (  0.000000  1.000000  0.000000 )  
               b(3) = (  0.000000  0.000000  1.000000 )  


     PseudoPot. # 1 for Si read from file:
     /home/ppiaggi/pseudos/Si_ONCV_PBE_sr.upf
     MD5 check sum: 8553c464762ac42b85b1eed164b4d029
     Pseudo is Norm-conserving, Zval =  4.0
     Generated using ONCVPSP code by D. R. Hamann
     Using radial grid of 1510 points,  4 beta functions with: 
                l(1) =   0
                l(2) =   0
                l(3) =   1
                l(4) =   1

     atomic species   valence    mass     pseudopotential
        Si             4.00    28.08500     Si( 1.00)

     No symmetry found



   Cartesian axes

     site n.     atom                  positions (alat units)
         1           Si  tau(   1) = (   0.3788440   0.3607360   0.4178370  )
         2           Si  tau(   2) = (   0.5157340   0.7838030   0.6259720  )
         3           Si  tau(   3) = (   0.0658422   0.2296750   0.9175440  )
         4           Si  tau(   4) = (   0.3967260   0.0941947   0.9359140  )
         5           Si  tau(   5) = (   0.1301290   0.0523726   0.0167953  )
         6           Si  tau(   6) = (   0.7258970   0.7778650   0.5585510  )
         7           Si  tau(   7) = (   0.2709140   0.3425200   0.2372640  )
         8           Si  tau(   8) = (   0.2058080   0.7108460   0.4641260  )
         9           Si  tau(   9) = (   0.4811810   0.5117110   0.1421390  )
        10           Si  tau(  10) = (   0.9602540   0.8439300   0.3529320  )
        11           Si  tau(  11) = (   0.8867140   0.1251260   0.0508365  )
        12           Si  tau(  12) = (   0.3497730   0.8435120   0.8104210  )
        13           Si  tau(  13) = (   0.0275252   0.3025780   0.6987870  )
        14           Si  tau(  14) = (   0.5138280   0.6637930   0.8689670  )
        15           Si  tau(  15) = (   0.0009204   0.7459550   0.9501750  )
        16           Si  tau(  16) = (   0.6689650   0.1448110   0.0769939  )
        17           Si  tau(  17) = (   0.2423010   0.2828450   0.6875530  )
        18           Si  tau(  18) = (   0.3769830   0.0126826   0.3352220  )
        19           Si  tau(  19) = (   0.2484290   0.0297782   0.7341420  )
        20           Si  tau(  20) = (   0.4309680   0.1513760   0.1907750  )
        21           Si  tau(  21) = (   0.0250324   0.5442080   0.9001060  )
        22           Si  tau(  22) = (   0.2344540   0.4994340   0.5854950  )
        23           Si  tau(  23) = (   0.1746440   0.2917340   0.4636000  )
        24           Si  tau(  24) = (   0.6991810   0.6668130   0.1222440  )
        25           Si  tau(  25) = (   0.8065700   0.6309830   0.6651440  )
        26           Si  tau(  26) = (   0.0138295   0.2816700   0.1470530  )
        27           Si  tau(  27) = (   0.4288830   0.4838390   0.9290160  )
        28           Si  tau(  28) = (   0.7222070   0.1031080   0.3963750  )
        29           Si  tau(  29) = (   0.7706970   0.2452960   0.6758030  )
        30           Si  tau(  30) = (   0.2383560   0.5679380   0.2283210  )
        31           Si  tau(  31) = (   0.8415050   0.3339700   0.9020770  )
        32           Si  tau(  32) = (   0.3782420   0.8335840   0.4371730  )
        33           Si  tau(  33) = (   0.5844510   0.1843360   0.8858630  )
        34           Si  tau(  34) = (   0.9492690   0.9113840   0.5626840  )
        35           Si  tau(  35) = (   0.2819980   0.2358610   0.0314373  )
        36           Si  tau(  36) = (   0.6370660   0.3546920   0.4831580  )
        37           Si  tau(  37) = (   0.7322070   0.4622420   0.0447169  )
        38           Si  tau(  38) = (   0.3075980   0.9315100   0.0196822  )
        39           Si  tau(  39) = (   0.7404810   0.8383080   0.3493630  )
        40           Si  tau(  40) = (   0.5985170   0.3263310   0.1765880  )
        41           Si  tau(  41) = (   0.9403310   0.4832100   0.1280070  )
        42           Si  tau(  42) = (   0.6413120   0.5414760   0.2819560  )
        43           Si  tau(  43) = (   0.5360300   0.7977570   0.0287805  )
        44           Si  tau(  44) = (   0.0236795   0.9383810   0.1662790  )
        45           Si  tau(  45) = (   0.1641830   0.6846510   0.7058600  )
        46           Si  tau(  46) = (   0.8181190   0.5221460   0.8276460  )
        47           Si  tau(  47) = (   0.3462200   0.7396200   0.1212020  )
        48           Si  tau(  48) = (   0.4686160   0.5319030   0.5202380  )
        49           Si  tau(  49) = (   0.0134474   0.6768260   0.1959870  )
        50           Si  tau(  50) = (   0.7393980   0.9999880   0.6010840  )
        51           Si  tau(  51) = (   0.2169650   0.4604810   0.8399000  )
        52           Si  tau(  52) = (   0.8548770   0.8221170   0.1137520  )
        53           Si  tau(  53) = (   0.0743655   0.1057590   0.6301570  )
        54           Si  tau(  54) = (   0.6732080   0.9629630   0.1908990  )
        55           Si  tau(  55) = (   0.2024870   0.9186100   0.5168560  )
        56           Si  tau(  56) = (   0.8290640   0.5340250   0.3644970  )
        57           Si  tau(  57) = (   0.7333610   0.8346670   0.7638390  )
        58           Si  tau(  58) = (   0.5600300   0.7107070   0.4154440  )
        59           Si  tau(  59) = (   0.9305530   0.1848870   0.3150640  )
        60           Si  tau(  60) = (   0.4714340   0.1744110   0.4734870  )
        61           Si  tau(  61) = (   0.5148190   0.3571920   0.7856800  )
        62           Si  tau(  62) = (   0.0203484   0.8585370   0.7768410  )
        63           Si  tau(  63) = (   0.6564920   0.4768270   0.6766710  )
        64           Si  tau(  64) = (   0.9599650   0.4044220   0.4989200  )

     number of k points=     1  Fermi-Dirac smearing, width (Ry)=  0.0100
                       cart. coord. in units 2pi/alat
        k(    1) = (   0.0000000   0.0000000   0.0000000), wk =   2.0000000

     Dense  grid:    97584 G-vectors     FFT dimensions: (  72,  72,  72)

     Estimated max dynamical RAM per process >     155.34 MB

     Estimated total dynamical RAM >     597.52 MB

     Initial potential from superposition of free atoms

     starting charge     255.9608, renormalised to     256.0000
     Starting wfcs are  256 randomized atomic wfcs

     total cpu time spent up to now is        4.2 secs

     Self-consistent Calculation

     iteration #  1     ecut=    30.00 Ry     beta= 0.50
     Davidson diagonalization with overlap
     ethr =  1.00E-02,  avg # of iterations =  3.0

     Threshold (ethr) on eigenvalues was too large:
     Diagonalizing with lowered threshold

     Davidson diagonalization with overlap
     ethr =  7.00E-04,  avg # of iterations =  4.0

     total cpu time spent up to now is        4.4 secs

     total energy              =    -500.09765415 Ry
     estimated scf accuracy    <       2.23995624 Ry

     iteration #  2     ecut=    30.00 Ry     beta= 0.50
     Davidson diagonalization with overlap
     ethr =  8.75E-04,  avg # of iterations =  5.0

     total cpu time spent up to now is        4.5 secs

     total energy              =    -499.00710440 Ry
     estimated scf accuracy    <      16.29803056 Ry

     iteration #  3     ecut=    30.00 Ry     beta= 0.50
     Davidson diagonalization with overlap
     ethr =  8.75E-04,  avg # of iterations =  4.0

     total cpu time spent up to now is        4.6 secs

     total energy              =    -500.41777755 Ry
     estimated scf accuracy    <       4.04693360 Ry

     iteration #  4     ecut=    30.00 Ry     beta= 0.50
     Davidson diagonalization with overlap
     ethr =  8.75E-04,  avg # of iterations =  2.0

     total cpu time spent up to now is        4.7 secs

     total energy              =    -500.74829865 Ry
     estimated scf accuracy    <       0.67006557 Ry

     iteration #  5     ecut=    30.00 Ry     beta= 0.50
     Davidson diagonalization with overlap
     ethr =  2.62E-04,  avg # of iterations =  2.0

     total cpu time spent up to now is        4.7 secs

     total energy              =    -500.77186718 Ry
     estimated scf accuracy    <       0.62432116 Ry

     iteration #  6     ecut=    30.00 Ry     beta= 0.50
     Davidson diagonalization with overlap
     ethr =  2.44E-04,  avg # of iterations =  2.0

     total cpu time spent up to now is        4.8 secs

     total energy              =    -500.82737718 Ry
     estimated scf accuracy    <       0.16161713 Ry

     iteration #  7     ecut=    30.00 Ry     beta= 0.50
     Davidson diagonalization with overlap
     ethr =  6.31E-05,  avg # of iterations =  2.0

     total cpu time spent up to now is        4.9 secs

     total energy              =    -500.84156813 Ry
     estimated scf accuracy    <       0.03393344 Ry

     iteration #  8     ecut=    30.00 Ry     beta= 0.50
     Davidson diagonalization with overlap
     ethr =  1.33E-05,  avg # of iterations = 11.0

     total cpu time spent up to now is        5.1 secs

     total energy              =    -500.84408585 Ry
     estimated scf accuracy    <       0.04515331 Ry

     iteration #  9     ecut=    30.00 Ry     beta= 0.50
     Davidson diagonalization with overlap
     ethr =  1.33E-05,  avg # of iterations =  2.0

     total cpu time spent up to now is        5.1 secs

     total energy              =    -500.84776663 Ry
     estimated scf accuracy    <       0.00414828 Ry

     iteration # 10     ecut=    30.00 Ry     beta= 0.50
     Davidson diagonalization with overlap
     ethr =  1.62E-06,  avg # of iterations = 15.0

     total cpu time spent up to now is        5.3 secs

     total energy              =    -500.84821528 Ry
     estimated scf accuracy    <       0.00238874 Ry

     iteration # 11     ecut=    30.00 Ry     beta= 0.50
     Davidson diagonalization with overlap
     ethr =  9.33E-07,  avg # of iterations =  3.0

     total cpu time spent up to now is        5.4 secs

     total energy              =    -500.84839194 Ry
     estimated scf accuracy    <       0.00182298 Ry

     iteration # 12     ecut=    30.00 Ry     beta= 0.50
     Davidson diagonalization with overlap
     ethr =  7.12E-07,  avg # of iterations =  2.0

     total cpu time spent up to now is        5.5 secs

     total energy              =    -500.84851637 Ry
     estimated scf accuracy    <       0.00047323 Ry

     iteration # 13     ecut=    30.00 Ry     beta= 0.50
     Davidson diagonalization with overlap
     ethr =  1.85E-07,  avg # of iterations =  2.0

     total cpu time spent up to now is        5.6 secs

     total energy              =    -500.84856433 Ry
     estimated scf accuracy    <       0.00044667 Ry

     iteration # 14     ecut=    30.00 Ry     beta= 0.50
     Davidson diagonalization with overlap
     ethr =  1.74E-07,  avg # of iterations =  1.0

     total cpu time spent up to now is        5.6 secs

     total energy              =    -500.84859481 Ry
     estimated scf accuracy    <       0.00003631 Ry

     iteration # 15     ecut=    30.00 Ry     beta= 0.50
     Davidson diagonalization with overlap
     ethr =  1.42E-08,  avg # of iterations =  4.0

     total cpu time spent up to now is        5.7 secs

     total energy              =    -500.84859827 Ry
     estimated scf accuracy    <       0.00005652 Ry

     iteration # 16     ecut=    30.00 Ry     beta= 0.50
     Davidson diagonalization with overlap
     ethr =  1.42E-08,  avg # of iterations =  2.0

     total cpu time spent up to now is        5.8 secs

     total energy              =    -500.84860321 Ry
     estimated scf accuracy    <       0.00002088 Ry

     iteration # 17     ecut=    30.00 Ry     beta= 0.50
     Davidson diagonalization with overlap
     ethr =  8.16E-09,  avg # of iterations =  2.0

     total cpu time spent up to now is        5.9 secs

     total energy              =    -500.84860422 Ry
     estimated scf accuracy    <       0.00000417 Ry

     iteration # 18     ecut=    30.00 Ry     beta= 0.50
     Davidson diagonalization with overlap
     ethr =  1.63E-09,  avg # of iterations =  5.0

     total cpu time spent up to now is        6.0 secs

     total energy              =    -500.84860451 Ry
     estimated scf accuracy    <       0.00001213 Ry

     iteration # 19     ecut=    30.00 Ry     beta= 0.50
     Davidson diagonalization with overlap
     ethr =  1.63E-09,  avg # of iterations =  3.0

     total cpu time spent up to now is        6.1 secs

     End of self-consistent calculation

          k = 0.0000 0.0000 0.0000 ( 12152 PWs)   bands (ev):

    -6.4014  -5.8500  -5.5685  -5.3992  -5.3807  -5.1613  -4.8631  -4.7241
    -4.6094  -4.3720  -4.2734  -4.1099  -3.9673  -3.8576  -3.6909  -3.5063
    -3.4421  -3.3645  -3.2800  -3.1173  -3.0450  -2.7776  -2.6544  -2.4748
    -2.4543  -2.2799  -2.0626  -1.9699  -1.7732  -1.6112  -1.5465  -1.4608
    -1.3124  -1.2188  -1.1282  -1.0685  -0.9075  -0.8068  -0.7590  -0.6164
    -0.4882  -0.3909  -0.3302  -0.3020  -0.2117  -0.1344  -0.0361   0.0635
     0.1359   0.1573   0.3309   0.4391   0.5460   0.6496   0.7818   0.8831
     0.9306   1.0424   1.1829   1.3228   1.3993   1.4893   1.5825   1.7611
     1.8518   1.9727   1.9815   2.0284   2.0999   2.2590   2.3172   2.3574
     2.5639   2.5718   2.6056   2.7161   2.8839   2.9409   2.9931   3.0682
     3.1633   3.1886   3.3049   3.4273   3.5365   3.6050   3.6516   3.7955
     3.8485   3.9310   3.9950   4.0131   4.0359   4.1443   4.1819   4.2302
     4.2466   4.3619   4.4376   4.5001   4.5647   4.5936   4.5968   4.7783
     4.8762   4.8976   4.9519   5.0072   5.0653   5.1054   5.2044   5.2347
     5.3931   5.4362   5.4428   5.5280   5.5906   5.6386   5.6992   5.7171
     5.8306   5.8816   5.9397   5.9630   6.0425   6.0973   6.1442   6.1880
     6.2243   6.3214   6.3472   6.4663   6.5437   6.5948   6.6471   6.7092
     6.7320   6.7841   6.8384   6.9566   6.9879   7.0236   7.0819   7.1470
     7.2811   7.4060   7.4346   7.4446   7.4515   7.5250   7.5789   7.6460
     7.6814   7.7922

     the Fermi energy is     6.2350 ev

!    total energy              =    -500.84860466 Ry
     estimated scf accuracy    <       0.00000087 Ry
     smearing contrib. (-TS)   =      -0.15195583 Ry
     internal energy E=F+TS    =    -500.69664884 Ry

     The total energy is F=E-TS. E is the sum of the following terms:
     one-electron contribution =     124.00303734 Ry
     hartree contribution      =      47.68809599 Ry
     xc contribution           =    -150.62645527 Ry
     ewald contribution        =    -521.76132689 Ry

     convergence has been achieved in  19 iterations

     Forces acting on atoms (cartesian axes, Ry/au):

     atom    1 type  1   force =     0.02400675    0.00362105   -0.01495715
     atom    2 type  1   force =    -0.03236683   -0.00742525    0.04781325
     atom    3 type  1   force =    -0.02063626    0.01966352    0.02324321
     atom    4 type  1   force =     0.03780513    0.01263341   -0.04710831
     atom    5 type  1   force =     0.01586984   -0.00385584   -0.00088758
     atom    6 type  1   force =    -0.02243855    0.03338511   -0.08075939
     atom    7 type  1   force =    -0.03128694    0.00675021   -0.04453829
     atom    8 type  1   force =    -0.02169000   -0.05406101   -0.00722375
     atom    9 type  1   force =    -0.04229504   -0.02160082   -0.02047241
     atom   10 type  1   force =     0.00972013   -0.01938350    0.00307128
     atom   11 type  1   force =     0.01428074    0.01087783    0.00672753
     atom   12 type  1   force =    -0.02275456   -0.03574278   -0.00631827
     atom   13 type  1   force =    -0.06528364    0.03143531    0.00895177
     atom   14 type  1   force =     0.02248697    0.04515430   -0.05432206
     atom   15 type  1   force =    -0.02605082    0.01694219    0.06214738
     atom   16 type  1   force =     0.01927207    0.00574201    0.00603702
     atom   17 type  1   force =     0.03242498   -0.00378910    0.01429285
     atom   18 type  1   force =    -0.01446123    0.03324955    0.01975818
     atom   19 type  1   force =     0.00882492    0.00134516    0.01839179
     atom   20 type  1   force =     0.02784758    0.02546907   -0.03323335
     atom   21 type  1   force =    -0.00635339   -0.03323495    0.02440709
     atom   22 type  1   force =     0.01810497    0.01766452   -0.00247842
     atom   23 type  1   force =    -0.04625480    0.00746631    0.01273082
     atom   24 type  1   force =    -0.00767671    0.01893634   -0.03555811
     atom   25 type  1   force =     0.04470130   -0.00653352   -0.04869013
     atom   26 type  1   force =     0.03404447    0.01798823   -0.02358535
     atom   27 type  1   force =    -0.05053208   -0.01656172    0.01815218
     atom   28 type  1   force =    -0.00511807   -0.00973871   -0.01110257
     atom   29 type  1   force =     0.00930655    0.00224517    0.01139162
     atom   30 type  1   force =    -0.01247795    0.03792070    0.01117418
     atom   31 type  1   force =     0.00508084   -0.09632360   -0.00320843
     atom   32 type  1   force =     0.07788466   -0.04856669    0.01341708
     atom   33 type  1   force =     0.02214205   -0.01478776   -0.01769070
     atom   34 type  1   force =     0.00250166    0.03440563    0.02300018
     atom   35 type  1   force =    -0.05609072    0.03644558    0.02700882
     atom   36 type  1   force =    -0.00101605   -0.01438097    0.00424330
     atom   37 type  1   force =     0.01478054    0.02005045   -0.00887527
     atom   38 type  1   force =    -0.01472990   -0.05773939   -0.00275981
     atom   39 type  1   force =     0.00851773   -0.00332888   -0.01328345
     atom   40 type  1   force =    -0.01575635   -0.00559094    0.01090849
     atom   41 type  1   force =    -0.02505613   -0.01370858   -0.03315577
     atom   42 type  1   force =    -0.03849089    0.00119060    0.04042017
     atom   43 type  1   force =     0.01826346    0.01078873    0.04850137
     atom   44 type  1   force =    -0.00612981    0.04787591    0.00950588
     atom   45 type  1   force =     0.02019563    0.02452387    0.01929815
     atom   46 type  1   force =     0.00918749    0.02257861    0.08010405
     atom   47 type  1   force =     0.00011861   -0.00961032   -0.00142232
     atom   48 type  1   force =     0.00269411    0.00503676    0.03946378
     atom   49 type  1   force =     0.02985483   -0.00534522    0.02054302
     atom   50 type  1   force =     0.03403303    0.02727611   -0.02712459
     atom   51 type  1   force =     0.01664838    0.01059713   -0.00994607
     atom   52 type  1   force =    -0.02340154   -0.01484724   -0.01722414
     atom   53 type  1   force =    -0.00311600   -0.04591843   -0.02410730
     atom   54 type  1   force =    -0.01456774    0.00511697   -0.01252708
     atom   55 type  1   force =    -0.04872700    0.04975203    0.02738899
     atom   56 type  1   force =     0.07820657   -0.00422374    0.01007804
     atom   57 type  1   force =    -0.02248481    0.00285604    0.03287980
     atom   58 type  1   force =     0.01364519   -0.02174652   -0.01419636
     atom   59 type  1   force =    -0.00858122   -0.03193441    0.03354309
     atom   60 type  1   force =     0.02668167   -0.01351512   -0.01875581
     atom   61 type  1   force =    -0.01089117   -0.00555291   -0.01346073
     atom   62 type  1   force =     0.02850666    0.00978262   -0.05899794
     atom   63 type  1   force =    -0.04502411   -0.01967915   -0.02422235
     atom   64 type  1   force =     0.03410080   -0.01803994    0.00359889

     Total force =     0.395926     Total SCF correction =     0.001710


     Computing stress (Cartesian axis) and pressure

          total   stress  (Ry/bohr**3)                   (kbar)     P=       -6.29
  -0.00002115  -0.00004332   0.00001781           -3.11       -6.37        2.62
  -0.00004332   0.00003512  -0.00004159           -6.37        5.17       -6.12
   0.00001781  -0.00004159  -0.00014222            2.62       -6.12      -20.92

 
     init_run     :      0.98s CPU      4.10s WALL (       1 calls)
     electrons    :      1.78s CPU      1.91s WALL (       1 calls)
     forces       :      0.03s CPU      0.03s WALL (       1 calls)
     stress       :      0.15s CPU      0.15s WALL (       1 calls)

     Called by init_run:
     wfcinit      :      0.48s CPU      3.44s WALL (       1 calls)
                                        3.44s GPU  (       1 calls)
     potinit      :      0.03s CPU      0.12s WALL (       1 calls)
     hinit0       :      0.45s CPU      0.48s WALL (       1 calls)

     Called by electrons:
     c_bands      :      1.16s CPU      1.21s WALL (      20 calls)
     sum_band     :      0.32s CPU      0.37s WALL (      20 calls)
     v_of_rho     :      0.13s CPU      0.22s WALL (      20 calls)
     mix_rho      :      0.15s CPU      0.17s WALL (      20 calls)

     Called by c_bands:
     init_us_2    :      0.05s CPU      0.05s WALL (      41 calls)
     init_us_2:gp :      0.05s CPU      0.05s WALL (      41 calls)
     regterg      :      1.01s CPU      1.06s WALL (      20 calls)

     Called by *egterg:
     rdiaghg      :      0.43s CPU      1.04s WALL (      95 calls)
                                        1.02s GPU  (      95 calls)
     h_psi        :      0.88s CPU      3.27s WALL (      97 calls)
                                        3.27s GPU  (      97 calls)
     g_psi        :      0.00s CPU      0.00s WALL (      76 calls)
                                        0.00s GPU  (      76 calls)

     Called by h_psi:
     h_psi:calbec :      0.46s CPU      2.78s WALL (      97 calls)
                                        2.78s GPU  (      97 calls)
     vloc_psi     :      0.37s CPU      0.43s WALL (      97 calls)
                                        0.43s GPU  (      97 calls)
     add_vuspsi   :      0.03s CPU      0.05s WALL (      97 calls)
                                        0.05s GPU  (      97 calls)

     General routines
     calbec       :      0.47s CPU      2.79s WALL (     102 calls)
     fft          :      0.56s CPU      0.68s WALL (     167 calls)
                                        0.12s GPU  (     106 calls)
     ffts         :      0.03s CPU      0.04s WALL (      20 calls)
     fftw         :      0.45s CPU      0.58s WALL (    2118 calls)
                                        0.51s GPU  (    2118 calls)
 
     Parallel routines
 
     PWSCF        :      2.97s CPU      6.28s WALL

 
   This run was terminated on:   9:55:46  11May2023            

=------------------------------------------------------------------------------=
   JOB DONE.
=------------------------------------------------------------------------------=
