An instance of this daemon is already running

     Program PWSCF v.7.1 starts on 11May2023 at  9:52:23 

     This program is part of the open-source Quantum ESPRESSO suite
     for quantum simulation of materials; please cite
         "P. Giannozzi et al., J. Phys.:Condens. Matter 21 395502 (2009);
         "P. Giannozzi et al., J. Phys.:Condens. Matter 29 465901 (2017);
         "P. Giannozzi et al., J. Chem. Phys. 152 154105 (2020);
          URL http://www.quantum-espresso.org", 
     in publications or presentations arising from this work. More details at
     http://www.quantum-espresso.org/quote

     Parallel version (MPI & OpenMP), running on       4 processor cores
     Number of MPI processes:                 4
     Threads/MPI process:                     1

     MPI processes distributed on     1 nodes
     917650 MiB available memory on the printing compute node when the environment starts
 
     Reading input from pw-si-54.in
Warning: card &CELL ignored
Warning: card / ignored

     Current dimensions of program PWSCF are:
     Max number of different atomic species (ntypx) = 10
     Max number of k-points (npk) =  40000
     Max angular momentum in pseudopotentials (lmaxx) =  4

     IMPORTANT: XC functional enforced from input :
     Exchange-correlation= PBE
                           (   1   4   3   4   0   0   0)
     Any further DFT definition will be discarded
     Please, verify this is what you really want


     gamma-point specific algorithms are used
 
     K-points division:     npool     =       2
     R & G space division:  proc/nbgrp/npool/nimage =       2
     Subspace diagonalization in iterative solution of the eigenvalue problem:
     a serial algorithm will be used

     Message from routine divide_et_impera:
     suboptimal parallelization: some nodes have no k-points
 
     Parallelization info
     --------------------
     sticks:   dense  smooth     PW     G-vecs:    dense   smooth      PW
     Min        2003    2003    528                95853    95853   12909
     Max        2006    2006    529                95858    95858   12912
     Sum        4009    4009   1057               191711   191711   25821
 
     Using Slab Decomposition
 


     bravais-lattice index     =            0
     lattice parameter (alat)  =      20.5051  a.u.
     unit-cell volume          =    8621.5524 (a.u.)^3
     number of atoms/cell      =           64
     number of atomic types    =            1
     number of electrons       =       256.00
     number of Kohn-Sham states=          154
     kinetic-energy cutoff     =      30.0000  Ry
     charge density cutoff     =     120.0000  Ry
     scf convergence threshold =      1.0E-06
     mixing beta               =       0.5000
     number of iterations used =            8  plain     mixing
     Exchange-correlation= PBE
                           (   1   4   3   4   0   0   0)

     GPU acceleration is ACTIVE.
     GPU-aware MPI enabled

     Message from routine print_cuda_info:
     High GPU oversubscription detected. Are you sure this is what you want?

     celldm(1)=  20.505097  celldm(2)=   0.000000  celldm(3)=   0.000000
     celldm(4)=   0.000000  celldm(5)=   0.000000  celldm(6)=   0.000000

     crystal axes: (cart. coord. in units of alat)
               a(1) = (   1.000000   0.000000   0.000000 )  
               a(2) = (   0.000000   1.000000   0.000000 )  
               a(3) = (   0.000000   0.000000   1.000000 )  

     reciprocal axes: (cart. coord. in units 2 pi/alat)
               b(1) = (  1.000000  0.000000  0.000000 )  
               b(2) = (  0.000000  1.000000  0.000000 )  
               b(3) = (  0.000000  0.000000  1.000000 )  


     PseudoPot. # 1 for Si read from file:
     /home/ppiaggi/pseudos/Si_ONCV_PBE_sr.upf
     MD5 check sum: 8553c464762ac42b85b1eed164b4d029
     Pseudo is Norm-conserving, Zval =  4.0
     Generated using ONCVPSP code by D. R. Hamann
     Using radial grid of 1510 points,  4 beta functions with: 
                l(1) =   0
                l(2) =   0
                l(3) =   1
                l(4) =   1

     atomic species   valence    mass     pseudopotential
        Si             4.00    28.08500     Si( 1.00)

     No symmetry found



   Cartesian axes

     site n.     atom                  positions (alat units)
         1           Si  tau(   1) = (   0.4010550   0.2782380   0.3654170  )
         2           Si  tau(   2) = (   0.4699370   0.6722140   0.7273280  )
         3           Si  tau(   3) = (   0.1266940   0.2706490   0.9580520  )
         4           Si  tau(   4) = (   0.4386860   0.1188690   0.8834870  )
         5           Si  tau(   5) = (   0.1330250   0.9720250   0.1394080  )
         6           Si  tau(   6) = (   0.7655910   0.7219150   0.6072630  )
         7           Si  tau(   7) = (   0.2570160   0.4163180   0.2186730  )
         8           Si  tau(   8) = (   0.1741370   0.8623830   0.3481860  )
         9           Si  tau(   9) = (   0.5717260   0.5038850   0.0683536  )
        10           Si  tau(  10) = (   0.9488960   0.9890650   0.5323100  )
        11           Si  tau(  11) = (   0.9676300   0.1325550   0.0268304  )
        12           Si  tau(  12) = (   0.2463020   0.7687300   0.7213970  )
        13           Si  tau(  13) = (   0.1098040   0.3990150   0.6319050  )
        14           Si  tau(  14) = (   0.4051640   0.7204960   0.9526890  )
        15           Si  tau(  15) = (   0.9830830   0.9098960   0.0174397  )
        16           Si  tau(  16) = (   0.7401340   0.1146650   0.0767924  )
        17           Si  tau(  17) = (   0.3727340   0.2204780   0.6766450  )
        18           Si  tau(  18) = (   0.3191060   0.0476450   0.2613610  )
        19           Si  tau(  19) = (   0.2356660   0.9843020   0.7441900  )
        20           Si  tau(  20) = (   0.5199840   0.0276910   0.0450937  )
        21           Si  tau(  21) = (   0.0695382   0.5865210   0.0873785  )
        22           Si  tau(  22) = (   0.2478140   0.6325940   0.5739790  )
        23           Si  tau(  23) = (   0.2890530   0.3781460   0.5408040  )
        24           Si  tau(  24) = (   0.7352030   0.6434720   0.9793620  )
        25           Si  tau(  25) = (   0.9272840   0.5297470   0.5885340  )
        26           Si  tau(  26) = (   0.8602300   0.2509530   0.1970020  )
        27           Si  tau(  27) = (   0.3713850   0.5111180   0.9706490  )
        28           Si  tau(  28) = (   0.6191580   0.0769605   0.3978280  )
        29           Si  tau(  29) = (   0.7553900   0.3857550   0.6198840  )
        30           Si  tau(  30) = (   0.2266550   0.6563440   0.2119490  )
        31           Si  tau(  31) = (   0.9369780   0.2976240   0.7974250  )
        32           Si  tau(  32) = (   0.4363030   0.7163160   0.5048620  )
        33           Si  tau(  33) = (   0.7010370   0.0804391   0.7965520  )
        34           Si  tau(  34) = (   0.9401880   0.8437640   0.6761460  )
        35           Si  tau(  35) = (   0.3590260   0.2369270   0.0638748  )
        36           Si  tau(  36) = (   0.6239030   0.2870880   0.4277140  )
        37           Si  tau(  37) = (   0.7453900   0.3615080   0.0002318  )
        38           Si  tau(  38) = (   0.2927060   0.9061310   0.9261660  )
        39           Si  tau(  39) = (   0.7754360   0.8033680   0.3724420  )
        40           Si  tau(  40) = (   0.5376060   0.2557660   0.1565310  )
        41           Si  tau(  41) = (   0.8478060   0.5290000   0.1499500  )
        42           Si  tau(  42) = (   0.4723890   0.4978420   0.2506910  )
        43           Si  tau(  43) = (   0.5612150   0.8137740   0.0677537  )
        44           Si  tau(  44) = (   0.0965382   0.1229160   0.3034900  )
        45           Si  tau(  45) = (   0.0929622   0.5858990   0.7349500  )
        46           Si  tau(  46) = (   0.7575060   0.5865730   0.7770870  )
        47           Si  tau(  47) = (   0.3821440   0.7966100   0.2671990  )
        48           Si  tau(  48) = (   0.4861720   0.4785890   0.4845830  )
        49           Si  tau(  49) = (   0.9231370   0.8019920   0.1890820  )
        50           Si  tau(  50) = (   0.9858400   0.0018897   0.8143010  )
        51           Si  tau(  51) = (   0.1886500   0.4714100   0.9139050  )
        52           Si  tau(  52) = (   0.7008880   0.8882840   0.8865940  )
        53           Si  tau(  53) = (   0.0458843   0.2321210   0.4706650  )
        54           Si  tau(  54) = (   0.5752520   0.9048040   0.3012920  )
        55           Si  tau(  55) = (   0.2538740   0.0521537   0.5078760  )
        56           Si  tau(  56) = (   0.9413970   0.5811200   0.3249910  )
        57           Si  tau(  57) = (   0.6462050   0.8933200   0.6819990  )
        58           Si  tau(  58) = (   0.6670920   0.6198330   0.4111620  )
        59           Si  tau(  59) = (   0.8368560   0.1354610   0.3611770  )
        60           Si  tau(  60) = (   0.5139220   0.9303380   0.4919330  )
        61           Si  tau(  61) = (   0.4355580   0.3335970   0.8396140  )
        62           Si  tau(  62) = (   0.0363598   0.7776470   0.8521610  )
        63           Si  tau(  63) = (   0.5531340   0.4523350   0.6912650  )
        64           Si  tau(  64) = (   0.7947940   0.3998350   0.3520380  )

     number of k points=     1  Fermi-Dirac smearing, width (Ry)=  0.0100
                       cart. coord. in units 2pi/alat
        k(    1) = (   0.0000000   0.0000000   0.0000000), wk =   2.0000000

     Dense  grid:    95856 G-vectors     FFT dimensions: (  72,  72,  72)

     Estimated max dynamical RAM per process >     152.77 MB

     Estimated total dynamical RAM >     587.66 MB

     Initial potential from superposition of free atoms

     starting charge     255.9608, renormalised to     256.0000
     Starting wfcs are  256 randomized atomic wfcs

     total cpu time spent up to now is        4.5 secs

     Self-consistent Calculation

     iteration #  1     ecut=    30.00 Ry     beta= 0.50
     Davidson diagonalization with overlap
     ethr =  1.00E-02,  avg # of iterations =  3.0

     Threshold (ethr) on eigenvalues was too large:
     Diagonalizing with lowered threshold

     Davidson diagonalization with overlap
     ethr =  6.21E-04,  avg # of iterations =  4.0

     total cpu time spent up to now is        4.7 secs

     total energy              =    -500.04093013 Ry
     estimated scf accuracy    <       2.03211728 Ry

     iteration #  2     ecut=    30.00 Ry     beta= 0.50
     Davidson diagonalization with overlap
     ethr =  7.94E-04,  avg # of iterations =  5.0

     total cpu time spent up to now is        4.8 secs

     total energy              =    -499.13669069 Ry
     estimated scf accuracy    <      12.79291933 Ry

     iteration #  3     ecut=    30.00 Ry     beta= 0.50
     Davidson diagonalization with overlap
     ethr =  7.94E-04,  avg # of iterations =  5.0

     total cpu time spent up to now is        4.9 secs

     total energy              =    -500.26133258 Ry
     estimated scf accuracy    <       3.87083267 Ry

     iteration #  4     ecut=    30.00 Ry     beta= 0.50
     Davidson diagonalization with overlap
     ethr =  7.94E-04,  avg # of iterations =  2.0

     total cpu time spent up to now is        5.0 secs

     total energy              =    -500.56051206 Ry
     estimated scf accuracy    <       0.75083696 Ry

     iteration #  5     ecut=    30.00 Ry     beta= 0.50
     Davidson diagonalization with overlap
     ethr =  2.93E-04,  avg # of iterations =  2.0

     total cpu time spent up to now is        5.0 secs

     total energy              =    -500.59724331 Ry
     estimated scf accuracy    <       0.54731380 Ry

     iteration #  6     ecut=    30.00 Ry     beta= 0.50
     Davidson diagonalization with overlap
     ethr =  2.14E-04,  avg # of iterations =  2.0

     total cpu time spent up to now is        5.1 secs

     total energy              =    -500.64802896 Ry
     estimated scf accuracy    <       0.13333132 Ry

     iteration #  7     ecut=    30.00 Ry     beta= 0.50
     Davidson diagonalization with overlap
     ethr =  5.21E-05,  avg # of iterations =  2.0

     total cpu time spent up to now is        5.2 secs

     total energy              =    -500.66125245 Ry
     estimated scf accuracy    <       0.02706193 Ry

     iteration #  8     ecut=    30.00 Ry     beta= 0.50
     Davidson diagonalization with overlap
     ethr =  1.06E-05,  avg # of iterations =  9.0

     total cpu time spent up to now is        5.3 secs

     total energy              =    -500.66273786 Ry
     estimated scf accuracy    <       0.04865253 Ry

     iteration #  9     ecut=    30.00 Ry     beta= 0.50
     Davidson diagonalization with overlap
     ethr =  1.06E-05,  avg # of iterations =  2.0

     total cpu time spent up to now is        5.4 secs

     total energy              =    -500.66626854 Ry
     estimated scf accuracy    <       0.00409374 Ry

     iteration # 10     ecut=    30.00 Ry     beta= 0.50
     Davidson diagonalization with overlap
     ethr =  1.60E-06,  avg # of iterations = 14.0

     total cpu time spent up to now is        5.6 secs

     total energy              =    -500.66658861 Ry
     estimated scf accuracy    <       0.00635634 Ry

     iteration # 11     ecut=    30.00 Ry     beta= 0.50
     Davidson diagonalization with overlap
     ethr =  1.60E-06,  avg # of iterations =  2.0

     total cpu time spent up to now is        5.7 secs

     total energy              =    -500.66700694 Ry
     estimated scf accuracy    <       0.00111509 Ry

     iteration # 12     ecut=    30.00 Ry     beta= 0.50
     Davidson diagonalization with overlap
     ethr =  4.36E-07,  avg # of iterations =  2.0

     total cpu time spent up to now is        5.8 secs

     total energy              =    -500.66713139 Ry
     estimated scf accuracy    <       0.00044403 Ry

     iteration # 13     ecut=    30.00 Ry     beta= 0.50
     Davidson diagonalization with overlap
     ethr =  1.73E-07,  avg # of iterations =  3.0

     total cpu time spent up to now is        5.9 secs

     total energy              =    -500.66715969 Ry
     estimated scf accuracy    <       0.00052261 Ry

     iteration # 14     ecut=    30.00 Ry     beta= 0.50
     Davidson diagonalization with overlap
     ethr =  1.73E-07,  avg # of iterations =  2.0

     total cpu time spent up to now is        5.9 secs

     total energy              =    -500.66719193 Ry
     estimated scf accuracy    <       0.00003117 Ry

     iteration # 15     ecut=    30.00 Ry     beta= 0.50
     Davidson diagonalization with overlap
     ethr =  1.22E-08,  avg # of iterations =  5.0

     total cpu time spent up to now is        6.0 secs

     total energy              =    -500.66719350 Ry
     estimated scf accuracy    <       0.00010171 Ry

     iteration # 16     ecut=    30.00 Ry     beta= 0.50
     Davidson diagonalization with overlap
     ethr =  1.22E-08,  avg # of iterations =  3.0

     total cpu time spent up to now is        6.1 secs

     total energy              =    -500.66720027 Ry
     estimated scf accuracy    <       0.00002039 Ry

     iteration # 17     ecut=    30.00 Ry     beta= 0.50
     Davidson diagonalization with overlap
     ethr =  7.97E-09,  avg # of iterations =  2.0

     total cpu time spent up to now is        6.2 secs

     total energy              =    -500.66720124 Ry
     estimated scf accuracy    <       0.00001119 Ry

     iteration # 18     ecut=    30.00 Ry     beta= 0.50
     Davidson diagonalization with overlap
     ethr =  4.37E-09,  avg # of iterations =  2.0

     total cpu time spent up to now is        6.3 secs

     total energy              =    -500.66720214 Ry
     estimated scf accuracy    <       0.00000579 Ry

     iteration # 19     ecut=    30.00 Ry     beta= 0.50
     Davidson diagonalization with overlap
     ethr =  2.26E-09,  avg # of iterations =  2.0

     total cpu time spent up to now is        6.4 secs

     total energy              =    -500.66720249 Ry
     estimated scf accuracy    <       0.00000100 Ry

     iteration # 20     ecut=    30.00 Ry     beta= 0.50
     Davidson diagonalization with overlap
     ethr =  3.91E-10,  avg # of iterations =  2.0

     total cpu time spent up to now is        6.5 secs

     End of self-consistent calculation

          k = 0.0000 0.0000 0.0000 ( 11924 PWs)   bands (ev):

    -6.1475  -5.5364  -5.3944  -5.2178  -5.1032  -4.8540  -4.6885  -4.5858
    -4.4273  -4.3120  -4.1360  -4.0896  -3.9854  -3.7529  -3.7290  -3.6219
    -3.3596  -3.2932  -3.1864  -2.8650  -2.8400  -2.6692  -2.3910  -2.3220
    -2.2242  -2.0782  -1.9235  -1.7218  -1.5432  -1.4988  -1.3219  -1.2360
    -1.1320  -0.9755  -0.9109  -0.8054  -0.7342  -0.5644  -0.5483  -0.3671
    -0.2863  -0.2351  -0.1443  -0.0588   0.0110   0.1903   0.2715   0.3997
     0.4451   0.6072   0.6219   0.7507   0.8444   0.8730   0.8796   0.9817
     1.0432   1.1939   1.3456   1.5047   1.6037   1.7025   1.8032   1.8816
     2.0292   2.0849   2.1629   2.1796   2.3250   2.4024   2.4763   2.5710
     2.6612   2.7183   2.8190   2.9028   2.9642   3.0601   3.1256   3.1539
     3.2493   3.3644   3.3797   3.6496   3.7107   3.8050   3.8298   3.9462
     4.0545   4.0953   4.1440   4.2249   4.2502   4.3353   4.3707   4.4281
     4.5243   4.6217   4.6724   4.7423   4.8164   4.8507   4.9646   4.9968
     5.0729   5.1595   5.2170   5.2400   5.3317   5.3906   5.4750   5.5342
     5.6054   5.6389   5.7391   5.7461   5.7793   5.7936   5.8426   5.9918
     6.0758   6.0865   6.1631   6.1819   6.2727   6.3128   6.3861   6.4357
     6.5046   6.6062   6.6121   6.6555   6.7104   6.7653   6.8043   6.8866
     6.9606   7.0334   7.0860   7.1754   7.2016   7.2723   7.3732   7.3903
     7.4142   7.5081   7.5743   7.6218   7.7128   7.7359   7.8264   7.9153
     7.9346   8.0313

     the Fermi energy is     6.4691 ev

!    total energy              =    -500.66720227 Ry
     estimated scf accuracy    <       0.00000053 Ry
     smearing contrib. (-TS)   =      -0.15513663 Ry
     internal energy E=F+TS    =    -500.51206564 Ry

     The total energy is F=E-TS. E is the sum of the following terms:
     one-electron contribution =     139.05398202 Ry
     hartree contribution      =      42.08661504 Ry
     xc contribution           =    -150.72792304 Ry
     ewald contribution        =    -530.92473965 Ry

     convergence has been achieved in  20 iterations

     Forces acting on atoms (cartesian axes, Ry/au):

     atom    1 type  1   force =    -0.00606115    0.00292981   -0.02703724
     atom    2 type  1   force =    -0.00278342   -0.00668559    0.01402229
     atom    3 type  1   force =     0.01073454   -0.01409059   -0.01612104
     atom    4 type  1   force =    -0.00966185    0.00760673   -0.06302574
     atom    5 type  1   force =     0.06713583    0.00527563    0.05008124
     atom    6 type  1   force =     0.00301800    0.01525251   -0.01914400
     atom    7 type  1   force =     0.03033982    0.00424578   -0.01201934
     atom    8 type  1   force =    -0.01733831    0.00499925   -0.00959481
     atom    9 type  1   force =     0.03249087   -0.02037657   -0.03726240
     atom   10 type  1   force =    -0.00143350    0.04986656   -0.06284888
     atom   11 type  1   force =    -0.00822721    0.01648038   -0.00920153
     atom   12 type  1   force =    -0.01536781    0.03442163    0.08216100
     atom   13 type  1   force =    -0.08387072   -0.06119269    0.00709983
     atom   14 type  1   force =     0.00037658    0.01264663   -0.04936868
     atom   15 type  1   force =    -0.05499637   -0.02581225   -0.03221100
     atom   16 type  1   force =    -0.03447101    0.01040397   -0.02201160
     atom   17 type  1   force =    -0.02804251   -0.03418709   -0.03244434
     atom   18 type  1   force =     0.00144645    0.01834847   -0.01340427
     atom   19 type  1   force =    -0.04260246    0.06124493   -0.05361786
     atom   20 type  1   force =     0.03684377   -0.01405696    0.06054778
     atom   21 type  1   force =    -0.03738634    0.00874642   -0.01842283
     atom   22 type  1   force =    -0.00000899   -0.07566592   -0.05953323
     atom   23 type  1   force =     0.07153327    0.00482593   -0.03623985
     atom   24 type  1   force =    -0.01361560    0.02709970    0.05063937
     atom   25 type  1   force =    -0.02712942    0.00195872   -0.01388916
     atom   26 type  1   force =     0.02893402    0.05513831   -0.06214198
     atom   27 type  1   force =     0.10041247   -0.00177646    0.04055552
     atom   28 type  1   force =     0.05858204    0.09241612   -0.00500524
     atom   29 type  1   force =     0.02073203   -0.00901080    0.01300677
     atom   30 type  1   force =    -0.00370036   -0.01090444    0.01222769
     atom   31 type  1   force =    -0.00444063   -0.01062882   -0.00751742
     atom   32 type  1   force =     0.03719408   -0.00177088   -0.02210161
     atom   33 type  1   force =     0.00558100    0.03558787    0.00839477
     atom   34 type  1   force =    -0.02993757   -0.04402958   -0.01068042
     atom   35 type  1   force =    -0.07649101   -0.00500421   -0.03532364
     atom   36 type  1   force =    -0.01902684    0.02835679    0.00470920
     atom   37 type  1   force =    -0.00723839   -0.00619454    0.01804728
     atom   38 type  1   force =    -0.00101546   -0.01375666    0.06617520
     atom   39 type  1   force =     0.01523958    0.01863919   -0.01509522
     atom   40 type  1   force =     0.07242612    0.02418957    0.05601040
     atom   41 type  1   force =    -0.00839312   -0.00921103   -0.09129603
     atom   42 type  1   force =    -0.02659433   -0.01335035    0.04241228
     atom   43 type  1   force =     0.02796857   -0.00442266    0.00460520
     atom   44 type  1   force =     0.01771331   -0.03146191   -0.03968522
     atom   45 type  1   force =    -0.00045206    0.02508303    0.05411289
     atom   46 type  1   force =    -0.00936810   -0.04487171   -0.02988324
     atom   47 type  1   force =     0.01384261    0.00674766    0.02935461
     atom   48 type  1   force =     0.00531401    0.01419404   -0.01688662
     atom   49 type  1   force =    -0.00595088   -0.05098962    0.03510152
     atom   50 type  1   force =     0.00937158    0.07709882   -0.02168670
     atom   51 type  1   force =    -0.12290082    0.00421658   -0.01986821
     atom   52 type  1   force =     0.01015952   -0.05591824    0.05608007
     atom   53 type  1   force =    -0.01867237    0.00657686    0.04934140
     atom   54 type  1   force =     0.02543748   -0.06168184   -0.12815620
     atom   55 type  1   force =     0.00071351    0.00835291   -0.00804080
     atom   56 type  1   force =     0.02045700    0.02706909    0.06539502
     atom   57 type  1   force =    -0.02914038   -0.00897423   -0.05625114
     atom   58 type  1   force =    -0.02138156   -0.03267045    0.01962797
     atom   59 type  1   force =     0.01397188   -0.05656092    0.09381893
     atom   60 type  1   force =    -0.06624746   -0.01846717    0.14808256
     atom   61 type  1   force =     0.01794408    0.04331076    0.02320176
     atom   62 type  1   force =     0.05278305   -0.05012320    0.01189305
     atom   63 type  1   force =     0.01685858    0.02023851    0.02725105
     atom   64 type  1   force =     0.00839234    0.02027822    0.01306086

     Total force =     0.541684     Total SCF correction =     0.001410


     Computing stress (Cartesian axis) and pressure

          total   stress  (Ry/bohr**3)                   (kbar)     P=       -1.16
  -0.00010941   0.00005322   0.00003330          -16.09        7.83        4.90
   0.00005322  -0.00000597   0.00000277            7.83       -0.88        0.41
   0.00003330   0.00000277   0.00009182            4.90        0.41       13.51

 
     init_run     :      1.00s CPU      4.41s WALL (       1 calls)
     electrons    :      1.82s CPU      2.01s WALL (       1 calls)
     forces       :      0.03s CPU      0.03s WALL (       1 calls)
     stress       :      0.14s CPU      0.14s WALL (       1 calls)

     Called by init_run:
     wfcinit      :      0.49s CPU      3.74s WALL (       1 calls)
                                        3.74s GPU  (       1 calls)
     potinit      :      0.04s CPU      0.12s WALL (       1 calls)
     hinit0       :      0.46s CPU      0.48s WALL (       1 calls)

     Called by electrons:
     c_bands      :      1.18s CPU      1.27s WALL (      21 calls)
     sum_band     :      0.34s CPU      0.39s WALL (      21 calls)
     v_of_rho     :      0.13s CPU      0.21s WALL (      21 calls)
     mix_rho      :      0.16s CPU      0.18s WALL (      21 calls)

     Called by c_bands:
     init_us_2    :      0.05s CPU      0.06s WALL (      43 calls)
     init_us_2:gp :      0.05s CPU      0.06s WALL (      43 calls)
     regterg      :      1.03s CPU      1.12s WALL (      21 calls)

     Called by *egterg:
     rdiaghg      :      0.45s CPU      1.13s WALL (      95 calls)
                                        1.11s GPU  (      95 calls)
     h_psi        :      0.89s CPU      3.53s WALL (      97 calls)
                                        3.53s GPU  (      97 calls)
     g_psi        :      0.00s CPU      0.00s WALL (      75 calls)
                                        0.00s GPU  (      75 calls)

     Called by h_psi:
     h_psi:calbec :      0.46s CPU      3.02s WALL (      97 calls)
                                        3.02s GPU  (      97 calls)
     vloc_psi     :      0.38s CPU      0.45s WALL (      97 calls)
                                        0.45s GPU  (      97 calls)
     add_vuspsi   :      0.03s CPU      0.06s WALL (      97 calls)
                                        0.06s GPU  (      97 calls)

     General routines
     calbec       :      0.46s CPU      3.02s WALL (     102 calls)
     fft          :      0.56s CPU      0.68s WALL (     175 calls)
                                        0.11s GPU  (     111 calls)
     ffts         :      0.04s CPU      0.05s WALL (      21 calls)
     fftw         :      0.46s CPU      0.61s WALL (    2215 calls)
                                        0.53s GPU  (    2215 calls)
 
     Parallel routines
 
     PWSCF        :      3.03s CPU      6.67s WALL

 
   This run was terminated on:   9:52:30  11May2023            

=------------------------------------------------------------------------------=
   JOB DONE.
=------------------------------------------------------------------------------=
