An instance of this daemon is already running

     Program PWSCF v.7.1 starts on 11May2023 at  9:52: 4 

     This program is part of the open-source Quantum ESPRESSO suite
     for quantum simulation of materials; please cite
         "P. Giannozzi et al., J. Phys.:Condens. Matter 21 395502 (2009);
         "P. Giannozzi et al., J. Phys.:Condens. Matter 29 465901 (2017);
         "P. Giannozzi et al., J. Chem. Phys. 152 154105 (2020);
          URL http://www.quantum-espresso.org", 
     in publications or presentations arising from this work. More details at
     http://www.quantum-espresso.org/quote

     Parallel version (MPI & OpenMP), running on       4 processor cores
     Number of MPI processes:                 4
     Threads/MPI process:                     1

     MPI processes distributed on     1 nodes
     929020 MiB available memory on the printing compute node when the environment starts
 
     Reading input from pw-si-52.in
Warning: card &CELL ignored
Warning: card / ignored

     Current dimensions of program PWSCF are:
     Max number of different atomic species (ntypx) = 10
     Max number of k-points (npk) =  40000
     Max angular momentum in pseudopotentials (lmaxx) =  4

     IMPORTANT: XC functional enforced from input :
     Exchange-correlation= PBE
                           (   1   4   3   4   0   0   0)
     Any further DFT definition will be discarded
     Please, verify this is what you really want


     gamma-point specific algorithms are used
 
     K-points division:     npool     =       2
     R & G space division:  proc/nbgrp/npool/nimage =       2
     Subspace diagonalization in iterative solution of the eigenvalue problem:
     a serial algorithm will be used

     Message from routine divide_et_impera:
     suboptimal parallelization: some nodes have no k-points
 
     Parallelization info
     --------------------
     sticks:   dense  smooth     PW     G-vecs:    dense   smooth      PW
     Min        2003    2003    528                95853    95853   12909
     Max        2006    2006    529                95858    95858   12912
     Sum        4009    4009   1057               191711   191711   25821
 
     Using Slab Decomposition
 


     bravais-lattice index     =            0
     lattice parameter (alat)  =      20.5074  a.u.
     unit-cell volume          =    8624.4321 (a.u.)^3
     number of atoms/cell      =           64
     number of atomic types    =            1
     number of electrons       =       256.00
     number of Kohn-Sham states=          154
     kinetic-energy cutoff     =      30.0000  Ry
     charge density cutoff     =     120.0000  Ry
     scf convergence threshold =      1.0E-06
     mixing beta               =       0.5000
     number of iterations used =            8  plain     mixing
     Exchange-correlation= PBE
                           (   1   4   3   4   0   0   0)

     GPU acceleration is ACTIVE.
     GPU-aware MPI enabled

     Message from routine print_cuda_info:
     High GPU oversubscription detected. Are you sure this is what you want?

     celldm(1)=  20.507380  celldm(2)=   0.000000  celldm(3)=   0.000000
     celldm(4)=   0.000000  celldm(5)=   0.000000  celldm(6)=   0.000000

     crystal axes: (cart. coord. in units of alat)
               a(1) = (   1.000000   0.000000   0.000000 )  
               a(2) = (   0.000000   1.000000   0.000000 )  
               a(3) = (   0.000000   0.000000   1.000000 )  

     reciprocal axes: (cart. coord. in units 2 pi/alat)
               b(1) = (  1.000000  0.000000  0.000000 )  
               b(2) = (  0.000000  1.000000  0.000000 )  
               b(3) = (  0.000000  0.000000  1.000000 )  


     PseudoPot. # 1 for Si read from file:
     /home/ppiaggi/pseudos/Si_ONCV_PBE_sr.upf
     MD5 check sum: 8553c464762ac42b85b1eed164b4d029
     Pseudo is Norm-conserving, Zval =  4.0
     Generated using ONCVPSP code by D. R. Hamann
     Using radial grid of 1510 points,  4 beta functions with: 
                l(1) =   0
                l(2) =   0
                l(3) =   1
                l(4) =   1

     atomic species   valence    mass     pseudopotential
        Si             4.00    28.08500     Si( 1.00)

     No symmetry found



   Cartesian axes

     site n.     atom                  positions (alat units)
         1           Si  tau(   1) = (   0.3919600   0.2743670   0.3815820  )
         2           Si  tau(   2) = (   0.4691870   0.6288690   0.7213930  )
         3           Si  tau(   3) = (   0.1109380   0.2944250   0.9530680  )
         4           Si  tau(   4) = (   0.4401030   0.1121620   0.8612800  )
         5           Si  tau(   5) = (   0.1282220   0.9648300   0.1637610  )
         6           Si  tau(   6) = (   0.7828050   0.7287660   0.6090250  )
         7           Si  tau(   7) = (   0.2450190   0.4229790   0.2135800  )
         8           Si  tau(   8) = (   0.1593800   0.8748410   0.3409320  )
         9           Si  tau(   9) = (   0.5816100   0.5178980   0.0627747  )
        10           Si  tau(  10) = (   0.9477610   0.0160331   0.5304340  )
        11           Si  tau(  11) = (   0.9706530   0.1462900   0.0323869  )
        12           Si  tau(  12) = (   0.2546830   0.7694650   0.7203270  )
        13           Si  tau(  13) = (   0.0933585   0.3929630   0.6370460  )
        14           Si  tau(  14) = (   0.3799070   0.7304490   0.9453530  )
        15           Si  tau(  15) = (   0.9865700   0.9240410   0.0164722  )
        16           Si  tau(  16) = (   0.7233140   0.1085590   0.0933382  )
        17           Si  tau(  17) = (   0.3725730   0.1923490   0.6763560  )
        18           Si  tau(  18) = (   0.3225370   0.0537942   0.2599820  )
        19           Si  tau(  19) = (   0.2103980   0.9939320   0.7372910  )
        20           Si  tau(  20) = (   0.5240120   0.0482940   0.0542657  )
        21           Si  tau(  21) = (   0.0746946   0.5732920   0.1125570  )
        22           Si  tau(  22) = (   0.2350720   0.6147550   0.5584330  )
        23           Si  tau(  23) = (   0.2922430   0.3814700   0.5375990  )
        24           Si  tau(  24) = (   0.7430330   0.6574180   0.9634280  )
        25           Si  tau(  25) = (   0.9289830   0.5078050   0.5562780  )
        26           Si  tau(  26) = (   0.8631830   0.2526200   0.1930070  )
        27           Si  tau(  27) = (   0.3834130   0.5238320   0.9861490  )
        28           Si  tau(  28) = (   0.6251290   0.0804175   0.3945910  )
        29           Si  tau(  29) = (   0.7541890   0.3855480   0.6065780  )
        30           Si  tau(  30) = (   0.2281110   0.6583970   0.2145550  )
        31           Si  tau(  31) = (   0.9497940   0.3033010   0.7856500  )
        32           Si  tau(  32) = (   0.4426660   0.6866370   0.4998380  )
        33           Si  tau(  33) = (   0.7128930   0.0842349   0.7851300  )
        34           Si  tau(  34) = (   0.9628090   0.8138360   0.6748520  )
        35           Si  tau(  35) = (   0.3395580   0.2656370   0.0338060  )
        36           Si  tau(  36) = (   0.6329190   0.2952040   0.4281270  )
        37           Si  tau(  37) = (   0.7604190   0.3717000   0.9922170  )
        38           Si  tau(  38) = (   0.2863150   0.9179890   0.9224800  )
        39           Si  tau(  39) = (   0.7523040   0.8179900   0.3797620  )
        40           Si  tau(  40) = (   0.5351910   0.2379230   0.1707590  )
        41           Si  tau(  41) = (   0.8733970   0.5179920   0.1543380  )
        42           Si  tau(  42) = (   0.4814620   0.5233270   0.2557180  )
        43           Si  tau(  43) = (   0.5728290   0.8084860   0.0802733  )
        44           Si  tau(  44) = (   0.0934541   0.1189000   0.2953840  )
        45           Si  tau(  45) = (   0.1195610   0.5805520   0.7551550  )
        46           Si  tau(  46) = (   0.7559750   0.5803670   0.7644600  )
        47           Si  tau(  47) = (   0.3870300   0.7775410   0.2814700  )
        48           Si  tau(  48) = (   0.4981090   0.4998050   0.4716370  )
        49           Si  tau(  49) = (   0.9285340   0.7903590   0.1953480  )
        50           Si  tau(  50) = (   0.0063753   0.9943920   0.8157190  )
        51           Si  tau(  51) = (   0.1874520   0.4928580   0.9223980  )
        52           Si  tau(  52) = (   0.6777850   0.8679460   0.8724410  )
        53           Si  tau(  53) = (   0.0313318   0.2542190   0.4723100  )
        54           Si  tau(  54) = (   0.5744540   0.8803140   0.2870710  )
        55           Si  tau(  55) = (   0.2564880   0.0628395   0.5334070  )
        56           Si  tau(  56) = (   0.9569500   0.5817290   0.3307050  )
        57           Si  tau(  57) = (   0.6144770   0.8760460   0.6823610  )
        58           Si  tau(  58) = (   0.6719580   0.6043280   0.4009910  )
        59           Si  tau(  59) = (   0.8474190   0.1349540   0.3735850  )
        60           Si  tau(  60) = (   0.5041180   0.9276510   0.4948700  )
        61           Si  tau(  61) = (   0.4349990   0.3293530   0.8327040  )
        62           Si  tau(  62) = (   0.0240233   0.7584110   0.8756240  )
        63           Si  tau(  63) = (   0.5549250   0.4536750   0.7245260  )
        64           Si  tau(  64) = (   0.7812090   0.4175600   0.3389580  )

     number of k points=     1  Fermi-Dirac smearing, width (Ry)=  0.0100
                       cart. coord. in units 2pi/alat
        k(    1) = (   0.0000000   0.0000000   0.0000000), wk =   2.0000000

     Dense  grid:    95856 G-vectors     FFT dimensions: (  72,  72,  72)

     Estimated max dynamical RAM per process >     152.81 MB

     Estimated total dynamical RAM >     587.82 MB

     Initial potential from superposition of free atoms

     starting charge     255.9608, renormalised to     256.0000
     Starting wfcs are  256 randomized atomic wfcs

     total cpu time spent up to now is        4.8 secs

     Self-consistent Calculation

     iteration #  1     ecut=    30.00 Ry     beta= 0.50
     Davidson diagonalization with overlap
     ethr =  1.00E-02,  avg # of iterations =  3.0

     Threshold (ethr) on eigenvalues was too large:
     Diagonalizing with lowered threshold

     Davidson diagonalization with overlap
     ethr =  5.95E-04,  avg # of iterations =  4.0

     total cpu time spent up to now is        5.1 secs

     total energy              =    -500.05865751 Ry
     estimated scf accuracy    <       1.96769266 Ry

     iteration #  2     ecut=    30.00 Ry     beta= 0.50
     Davidson diagonalization with overlap
     ethr =  7.69E-04,  avg # of iterations =  6.0

     total cpu time spent up to now is        5.2 secs

     total energy              =    -499.18241398 Ry
     estimated scf accuracy    <      11.78706439 Ry

     iteration #  3     ecut=    30.00 Ry     beta= 0.50
     Davidson diagonalization with overlap
     ethr =  7.69E-04,  avg # of iterations =  5.0

     total cpu time spent up to now is        5.4 secs

     total energy              =    -500.21424952 Ry
     estimated scf accuracy    <       4.51388460 Ry

     iteration #  4     ecut=    30.00 Ry     beta= 0.50
     Davidson diagonalization with overlap
     ethr =  7.69E-04,  avg # of iterations =  2.0

     total cpu time spent up to now is        5.5 secs

     total energy              =    -500.55014373 Ry
     estimated scf accuracy    <       0.57544025 Ry

     iteration #  5     ecut=    30.00 Ry     beta= 0.50
     Davidson diagonalization with overlap
     ethr =  2.25E-04,  avg # of iterations =  2.0

     total cpu time spent up to now is        5.5 secs

     total energy              =    -500.58962570 Ry
     estimated scf accuracy    <       0.27920646 Ry

     iteration #  6     ecut=    30.00 Ry     beta= 0.50
     Davidson diagonalization with overlap
     ethr =  1.09E-04,  avg # of iterations =  3.0

     total cpu time spent up to now is        5.6 secs

     total energy              =    -500.61323798 Ry
     estimated scf accuracy    <       0.26934362 Ry

     iteration #  7     ecut=    30.00 Ry     beta= 0.50
     Davidson diagonalization with overlap
     ethr =  1.05E-04,  avg # of iterations =  1.0

     total cpu time spent up to now is        5.7 secs

     total energy              =    -500.63450766 Ry
     estimated scf accuracy    <       0.01358857 Ry

     iteration #  8     ecut=    30.00 Ry     beta= 0.50
     Davidson diagonalization with overlap
     ethr =  5.31E-06,  avg # of iterations = 11.0

     total cpu time spent up to now is        5.9 secs

     total energy              =    -500.63617704 Ry
     estimated scf accuracy    <       0.01525256 Ry

     iteration #  9     ecut=    30.00 Ry     beta= 0.50
     Davidson diagonalization with overlap
     ethr =  5.31E-06,  avg # of iterations =  3.0

     total cpu time spent up to now is        6.0 secs

     total energy              =    -500.63745207 Ry
     estimated scf accuracy    <       0.01085211 Ry

     iteration # 10     ecut=    30.00 Ry     beta= 0.50
     Davidson diagonalization with overlap
     ethr =  4.24E-06,  avg # of iterations =  1.0

     total cpu time spent up to now is        6.1 secs

     total energy              =    -500.63820555 Ry
     estimated scf accuracy    <       0.00121164 Ry

     iteration # 11     ecut=    30.00 Ry     beta= 0.50
     Davidson diagonalization with overlap
     ethr =  4.73E-07,  avg # of iterations =  2.0

     total cpu time spent up to now is        6.2 secs

     total energy              =    -500.63837021 Ry
     estimated scf accuracy    <       0.00020661 Ry

     iteration # 12     ecut=    30.00 Ry     beta= 0.50
     Davidson diagonalization with overlap
     ethr =  8.07E-08,  avg # of iterations =  5.0

     total cpu time spent up to now is        6.3 secs

     total energy              =    -500.63835138 Ry
     estimated scf accuracy    <       0.00078503 Ry

     iteration # 13     ecut=    30.00 Ry     beta= 0.50
     Davidson diagonalization with overlap
     ethr =  8.07E-08,  avg # of iterations =  3.0

     total cpu time spent up to now is        6.4 secs

     total energy              =    -500.63841142 Ry
     estimated scf accuracy    <       0.00024218 Ry

     iteration # 14     ecut=    30.00 Ry     beta= 0.50
     Davidson diagonalization with overlap
     ethr =  8.07E-08,  avg # of iterations =  2.0

     total cpu time spent up to now is        6.5 secs

     total energy              =    -500.63842637 Ry
     estimated scf accuracy    <       0.00003176 Ry

     iteration # 15     ecut=    30.00 Ry     beta= 0.50
     Davidson diagonalization with overlap
     ethr =  1.24E-08,  avg # of iterations =  3.0

     total cpu time spent up to now is        6.6 secs

     total energy              =    -500.63842754 Ry
     estimated scf accuracy    <       0.00001172 Ry

     iteration # 16     ecut=    30.00 Ry     beta= 0.50
     Davidson diagonalization with overlap
     ethr =  4.58E-09,  avg # of iterations =  5.0

     total cpu time spent up to now is        6.7 secs

     total energy              =    -500.63842834 Ry
     estimated scf accuracy    <       0.00004120 Ry

     iteration # 17     ecut=    30.00 Ry     beta= 0.50
     Davidson diagonalization with overlap
     ethr =  4.58E-09,  avg # of iterations =  3.0

     total cpu time spent up to now is        6.8 secs

     total energy              =    -500.63843068 Ry
     estimated scf accuracy    <       0.00000256 Ry

     iteration # 18     ecut=    30.00 Ry     beta= 0.50
     Davidson diagonalization with overlap
     ethr =  1.00E-09,  avg # of iterations =  5.0

     total cpu time spent up to now is        6.9 secs

     total energy              =    -500.63843078 Ry
     estimated scf accuracy    <       0.00000198 Ry

     iteration # 19     ecut=    30.00 Ry     beta= 0.50
     Davidson diagonalization with overlap
     ethr =  7.75E-10,  avg # of iterations =  2.0

     total cpu time spent up to now is        7.0 secs

     End of self-consistent calculation

          k = 0.0000 0.0000 0.0000 ( 11924 PWs)   bands (ev):

    -6.1303  -5.4540  -5.3475  -5.1104  -5.0226  -4.9156  -4.7615  -4.5669
    -4.3942  -4.3474  -4.0344  -3.9754  -3.8667  -3.6765  -3.6206  -3.4649
    -3.3931  -3.2905  -3.1717  -2.9772  -2.7396  -2.6534  -2.5456  -2.3319
    -2.0878  -2.0304  -1.9126  -1.7059  -1.5370  -1.4766  -1.3794  -1.2734
    -1.1643  -0.8924  -0.8617  -0.6995  -0.6710  -0.6075  -0.5190  -0.3980
    -0.1972  -0.1431  -0.1215  -0.0168   0.0433   0.1926   0.2274   0.3388
     0.4006   0.4823   0.5782   0.6360   0.7651   0.8085   0.8804   0.9713
     1.0253   1.1364   1.3534   1.4716   1.5291   1.7635   1.8767   1.9152
     2.0107   2.0962   2.2081   2.2179   2.3481   2.4410   2.4777   2.5615
     2.6868   2.7431   2.8109   2.9449   2.9895   3.1503   3.1785   3.2925
     3.4097   3.4707   3.5404   3.5760   3.6314   3.6863   3.7690   3.9279
     3.9750   4.0632   4.1697   4.2104   4.2553   4.3088   4.3361   4.4401
     4.5586   4.5891   4.6663   4.7194   4.7650   4.8306   4.8664   4.9153
     5.0035   5.0780   5.2686   5.3202   5.4012   5.4468   5.5029   5.5639
     5.5795   5.6236   5.6580   5.7613   5.8239   5.9033   5.9470   5.9918
     6.1098   6.1448   6.1913   6.2113   6.3279   6.3391   6.3904   6.4672
     6.5524   6.5720   6.5861   6.7087   6.7201   6.7797   6.9131   6.9517
     6.9989   7.0399   7.0923   7.1271   7.1815   7.2239   7.3266   7.3503
     7.4047   7.5053   7.5631   7.6303   7.6869   7.7142   7.7833   7.8786
     7.9189   7.9352

     the Fermi energy is     6.4918 ev

!    total energy              =    -500.63843069 Ry
     estimated scf accuracy    <       0.00000029 Ry
     smearing contrib. (-TS)   =      -0.15853346 Ry
     internal energy E=F+TS    =    -500.47989723 Ry

     The total energy is F=E-TS. E is the sum of the following terms:
     one-electron contribution =     141.92357586 Ry
     hartree contribution      =      40.67824632 Ry
     xc contribution           =    -150.59705359 Ry
     ewald contribution        =    -532.48466581 Ry

     convergence has been achieved in  19 iterations

     Forces acting on atoms (cartesian axes, Ry/au):

     atom    1 type  1   force =     0.02299276   -0.01451099   -0.04791677
     atom    2 type  1   force =    -0.06577442    0.12154674    0.00079974
     atom    3 type  1   force =     0.01880282   -0.01447595   -0.00791017
     atom    4 type  1   force =     0.03440051   -0.03182641    0.03231770
     atom    5 type  1   force =     0.03260002    0.00697885   -0.08814527
     atom    6 type  1   force =    -0.04225869    0.00644648   -0.03214360
     atom    7 type  1   force =     0.04944794    0.00012331   -0.02221295
     atom    8 type  1   force =     0.00829544   -0.03797360    0.07262897
     atom    9 type  1   force =     0.04262581   -0.01204979    0.00489287
     atom   10 type  1   force =     0.01505150    0.00376757   -0.00496831
     atom   11 type  1   force =    -0.00292765   -0.00298945    0.00330069
     atom   12 type  1   force =    -0.01764477   -0.00205087    0.02965321
     atom   13 type  1   force =    -0.00815294   -0.02865308   -0.00264819
     atom   14 type  1   force =     0.05364546    0.02025658   -0.00441947
     atom   15 type  1   force =    -0.03148201   -0.01402467    0.01435926
     atom   16 type  1   force =     0.04001061    0.02769254   -0.00841703
     atom   17 type  1   force =    -0.02854896    0.00453411   -0.04853816
     atom   18 type  1   force =     0.00295443    0.00902037    0.00374813
     atom   19 type  1   force =     0.00058431    0.00551847   -0.02178798
     atom   20 type  1   force =    -0.03031544   -0.04557331    0.00060147
     atom   21 type  1   force =    -0.00992483   -0.00287963   -0.04534957
     atom   22 type  1   force =     0.01056910   -0.01856932   -0.00903294
     atom   23 type  1   force =    -0.00456514    0.02186237    0.01891646
     atom   24 type  1   force =     0.00300174    0.00917001    0.04447822
     atom   25 type  1   force =    -0.02498204    0.02857489   -0.03985227
     atom   26 type  1   force =    -0.00203757    0.02121655   -0.01144364
     atom   27 type  1   force =    -0.00935345   -0.03475689    0.01258358
     atom   28 type  1   force =     0.01600522    0.00060449   -0.01792129
     atom   29 type  1   force =    -0.01565950   -0.00525840    0.01465418
     atom   30 type  1   force =     0.01562842   -0.00234577    0.00957267
     atom   31 type  1   force =    -0.00925777   -0.01399089    0.00297638
     atom   32 type  1   force =    -0.02228862    0.12653797    0.01227621
     atom   33 type  1   force =    -0.00747086   -0.03470591    0.02486809
     atom   34 type  1   force =     0.03073390    0.04017236   -0.00647377
     atom   35 type  1   force =    -0.00787019    0.01024493   -0.00252824
     atom   36 type  1   force =    -0.05456964   -0.00661149    0.01592255
     atom   37 type  1   force =    -0.01146155    0.01002334    0.02419859
     atom   38 type  1   force =    -0.00939813    0.01092303    0.03336982
     atom   39 type  1   force =     0.04673245   -0.03979149    0.01189171
     atom   40 type  1   force =    -0.01397748    0.00913371    0.03543830
     atom   41 type  1   force =    -0.05309340   -0.01522914   -0.09437306
     atom   42 type  1   force =    -0.02296243    0.00629859   -0.01075819
     atom   43 type  1   force =    -0.03449342    0.00717611   -0.05634899
     atom   44 type  1   force =    -0.00899859    0.04270414    0.04505406
     atom   45 type  1   force =    -0.02749917    0.06173059   -0.04235557
     atom   46 type  1   force =    -0.02232972   -0.03939033   -0.01644646
     atom   47 type  1   force =     0.00837740   -0.00036250    0.03044995
     atom   48 type  1   force =     0.02083994   -0.13844320    0.00834985
     atom   49 type  1   force =    -0.00946720   -0.03659392    0.03123248
     atom   50 type  1   force =    -0.02854215    0.03684177   -0.05037643
     atom   51 type  1   force =    -0.00382757   -0.03381871    0.07325504
     atom   52 type  1   force =     0.01964053    0.00294084    0.07063678
     atom   53 type  1   force =    -0.00812219   -0.04115500   -0.00949220
     atom   54 type  1   force =    -0.00266214    0.04389576   -0.01721984
     atom   55 type  1   force =     0.01519666    0.00141948   -0.02503205
     atom   56 type  1   force =     0.02594092    0.03889672    0.06418603
     atom   57 type  1   force =    -0.00815963    0.00313076   -0.06227388
     atom   58 type  1   force =     0.02053422    0.02912715   -0.00921822
     atom   59 type  1   force =    -0.00253813   -0.02500583    0.02915720
     atom   60 type  1   force =    -0.02415554   -0.00158569    0.03933256
     atom   61 type  1   force =    -0.02091510    0.00023608    0.03976635
     atom   62 type  1   force =     0.02101507   -0.03347046   -0.00767300
     atom   63 type  1   force =     0.10669737   -0.06034551   -0.03576875
     atom   64 type  1   force =     0.02536347    0.01969157    0.00417713

     Total force =     0.469963     Total SCF correction =     0.001027


     Computing stress (Cartesian axis) and pressure

          total   stress  (Ry/bohr**3)                   (kbar)     P=       -2.74
  -0.00009670   0.00001015   0.00007972          -14.22        1.49       11.73
   0.00001015   0.00000579  -0.00000706            1.49        0.85       -1.04
   0.00007972  -0.00000706   0.00003494           11.73       -1.04        5.14

 
     init_run     :      0.97s CPU      4.77s WALL (       1 calls)
     electrons    :      1.91s CPU      2.16s WALL (       1 calls)
     forces       :      0.04s CPU      0.04s WALL (       1 calls)
     stress       :      0.14s CPU      0.15s WALL (       1 calls)

     Called by init_run:
     wfcinit      :      0.46s CPU      4.08s WALL (       1 calls)
                                        4.08s GPU  (       1 calls)
     potinit      :      0.04s CPU      0.14s WALL (       1 calls)
     hinit0       :      0.46s CPU      0.48s WALL (       1 calls)

     Called by electrons:
     c_bands      :      1.16s CPU      1.26s WALL (      20 calls)
     sum_band     :      0.39s CPU      0.44s WALL (      20 calls)
     v_of_rho     :      0.15s CPU      0.26s WALL (      20 calls)
     mix_rho      :      0.16s CPU      0.24s WALL (      20 calls)

     Called by c_bands:
     init_us_2    :      0.05s CPU      0.06s WALL (      41 calls)
     init_us_2:gp :      0.05s CPU      0.06s WALL (      41 calls)
     regterg      :      1.02s CPU      1.11s WALL (      20 calls)

     Called by *egterg:
     rdiaghg      :      0.42s CPU      1.31s WALL (      90 calls)
                                        1.30s GPU  (      90 calls)
     h_psi        :      0.88s CPU      3.67s WALL (      92 calls)
                                        3.67s GPU  (      92 calls)
     g_psi        :      0.00s CPU      0.00s WALL (      71 calls)
                                        0.00s GPU  (      71 calls)

     Called by h_psi:
     h_psi:calbec :      0.46s CPU      3.17s WALL (      92 calls)
                                        3.17s GPU  (      92 calls)
     vloc_psi     :      0.37s CPU      0.44s WALL (      92 calls)
                                        0.44s GPU  (      92 calls)
     add_vuspsi   :      0.03s CPU      0.05s WALL (      92 calls)
                                        0.05s GPU  (      92 calls)

     General routines
     calbec       :      0.47s CPU      3.18s WALL (      97 calls)
     fft          :      0.63s CPU      0.76s WALL (     167 calls)
                                        0.12s GPU  (     106 calls)
     ffts         :      0.05s CPU      0.06s WALL (      20 calls)
     fftw         :      0.45s CPU      0.59s WALL (    2118 calls)
                                        0.52s GPU  (    2118 calls)
 
     Parallel routines
 
     PWSCF        :      3.09s CPU      7.19s WALL

 
   This run was terminated on:   9:52:11  11May2023            

=------------------------------------------------------------------------------=
   JOB DONE.
=------------------------------------------------------------------------------=
