Removing intel version 2021.1.2
Removing oclfpga version 2021.1.2
Removing intel-dpl version 2021.1.2
Removing intel-debugger version 10.0.0
Removing intel-mkl version 2021.1.1
Removing intel-tbb version 2021.1.1
Removing intel-rt version 2021.1.2
An instance of this daemon is already running
An instance of this daemon is already running

     Program PWSCF v.7.1 starts on  8May2023 at 14:30:33 

     This program is part of the open-source Quantum ESPRESSO suite
     for quantum simulation of materials; please cite
         "P. Giannozzi et al., J. Phys.:Condens. Matter 21 395502 (2009);
         "P. Giannozzi et al., J. Phys.:Condens. Matter 29 465901 (2017);
         "P. Giannozzi et al., J. Chem. Phys. 152 154105 (2020);
          URL http://www.quantum-espresso.org", 
     in publications or presentations arising from this work. More details at
     http://www.quantum-espresso.org/quote

     Parallel version (MPI & OpenMP), running on       4 processor cores
     Number of MPI processes:                 4
     Threads/MPI process:                     1

     MPI processes distributed on     1 nodes
     619788 MiB available memory on the printing compute node when the environment starts
 
     Reading input from pw-si.in

     Current dimensions of program PWSCF are:
     Max number of different atomic species (ntypx) = 10
     Max number of k-points (npk) =  40000
     Max angular momentum in pseudopotentials (lmaxx) =  4

     IMPORTANT: XC functional enforced from input :
     Exchange-correlation= PBE
                           (   1   4   3   4   0   0   0)
     Any further DFT definition will be discarded
     Please, verify this is what you really want


     gamma-point specific algorithms are used
     Found identity + (  0.0000  0.2500  0.2500) symmetry
     This is a supercell, fractional translations are disabled
     Message from routine setup:
     using ibrav=0 with symmetry is DISCOURAGED, use correct ibrav instead
 
     K-points division:     npool     =       2
     R & G space division:  proc/nbgrp/npool/nimage =       2
     Subspace diagonalization in iterative solution of the eigenvalue problem:
     a serial algorithm will be used

     Message from routine divide_et_impera:
     suboptimal parallelization: some nodes have no k-points
 
     Parallelization info
     --------------------
     sticks:   dense  smooth     PW     G-vecs:    dense   smooth      PW
     Min         675     675    185                18535    18535    2688
     Max         678     678    188                18538    18538    2689
     Sum        1353    1353    373                37073    37073    5377
 
     Using Slab Decomposition
 


     bravais-lattice index     =            0
     lattice parameter (alat)  =      20.5251  a.u.
     unit-cell volume          =    8646.7724 (a.u.)^3
     number of atoms/cell      =           64
     number of atomic types    =            1
     number of electrons       =       256.00
     number of Kohn-Sham states=          128
     kinetic-energy cutoff     =      10.0000  Ry
     charge density cutoff     =      40.0000  Ry
     scf convergence threshold =      1.0E-06
     mixing beta               =       0.5000
     number of iterations used =            8  plain     mixing
     energy convergence thresh.=      1.0E-04
     force convergence thresh. =      1.0E-03
     press convergence thresh. =      5.0E-01
     Exchange-correlation= PBE
                           (   1   4   3   4   0   0   0)
     nstep                     =           50


     GPU acceleration is ACTIVE.
     GPU-aware MPI enabled

     Message from routine print_cuda_info:
     High GPU oversubscription detected. Are you sure this is what you want?

     celldm(1)=  20.525071  celldm(2)=   0.000000  celldm(3)=   0.000000
     celldm(4)=   0.000000  celldm(5)=   0.000000  celldm(6)=   0.000000

     crystal axes: (cart. coord. in units of alat)
               a(1) = (   1.000000   0.000000   0.000000 )  
               a(2) = (   0.000000   1.000000   0.000000 )  
               a(3) = (   0.000000   0.000000   1.000000 )  

     reciprocal axes: (cart. coord. in units 2 pi/alat)
               b(1) = (  1.000000  0.000000  0.000000 )  
               b(2) = (  0.000000  1.000000  0.000000 )  
               b(3) = (  0.000000  0.000000  1.000000 )  


     PseudoPot. # 1 for Si read from file:
     /home/ppiaggi/pseudos/Si_ONCV_PBE_sr.upf
     MD5 check sum: 8553c464762ac42b85b1eed164b4d029
     Pseudo is Norm-conserving, Zval =  4.0
     Generated using ONCVPSP code by D. R. Hamann
     Using radial grid of 1510 points,  4 beta functions with: 
                l(1) =   0
                l(2) =   0
                l(3) =   1
                l(4) =   1

     atomic species   valence    mass     pseudopotential
        Si             4.00    28.08550     Si( 1.00)

     24 Sym. Ops. (no inversion) found



   Cartesian axes

     site n.     atom                  positions (alat units)
         1           Si  tau(   1) = (   0.0000000   0.0000000   0.0000000  )
         2           Si  tau(   2) = (   0.0000000   0.2500000   0.2500000  )
         3           Si  tau(   3) = (   0.2500000   0.0000000   0.2500000  )
         4           Si  tau(   4) = (   0.2500000   0.2500000   0.0000000  )
         5           Si  tau(   5) = (   0.1250000   0.1250000   0.1250000  )
         6           Si  tau(   6) = (   0.5000000   0.0000000   0.0000000  )
         7           Si  tau(   7) = (   0.5000000   0.2500000   0.2500000  )
         8           Si  tau(   8) = (   0.6250000   0.1250000   0.1250000  )
         9           Si  tau(   9) = (   0.7500000   0.0000000   0.2500000  )
        10           Si  tau(  10) = (   0.7500000   0.2500000   0.0000000  )
        11           Si  tau(  11) = (   0.0000000   0.5000000   0.0000000  )
        12           Si  tau(  12) = (   0.2500000   0.5000000   0.2500000  )
        13           Si  tau(  13) = (   0.1250000   0.6250000   0.1250000  )
        14           Si  tau(  14) = (   0.3750000   0.3750000   0.1250000  )
        15           Si  tau(  15) = (   0.5000000   0.5000000   0.0000000  )
        16           Si  tau(  16) = (   0.6250000   0.6250000   0.1250000  )
        17           Si  tau(  17) = (   0.8750000   0.3750000   0.1250000  )
        18           Si  tau(  18) = (   0.7500000   0.5000000   0.2500000  )
        19           Si  tau(  19) = (   0.0000000   0.7500000   0.2500000  )
        20           Si  tau(  20) = (   0.2500000   0.7500000   0.0000000  )
        21           Si  tau(  21) = (   0.3750000   0.8750000   0.1250000  )
        22           Si  tau(  22) = (   0.5000000   0.7500000   0.2500000  )
        23           Si  tau(  23) = (   0.7500000   0.7500000   0.0000000  )
        24           Si  tau(  24) = (   0.8750000   0.8750000   0.1250000  )
        25           Si  tau(  25) = (   0.0000000   0.0000000   0.5000000  )
        26           Si  tau(  26) = (   0.2500000   0.2500000   0.5000000  )
        27           Si  tau(  27) = (   0.1250000   0.1250000   0.6250000  )
        28           Si  tau(  28) = (   0.3750000   0.1250000   0.3750000  )
        29           Si  tau(  29) = (   0.5000000   0.0000000   0.5000000  )
        30           Si  tau(  30) = (   0.6250000   0.1250000   0.6250000  )
        31           Si  tau(  31) = (   0.8750000   0.1250000   0.3750000  )
        32           Si  tau(  32) = (   0.7500000   0.2500000   0.5000000  )
        33           Si  tau(  33) = (   0.1250000   0.3750000   0.3750000  )
        34           Si  tau(  34) = (   0.0000000   0.5000000   0.5000000  )
        35           Si  tau(  35) = (   0.1250000   0.6250000   0.6250000  )
        36           Si  tau(  36) = (   0.6250000   0.3750000   0.3750000  )
        37           Si  tau(  37) = (   0.3750000   0.6250000   0.3750000  )
        38           Si  tau(  38) = (   0.3750000   0.3750000   0.6250000  )
        39           Si  tau(  39) = (   0.5000000   0.5000000   0.5000000  )
        40           Si  tau(  40) = (   0.6250000   0.6250000   0.6250000  )
        41           Si  tau(  41) = (   0.8750000   0.6250000   0.3750000  )
        42           Si  tau(  42) = (   0.8750000   0.3750000   0.6250000  )
        43           Si  tau(  43) = (   0.1250000   0.8750000   0.3750000  )
        44           Si  tau(  44) = (   0.2500000   0.7500000   0.5000000  )
        45           Si  tau(  45) = (   0.6250000   0.8750000   0.3750000  )
        46           Si  tau(  46) = (   0.3750000   0.8750000   0.6250000  )
        47           Si  tau(  47) = (   0.7500000   0.7500000   0.5000000  )
        48           Si  tau(  48) = (   0.8750000   0.8750000   0.6250000  )
        49           Si  tau(  49) = (   0.0000000   0.2500000   0.7500000  )
        50           Si  tau(  50) = (   0.2500000   0.0000000   0.7500000  )
        51           Si  tau(  51) = (   0.3750000   0.1250000   0.8750000  )
        52           Si  tau(  52) = (   0.5000000   0.2500000   0.7500000  )
        53           Si  tau(  53) = (   0.7500000   0.0000000   0.7500000  )
        54           Si  tau(  54) = (   0.8750000   0.1250000   0.8750000  )
        55           Si  tau(  55) = (   0.1250000   0.3750000   0.8750000  )
        56           Si  tau(  56) = (   0.2500000   0.5000000   0.7500000  )
        57           Si  tau(  57) = (   0.6250000   0.3750000   0.8750000  )
        58           Si  tau(  58) = (   0.3750000   0.6250000   0.8750000  )
        59           Si  tau(  59) = (   0.7500000   0.5000000   0.7500000  )
        60           Si  tau(  60) = (   0.8750000   0.6250000   0.8750000  )
        61           Si  tau(  61) = (   0.0000000   0.7500000   0.7500000  )
        62           Si  tau(  62) = (   0.1250000   0.8750000   0.8750000  )
        63           Si  tau(  63) = (   0.5000000   0.7500000   0.7500000  )
        64           Si  tau(  64) = (   0.6250000   0.8750000   0.8750000  )

     number of k points=     1
                       cart. coord. in units 2pi/alat
        k(    1) = (   0.0000000   0.0000000   0.0000000), wk =   2.0000000

     Dense  grid:    18537 G-vectors     FFT dimensions: (  45,  45,  45)

     Estimated max dynamical RAM per process >      29.63 MB

     Estimated total dynamical RAM >     113.99 MB

     Initial potential from superposition of free atoms

     starting charge     255.9608, renormalised to     256.0000
     Starting wfcs are  256 randomized atomic wfcs

     total cpu time spent up to now is        4.9 secs

     Self-consistent Calculation

     iteration #  1     ecut=    10.00 Ry     beta= 0.50
     Davidson diagonalization with overlap
     ethr =  1.00E-02,  avg # of iterations =  2.0

     Threshold (ethr) on eigenvalues was too large:
     Diagonalizing with lowered threshold

     Davidson diagonalization with overlap
     ethr =  6.56E-04,  avg # of iterations =  2.0

     total cpu time spent up to now is        5.0 secs

     total energy              =    -501.96926843 Ry
     estimated scf accuracy    <       1.84578929 Ry

     iteration #  2     ecut=    10.00 Ry     beta= 0.50
     Davidson diagonalization with overlap
     ethr =  7.21E-04,  avg # of iterations =  1.0

     total cpu time spent up to now is        5.1 secs

     total energy              =    -501.93872187 Ry
     estimated scf accuracy    <       0.36823020 Ry

     iteration #  3     ecut=    10.00 Ry     beta= 0.50
     Davidson diagonalization with overlap
     ethr =  1.44E-04,  avg # of iterations =  1.0

     total cpu time spent up to now is        5.1 secs

     total energy              =    -501.95844032 Ry
     estimated scf accuracy    <       0.00565217 Ry

     iteration #  4     ecut=    10.00 Ry     beta= 0.50
     Davidson diagonalization with overlap
     ethr =  2.21E-06,  avg # of iterations =  3.0

     total cpu time spent up to now is        5.2 secs

     total energy              =    -501.96104910 Ry
     estimated scf accuracy    <       0.00057362 Ry

     iteration #  5     ecut=    10.00 Ry     beta= 0.50
     Davidson diagonalization with overlap
     ethr =  2.24E-07,  avg # of iterations =  5.0

     total cpu time spent up to now is        5.2 secs

     total energy              =    -501.96121077 Ry
     estimated scf accuracy    <       0.00002525 Ry

     iteration #  6     ecut=    10.00 Ry     beta= 0.50
     Davidson diagonalization with overlap
     ethr =  9.86E-09,  avg # of iterations =  7.0

     total cpu time spent up to now is        5.3 secs

     total energy              =    -501.96122279 Ry
     estimated scf accuracy    <       0.00000647 Ry

     iteration #  7     ecut=    10.00 Ry     beta= 0.50
     Davidson diagonalization with overlap
     ethr =  2.53E-09,  avg # of iterations =  4.0

     total cpu time spent up to now is        5.4 secs

     End of self-consistent calculation

          k = 0.0000 0.0000 0.0000 (  2313 PWs)   bands (ev):

    -5.5311  -4.4771  -4.4771  -4.4770  -4.4770  -4.4768  -4.4768  -3.4915
    -3.4915  -3.4914  -3.4914  -3.4913  -3.4913  -3.4913  -3.4912  -3.4911
    -3.4911  -3.4911  -3.4910  -3.2015  -3.2015  -3.2015  -3.2015  -1.4055
    -1.4055  -1.4055  -1.4055  -1.4055  -1.4054  -1.2138  -1.2138  -1.2137
    -1.2137  -1.2136  -1.2136  -1.2136  -1.2136  -1.2135  -1.2135  -1.2135
    -1.2134  -0.6085  -0.6085  -0.6085  -0.6085   0.9219   0.9219   0.9219
     0.9219   0.9220   0.9220   0.9220   0.9220   0.9221   0.9221   0.9221
     0.9221   2.3997   2.3997   2.3998   2.3998   2.3998   2.3999   2.3999
     2.3999   2.3999   2.3999   2.4000   2.4000   2.5156   2.5156   2.5156
     2.5157   2.5157   2.5157   2.5157   2.5157   2.5158   2.5158   2.5158
     2.5158   2.8944   2.8944   2.8944   2.8944   2.8944   2.8944   3.3925
     3.3925   3.3925   3.3925   3.3925   3.3925   4.3726   4.3726   4.3727
     4.3727   4.3727   4.3727   4.3727   4.3728   4.3728   4.3728   4.3728
     4.3729   4.9385   4.9386   4.9386   4.9386   4.9387   4.9387   4.9387
     4.9387   4.9388   4.9388   4.9388   4.9388   5.0662   5.0662   5.0662
     5.0662   5.0662   5.0662   5.0663   5.0663   6.3075   6.3075   6.3075

     highest occupied level (ev):     6.3075

!    total energy              =    -501.96122401 Ry
     estimated scf accuracy    <       0.00000067 Ry

     The total energy is the sum of the following terms:
     one-electron contribution =     154.28656528 Ry
     hartree contribution      =      35.29524247 Ry
     xc contribution           =    -154.04612274 Ry
     ewald contribution        =    -537.49690903 Ry

     convergence has been achieved in   7 iterations

     Forces acting on atoms (cartesian axes, Ry/au):

     atom    1 type  1   force =     0.00000000    0.00000000    0.00000000
     atom    2 type  1   force =    -0.00001509    0.00006808    0.00006808
     atom    3 type  1   force =     0.00006808   -0.00001509    0.00006808
     atom    4 type  1   force =     0.00006808    0.00006808   -0.00001509
     atom    5 type  1   force =     0.00001660    0.00001660    0.00001660
     atom    6 type  1   force =     0.00000000    0.00000000    0.00000000
     atom    7 type  1   force =     0.00000998   -0.00001230   -0.00001230
     atom    8 type  1   force =    -0.00001853    0.00000465    0.00000465
     atom    9 type  1   force =    -0.00006808    0.00001509    0.00006808
     atom   10 type  1   force =    -0.00006808    0.00006808    0.00001509
     atom   11 type  1   force =     0.00000000    0.00000000    0.00000000
     atom   12 type  1   force =    -0.00001230    0.00000998   -0.00001230
     atom   13 type  1   force =     0.00000465   -0.00001853    0.00000465
     atom   14 type  1   force =    -0.00000476   -0.00000476   -0.00005216
     atom   15 type  1   force =     0.00000000    0.00000000    0.00000000
     atom   16 type  1   force =     0.00000476    0.00000476   -0.00005216
     atom   17 type  1   force =    -0.00000465    0.00001853    0.00000465
     atom   18 type  1   force =     0.00001230   -0.00000998   -0.00001230
     atom   19 type  1   force =     0.00001509   -0.00006808    0.00006808
     atom   20 type  1   force =     0.00006808   -0.00006808    0.00001509
     atom   21 type  1   force =     0.00001853   -0.00000465    0.00000465
     atom   22 type  1   force =    -0.00000998    0.00001230   -0.00001230
     atom   23 type  1   force =    -0.00006808   -0.00006808   -0.00001509
     atom   24 type  1   force =    -0.00001660   -0.00001660    0.00001660
     atom   25 type  1   force =     0.00000000    0.00000000    0.00000000
     atom   26 type  1   force =    -0.00001230   -0.00001230    0.00000998
     atom   27 type  1   force =     0.00000465    0.00000465   -0.00001853
     atom   28 type  1   force =    -0.00000476   -0.00005216   -0.00000476
     atom   29 type  1   force =     0.00000000    0.00000000    0.00000000
     atom   30 type  1   force =     0.00000476   -0.00005216    0.00000476
     atom   31 type  1   force =    -0.00000465    0.00000465    0.00001853
     atom   32 type  1   force =     0.00001230   -0.00001230   -0.00000998
     atom   33 type  1   force =    -0.00005216   -0.00000476   -0.00000476
     atom   34 type  1   force =     0.00000000    0.00000000    0.00000000
     atom   35 type  1   force =    -0.00005216    0.00000476    0.00000476
     atom   36 type  1   force =     0.00007824   -0.00007824   -0.00007824
     atom   37 type  1   force =    -0.00007824    0.00007824   -0.00007824
     atom   38 type  1   force =    -0.00007824   -0.00007824    0.00007824
     atom   39 type  1   force =     0.00000000    0.00000000    0.00000000
     atom   40 type  1   force =     0.00007824    0.00007824    0.00007824
     atom   41 type  1   force =     0.00005216    0.00000476   -0.00000476
     atom   42 type  1   force =     0.00005216   -0.00000476    0.00000476
     atom   43 type  1   force =     0.00000465   -0.00000465    0.00001853
     atom   44 type  1   force =    -0.00001230    0.00001230   -0.00000998
     atom   45 type  1   force =     0.00000476    0.00005216   -0.00000476
     atom   46 type  1   force =    -0.00000476    0.00005216    0.00000476
     atom   47 type  1   force =     0.00001230    0.00001230    0.00000998
     atom   48 type  1   force =    -0.00000465   -0.00000465   -0.00001853
     atom   49 type  1   force =     0.00001509    0.00006808   -0.00006808
     atom   50 type  1   force =     0.00006808    0.00001509   -0.00006808
     atom   51 type  1   force =     0.00001853    0.00000465   -0.00000465
     atom   52 type  1   force =    -0.00000998   -0.00001230    0.00001230
     atom   53 type  1   force =    -0.00006808   -0.00001509   -0.00006808
     atom   54 type  1   force =    -0.00001660    0.00001660   -0.00001660
     atom   55 type  1   force =     0.00000465    0.00001853   -0.00000465
     atom   56 type  1   force =    -0.00001230   -0.00000998    0.00001230
     atom   57 type  1   force =     0.00000476   -0.00000476    0.00005216
     atom   58 type  1   force =    -0.00000476    0.00000476    0.00005216
     atom   59 type  1   force =     0.00001230    0.00000998    0.00001230
     atom   60 type  1   force =    -0.00000465   -0.00001853   -0.00000465
     atom   61 type  1   force =    -0.00001509   -0.00006808   -0.00006808
     atom   62 type  1   force =     0.00001660   -0.00001660   -0.00001660
     atom   63 type  1   force =     0.00000998    0.00001230    0.00001230
     atom   64 type  1   force =    -0.00001853   -0.00000465   -0.00000465

     Total force =     0.000483     Total SCF correction =     0.000617
     SCF correction compared to forces is large: reduce conv_thr to get better values


     Computing stress (Cartesian axis) and pressure

          total   stress  (Ry/bohr**3)                   (kbar)     P=      -33.39
  -0.00022699   0.00000000   0.00000000          -33.39        0.00        0.00
   0.00000000  -0.00022699   0.00000000            0.00      -33.39        0.00
   0.00000000   0.00000000  -0.00022699            0.00        0.00      -33.39


     BFGS Geometry Optimization
     Energy error            =      0.0E+00 Ry
     Gradient error          =      7.8E-05 Ry/Bohr
     Cell gradient error     =      3.3E+01 kbar

     number of scf cycles    =   1
     number of bfgs steps    =   0

     enthalpy           new  =    -501.9612240144 Ry

     new trust radius        =       0.1055375636 bohr
     new conv_thr            =       0.0000010000 Ry

     new unit-cell volume =   8500.40020 a.u.^3 (  1259.62935 Ang^3 )
     density =      2.36956 g/cm^3

CELL_PARAMETERS (angstrom)
  10.799763799   0.000000000   0.000000000
   0.000000000  10.799763799   0.000000000
   0.000000000   0.000000000  10.799763799

ATOMIC_POSITIONS (angstrom)
Si            0.0000000000        0.0000000000        0.0000000000
Si           -0.0000079420        2.6999767696        2.6999767696
Si            2.6999767696       -0.0000079420        2.6999767696
Si            2.6999767696        2.6999767696       -0.0000079420
Si            1.3499792068        1.3499792068        1.3499792068
Si            5.3998818994        0.0000000000        0.0000000000
Si            5.3998871484        2.6999344771        2.6999344771
Si            6.7498426257        1.3499729229        1.3499729229
Si            8.0997870293        0.0000079420        2.6999767696
Si            8.0997870293        2.6999767696        0.0000079420
Si            0.0000000000        5.3998818994        0.0000000000
Si            2.6999344771        5.3998871484        2.6999344771
Si            1.3499729229        6.7498426257        1.3499729229
Si            4.0499089179        4.0499089179        1.3499430313
Si            5.3998818994        5.3998818994        0.0000000000
Si            6.7498548810        6.7498548810        1.3499430313
Si            9.4497908759        4.0499211732        1.3499729229
Si            8.0998293218        5.3998766505        2.6999344771
Si            0.0000079420        8.0997870293        2.6999767696
Si            2.6999767696        8.0997870293        0.0000079420
Si            4.0499211732        9.4497908759        1.3499729229
Si            5.3998766505        8.0998293218        2.6999344771
Si            8.0997870293        8.0997870293       -0.0000079420
Si            9.4497845920        9.4497845920        1.3499792068
Si            0.0000000000        0.0000000000        5.3998818994
Si            2.6999344771        2.6999344771        5.3998871484
Si            1.3499729229        1.3499729229        6.7498426257
Si            4.0499089179        1.3499430313        4.0499089179
Si            5.3998818994        0.0000000000        5.3998818994
Si            6.7498548810        1.3499430313        6.7498548810
Si            9.4497908759        1.3499729229        4.0499211732
Si            8.0998293218        2.6999344771        5.3998766505
Si            1.3499430313        4.0499089179        4.0499089179
Si            0.0000000000        5.3998818994        5.3998818994
Si            1.3499430313        6.7498548810        6.7498548810
Si            6.7498935427        4.0498702562        4.0498702562
Si            4.0498702562        6.7498935427        4.0498702562
Si            4.0498702562        4.0498702562        6.7498935427
Si            5.3998818994        5.3998818994        5.3998818994
Si            6.7498935427        6.7498935427        6.7498935427
Si            9.4498207675        6.7498548810        4.0499089179
Si            9.4498207675        4.0499089179        6.7498548810
Si            1.3499729229        9.4497908759        4.0499211732
Si            2.6999344771        8.0998293218        5.3998766505
Si            6.7498548810        9.4498207675        4.0499089179
Si            4.0499089179        9.4498207675        6.7498548810
Si            8.0998293218        8.0998293218        5.3998871484
Si            9.4497908759        9.4497908759        6.7498426257
Si            0.0000079420        2.6999767696        8.0997870293
Si            2.6999767696        0.0000079420        8.0997870293
Si            4.0499211732        1.3499729229        9.4497908759
Si            5.3998766505        2.6999344771        8.0998293218
Si            8.0997870293       -0.0000079420        8.0997870293
Si            9.4497845920        1.3499792068        9.4497845920
Si            1.3499729229        4.0499211732        9.4497908759
Si            2.6999344771        5.3998766505        8.0998293218
Si            6.7498548810        4.0499089179        9.4498207675
Si            4.0499089179        6.7498548810        9.4498207675
Si            8.0998293218        5.3998871484        8.0998293218
Si            9.4497908759        6.7498426257        9.4497908759
Si           -0.0000079420        8.0997870293        8.0997870293
Si            1.3499792068        9.4497845920        9.4497845920
Si            5.3998871484        8.0998293218        8.0998293218
Si            6.7498426257        9.4497908759        9.4497908759



     Writing config-only to output data dir ./pwscf.save/
     NEW-OLD atomic charge density approx. for the potential
     extrapolated charge  251.59250, renormalised to  256.00000

     total cpu time spent up to now is        5.7 secs

     Self-consistent Calculation

     iteration #  1     ecut=    10.00 Ry     beta= 0.50
     Davidson diagonalization with overlap
     ethr =  1.00E-06,  avg # of iterations =  5.0

     total cpu time spent up to now is        5.8 secs

     total energy              =    -501.97921640 Ry
     estimated scf accuracy    <       0.00371464 Ry

     iteration #  2     ecut=    10.00 Ry     beta= 0.50
     Davidson diagonalization with overlap
     ethr =  1.45E-06,  avg # of iterations =  3.0

     total cpu time spent up to now is        5.9 secs

     total energy              =    -501.98517553 Ry
     estimated scf accuracy    <       0.00110633 Ry

     iteration #  3     ecut=    10.00 Ry     beta= 0.50
     Davidson diagonalization with overlap
     ethr =  4.32E-07,  avg # of iterations =  1.0

     total cpu time spent up to now is        5.9 secs

     total energy              =    -501.98505391 Ry
     estimated scf accuracy    <       0.00045404 Ry

     iteration #  4     ecut=    10.00 Ry     beta= 0.50
     Davidson diagonalization with overlap
     ethr =  1.77E-07,  avg # of iterations =  2.0

     total cpu time spent up to now is        6.0 secs

     total energy              =    -501.98509178 Ry
     estimated scf accuracy    <       0.00002387 Ry

     iteration #  5     ecut=    10.00 Ry     beta= 0.50
     Davidson diagonalization with overlap
     ethr =  9.32E-09,  avg # of iterations =  2.0

     total cpu time spent up to now is        6.0 secs

     total energy              =    -501.98509041 Ry
     estimated scf accuracy    <       0.00000679 Ry

     iteration #  6     ecut=    10.00 Ry     beta= 0.50
     Davidson diagonalization with overlap
     ethr =  2.65E-09,  avg # of iterations =  2.0

     total cpu time spent up to now is        6.1 secs

     End of self-consistent calculation

          k = 0.0000 0.0000 0.0000 (  2313 PWs)   bands (ev):

    -5.4752  -4.4046  -4.4046  -4.4046  -4.4045  -4.4045  -4.4045  -3.4029
    -3.4029  -3.4028  -3.4028  -3.4028  -3.4028  -3.4028  -3.4028  -3.4028
    -3.4028  -3.4027  -3.4027  -3.1021  -3.1021  -3.1021  -3.1021  -1.2868
    -1.2868  -1.2868  -1.2868  -1.2868  -1.2868  -1.0876  -1.0876  -1.0876
    -1.0876  -1.0876  -1.0876  -1.0876  -1.0875  -1.0875  -1.0875  -1.0875
    -1.0875  -0.5146  -0.5146  -0.5146  -0.5146   1.0650   1.0650   1.0650
     1.0651   1.0651   1.0651   1.0651   1.0651   1.0651   1.0651   1.0651
     1.0651   2.5083   2.5083   2.5083   2.5083   2.5083   2.5084   2.5084
     2.5084   2.5084   2.5084   2.5084   2.5084   2.6308   2.6308   2.6308
     2.6308   2.6309   2.6309   2.6309   2.6309   2.6309   2.6309   2.6309
     2.6309   3.0721   3.0722   3.0722   3.0722   3.0722   3.0722   3.5291
     3.5291   3.5291   3.5291   3.5291   3.5291   4.5227   4.5227   4.5227
     4.5227   4.5227   4.5228   4.5228   4.5228   4.5228   4.5228   4.5228
     4.5228   5.1017   5.1017   5.1018   5.1018   5.1018   5.1018   5.1018
     5.1018   5.1018   5.1018   5.1019   5.1019   5.2338   5.2338   5.2338
     5.2338   5.2338   5.2338   5.2338   5.2338   6.4912   6.4912   6.4912

     highest occupied level (ev):     6.4912

!    total energy              =    -501.98509076 Ry
     estimated scf accuracy    <       0.00000029 Ry

     The total energy is the sum of the following terms:
     one-electron contribution =     158.35554557 Ry
     hartree contribution      =      34.86286968 Ry
     xc contribution           =    -154.63900535 Ry
     ewald contribution        =    -540.56450066 Ry

     convergence has been achieved in   6 iterations

     Forces acting on atoms (cartesian axes, Ry/au):

     atom    1 type  1   force =     0.00000000    0.00000000    0.00000000
     atom    2 type  1   force =    -0.00001624    0.00003301    0.00003301
     atom    3 type  1   force =     0.00003301   -0.00001624    0.00003301
     atom    4 type  1   force =     0.00003301    0.00003301   -0.00001624
     atom    5 type  1   force =     0.00002175    0.00002175    0.00002175
     atom    6 type  1   force =     0.00000000    0.00000000    0.00000000
     atom    7 type  1   force =    -0.00000326   -0.00002444   -0.00002444
     atom    8 type  1   force =    -0.00001415    0.00000113    0.00000113
     atom    9 type  1   force =    -0.00003301    0.00001624    0.00003301
     atom   10 type  1   force =    -0.00003301    0.00003301    0.00001624
     atom   11 type  1   force =     0.00000000    0.00000000    0.00000000
     atom   12 type  1   force =    -0.00002444   -0.00000326   -0.00002444
     atom   13 type  1   force =     0.00000113   -0.00001415    0.00000113
     atom   14 type  1   force =     0.00000500    0.00000500   -0.00003023
     atom   15 type  1   force =     0.00000000    0.00000000    0.00000000
     atom   16 type  1   force =    -0.00000500   -0.00000500   -0.00003023
     atom   17 type  1   force =    -0.00000113    0.00001415    0.00000113
     atom   18 type  1   force =     0.00002444    0.00000326   -0.00002444
     atom   19 type  1   force =     0.00001624   -0.00003301    0.00003301
     atom   20 type  1   force =     0.00003301   -0.00003301    0.00001624
     atom   21 type  1   force =     0.00001415   -0.00000113    0.00000113
     atom   22 type  1   force =     0.00000326    0.00002444   -0.00002444
     atom   23 type  1   force =    -0.00003301   -0.00003301   -0.00001624
     atom   24 type  1   force =    -0.00002175   -0.00002175    0.00002175
     atom   25 type  1   force =     0.00000000    0.00000000    0.00000000
     atom   26 type  1   force =    -0.00002444   -0.00002444   -0.00000326
     atom   27 type  1   force =     0.00000113    0.00000113   -0.00001415
     atom   28 type  1   force =     0.00000500   -0.00003023    0.00000500
     atom   29 type  1   force =     0.00000000    0.00000000    0.00000000
     atom   30 type  1   force =    -0.00000500   -0.00003023   -0.00000500
     atom   31 type  1   force =    -0.00000113    0.00000113    0.00001415
     atom   32 type  1   force =     0.00002444   -0.00002444    0.00000326
     atom   33 type  1   force =    -0.00003023    0.00000500    0.00000500
     atom   34 type  1   force =     0.00000000    0.00000000    0.00000000
     atom   35 type  1   force =    -0.00003023   -0.00000500   -0.00000500
     atom   36 type  1   force =     0.00006179   -0.00006179   -0.00006179
     atom   37 type  1   force =    -0.00006179    0.00006179   -0.00006179
     atom   38 type  1   force =    -0.00006179   -0.00006179    0.00006179
     atom   39 type  1   force =     0.00000000    0.00000000    0.00000000
     atom   40 type  1   force =     0.00006179    0.00006179    0.00006179
     atom   41 type  1   force =     0.00003023   -0.00000500    0.00000500
     atom   42 type  1   force =     0.00003023    0.00000500   -0.00000500
     atom   43 type  1   force =     0.00000113   -0.00000113    0.00001415
     atom   44 type  1   force =    -0.00002444    0.00002444    0.00000326
     atom   45 type  1   force =    -0.00000500    0.00003023    0.00000500
     atom   46 type  1   force =     0.00000500    0.00003023   -0.00000500
     atom   47 type  1   force =     0.00002444    0.00002444   -0.00000326
     atom   48 type  1   force =    -0.00000113   -0.00000113   -0.00001415
     atom   49 type  1   force =     0.00001624    0.00003301   -0.00003301
     atom   50 type  1   force =     0.00003301    0.00001624   -0.00003301
     atom   51 type  1   force =     0.00001415    0.00000113   -0.00000113
     atom   52 type  1   force =     0.00000326   -0.00002444    0.00002444
     atom   53 type  1   force =    -0.00003301   -0.00001624   -0.00003301
     atom   54 type  1   force =    -0.00002175    0.00002175   -0.00002175
     atom   55 type  1   force =     0.00000113    0.00001415   -0.00000113
     atom   56 type  1   force =    -0.00002444    0.00000326    0.00002444
     atom   57 type  1   force =    -0.00000500    0.00000500    0.00003023
     atom   58 type  1   force =     0.00000500   -0.00000500    0.00003023
     atom   59 type  1   force =     0.00002444   -0.00000326    0.00002444
     atom   60 type  1   force =    -0.00000113   -0.00001415   -0.00000113
     atom   61 type  1   force =    -0.00001624   -0.00003301   -0.00003301
     atom   62 type  1   force =     0.00002175   -0.00002175   -0.00002175
     atom   63 type  1   force =    -0.00000326    0.00002444    0.00002444
     atom   64 type  1   force =    -0.00001415   -0.00000113   -0.00000113

     Total force =     0.000331     Total SCF correction =     0.000160
     SCF correction compared to forces is large: reduce conv_thr to get better values


     Computing stress (Cartesian axis) and pressure

          total   stress  (Ry/bohr**3)                   (kbar)     P=      -14.26
  -0.00009697   0.00000000   0.00000000          -14.26        0.00        0.00
   0.00000000  -0.00009697   0.00000000            0.00      -14.26        0.00
   0.00000000   0.00000000  -0.00009697            0.00        0.00      -14.26

     Energy error            =      2.4E-02 Ry
     Gradient error          =      6.2E-05 Ry/Bohr
     Cell gradient error     =      1.4E+01 kbar

     number of scf cycles    =   2
     number of bfgs steps    =   1

     enthalpy           old  =    -501.9612240144 Ry
     enthalpy           new  =    -501.9850907600 Ry

     CASE: enthalpy          _new < enthalpy          _old

     new trust radius        =       0.0769436991 bohr
     new conv_thr            =       0.0000000100 Ry

     new unit-cell volume =   8394.43322 a.u.^3 (  1243.92666 Ang^3 )
     density =      2.39948 g/cm^3

CELL_PARAMETERS (angstrom)
  10.754698979   0.000000000   0.000000000
   0.000000000  10.754698979   0.000000000
   0.000000000   0.000000000  10.754698979

ATOMIC_POSITIONS (angstrom)
Si            0.0000000000        0.0000000000        0.0000000000
Si           -0.0000225598        2.6887401892        2.6887401892
Si            2.6887401892       -0.0000225598        2.6887401892
Si            2.6887401892        2.6887401892       -0.0000225598
Si            1.3443656830        1.3443656830        1.3443656830
Si            5.3773494896        0.0000000000        0.0000000000
Si            5.3773517746        2.6886462519        2.6886462519
Si            6.7216643920        1.3443408288        1.3443408288
Si            8.0659587900        0.0000225598        2.6887401892
Si            8.0659587900        2.6887401892        0.0000225598
Si            0.0000000000        5.3773494896        0.0000000000
Si            2.6886462519        5.3773517746        2.6886462519
Si            1.3443408288        6.7216643920        1.3443408288
Si            4.0330141294        4.0330141294        1.3442827758
Si            5.3773494896        5.3773494896        0.0000000000
Si            6.7216848499        6.7216848499        1.3442827758
Si            9.4103581504        4.0330345873        1.3443408288
Si            8.0660527274        5.3773472047        2.6886462519
Si            0.0000225598        8.0659587900        2.6887401892
Si            2.6887401892        8.0659587900        0.0000225598
Si            4.0330345873        9.4103581504        1.3443408288
Si            5.3773472047        8.0660527274        2.6886462519
Si            8.0659587900        8.0659587900       -0.0000225598
Si            9.4103332963        9.4103332963        1.3443656830
Si            0.0000000000        0.0000000000        5.3773494896
Si            2.6886462519        2.6886462519        5.3773517746
Si            1.3443408288        1.3443408288        6.7216643920
Si            4.0330141294        1.3442827758        4.0330141294
Si            5.3773494896        0.0000000000        5.3773494896
Si            6.7216848499        1.3442827758        6.7216848499
Si            9.4103581504        1.3443408288        4.0330345873
Si            8.0660527274        2.6886462519        5.3773472047
Si            1.3442827758        4.0330141294        4.0330141294
Si            0.0000000000        5.3773494896        5.3773494896
Si            1.3442827758        6.7216848499        6.7216848499
Si            6.7217835853        4.0329153940        4.0329153940
Si            4.0329153940        6.7217835853        4.0329153940
Si            4.0329153940        4.0329153940        6.7217835853
Si            5.3773494896        5.3773494896        5.3773494896
Si            6.7217835853        6.7217835853        6.7217835853
Si            9.4104162035        6.7216848499        4.0330141294
Si            9.4104162035        4.0330141294        6.7216848499
Si            1.3443408288        9.4103581504        4.0330345873
Si            2.6886462519        8.0660527274        5.3773472047
Si            6.7216848499        9.4104162035        4.0330141294
Si            4.0330141294        9.4104162035        6.7216848499
Si            8.0660527274        8.0660527274        5.3773517746
Si            9.4103581504        9.4103581504        6.7216643920
Si            0.0000225598        2.6887401892        8.0659587900
Si            2.6887401892        0.0000225598        8.0659587900
Si            4.0330345873        1.3443408288        9.4103581504
Si            5.3773472047        2.6886462519        8.0660527274
Si            8.0659587900       -0.0000225598        8.0659587900
Si            9.4103332963        1.3443656830        9.4103332963
Si            1.3443408288        4.0330345873        9.4103581504
Si            2.6886462519        5.3773472047        8.0660527274
Si            6.7216848499        4.0330141294        9.4104162035
Si            4.0330141294        6.7216848499        9.4104162035
Si            8.0660527274        5.3773517746        8.0660527274
Si            9.4103581504        6.7216643920        9.4103581504
Si           -0.0000225598        8.0659587900        8.0659587900
Si            1.3443656830        9.4103332963        9.4103332963
Si            5.3773517746        8.0660527274        8.0660527274
Si            6.7216643920        9.4103581504        9.4103581504



     Writing config-only to output data dir ./pwscf.save/
     NEW-OLD atomic charge density approx. for the potential
     extrapolated charge  252.76888, renormalised to  256.00000

     total cpu time spent up to now is        6.4 secs

     Self-consistent Calculation

     iteration #  1     ecut=    10.00 Ry     beta= 0.50
     Davidson diagonalization with overlap
     ethr =  1.00E-06,  avg # of iterations =  4.0

     total cpu time spent up to now is        6.5 secs

     total energy              =    -501.98702066 Ry
     estimated scf accuracy    <       0.00191063 Ry

     iteration #  2     ecut=    10.00 Ry     beta= 0.50
     Davidson diagonalization with overlap
     ethr =  7.46E-07,  avg # of iterations =  3.0

     total cpu time spent up to now is        6.5 secs

     total energy              =    -501.99015526 Ry
     estimated scf accuracy    <       0.00059514 Ry

     iteration #  3     ecut=    10.00 Ry     beta= 0.50
     Davidson diagonalization with overlap
     ethr =  2.32E-07,  avg # of iterations =  1.0

     total cpu time spent up to now is        6.6 secs

     total energy              =    -501.99008553 Ry
     estimated scf accuracy    <       0.00024523 Ry

     iteration #  4     ecut=    10.00 Ry     beta= 0.50
     Davidson diagonalization with overlap
     ethr =  9.58E-08,  avg # of iterations =  2.0

     total cpu time spent up to now is        6.6 secs

     total energy              =    -501.99010735 Ry
     estimated scf accuracy    <       0.00001566 Ry

     iteration #  5     ecut=    10.00 Ry     beta= 0.50
     Davidson diagonalization with overlap
     ethr =  6.12E-09,  avg # of iterations =  2.0

     total cpu time spent up to now is        6.7 secs

     total energy              =    -501.99010641 Ry
     estimated scf accuracy    <       0.00000470 Ry

     iteration #  6     ecut=    10.00 Ry     beta= 0.50
     Davidson diagonalization with overlap
     ethr =  1.84E-09,  avg # of iterations =  2.0

     total cpu time spent up to now is        6.7 secs

     total energy              =    -501.99010649 Ry
     estimated scf accuracy    <       0.00000052 Ry

     iteration #  7     ecut=    10.00 Ry     beta= 0.50
     Davidson diagonalization with overlap
     ethr =  2.04E-10,  avg # of iterations =  3.0

     total cpu time spent up to now is        6.8 secs

     total energy              =    -501.99010651 Ry
     estimated scf accuracy    <       0.00000009 Ry

     iteration #  8     ecut=    10.00 Ry     beta= 0.50
     Davidson diagonalization with overlap
     ethr =  3.46E-11,  avg # of iterations =  3.0

     total cpu time spent up to now is        6.8 secs

     End of self-consistent calculation

          k = 0.0000 0.0000 0.0000 (  2313 PWs)   bands (ev):

    -5.4334  -4.3506  -4.3506  -4.3505  -4.3505  -4.3505  -4.3502  -3.3369
    -3.3369  -3.3369  -3.3368  -3.3368  -3.3368  -3.3368  -3.3368  -3.3366
    -3.3366  -3.3366  -3.3365  -3.0278  -3.0278  -3.0278  -3.0277  -1.1984
    -1.1984  -1.1983  -1.1983  -1.1983  -1.1983  -0.9936  -0.9936  -0.9936
    -0.9935  -0.9935  -0.9934  -0.9934  -0.9934  -0.9934  -0.9934  -0.9934
    -0.9933  -0.4449  -0.4448  -0.4448  -0.4448   1.1715   1.1715   1.1715
     1.1715   1.1715   1.1716   1.1716   1.1716   1.1716   1.1716   1.1716
     1.1716   2.5889   2.5890   2.5890   2.5890   2.5891   2.5891   2.5891
     2.5892   2.5892   2.5892   2.5892   2.5892   2.7167   2.7167   2.7167
     2.7167   2.7167   2.7167   2.7167   2.7167   2.7167   2.7168   2.7168
     2.7168   3.2044   3.2045   3.2045   3.2045   3.2046   3.2046   3.6310
     3.6310   3.6310   3.6310   3.6310   3.6310   4.6345   4.6345   4.6345
     4.6346   4.6346   4.6346   4.6346   4.6346   4.6346   4.6346   4.6346
     4.6346   5.2233   5.2233   5.2233   5.2233   5.2233   5.2234   5.2234
     5.2234   5.2235   5.2235   5.2235   5.2235   5.3587   5.3587   5.3587
     5.3587   5.3587   5.3588   5.3588   5.3588   6.6280   6.6280   6.6280

     highest occupied level (ev):     6.6280

!    total energy              =    -501.99010653 Ry
     estimated scf accuracy    <          1.7E-09 Ry

     The total energy is the sum of the following terms:
     one-electron contribution =     161.37215839 Ry
     hartree contribution      =      34.54413726 Ry
     xc contribution           =    -155.07680492 Ry
     ewald contribution        =    -542.82959726 Ry

     convergence has been achieved in   8 iterations

     Forces acting on atoms (cartesian axes, Ry/au):

     atom    1 type  1   force =     0.00000000    0.00000000    0.00000000
     atom    2 type  1   force =    -0.00001557    0.00001269    0.00001269
     atom    3 type  1   force =     0.00001269   -0.00001557    0.00001269
     atom    4 type  1   force =     0.00001269    0.00001269   -0.00001557
     atom    5 type  1   force =     0.00002247    0.00002247    0.00002247
     atom    6 type  1   force =     0.00000000    0.00000000    0.00000000
     atom    7 type  1   force =    -0.00001335   -0.00002040   -0.00002040
     atom    8 type  1   force =    -0.00001112   -0.00000061   -0.00000061
     atom    9 type  1   force =    -0.00001269    0.00001557    0.00001269
     atom   10 type  1   force =    -0.00001269    0.00001269    0.00001557
     atom   11 type  1   force =     0.00000000    0.00000000    0.00000000
     atom   12 type  1   force =    -0.00002040   -0.00001335   -0.00002040
     atom   13 type  1   force =    -0.00000061   -0.00001112   -0.00000061
     atom   14 type  1   force =     0.00001127    0.00001127   -0.00000622
     atom   15 type  1   force =     0.00000000    0.00000000    0.00000000
     atom   16 type  1   force =    -0.00001127   -0.00001127   -0.00000622
     atom   17 type  1   force =     0.00000061    0.00001112   -0.00000061
     atom   18 type  1   force =     0.00002040    0.00001335   -0.00002040
     atom   19 type  1   force =     0.00001557   -0.00001269    0.00001269
     atom   20 type  1   force =     0.00001269   -0.00001269    0.00001557
     atom   21 type  1   force =     0.00001112    0.00000061   -0.00000061
     atom   22 type  1   force =     0.00001335    0.00002040   -0.00002040
     atom   23 type  1   force =    -0.00001269   -0.00001269   -0.00001557
     atom   24 type  1   force =    -0.00002247   -0.00002247    0.00002247
     atom   25 type  1   force =     0.00000000    0.00000000    0.00000000
     atom   26 type  1   force =    -0.00002040   -0.00002040   -0.00001335
     atom   27 type  1   force =    -0.00000061   -0.00000061   -0.00001112
     atom   28 type  1   force =     0.00001127   -0.00000622    0.00001127
     atom   29 type  1   force =     0.00000000    0.00000000    0.00000000
     atom   30 type  1   force =    -0.00001127   -0.00000622   -0.00001127
     atom   31 type  1   force =     0.00000061   -0.00000061    0.00001112
     atom   32 type  1   force =     0.00002040   -0.00002040    0.00001335
     atom   33 type  1   force =    -0.00000622    0.00001127    0.00001127
     atom   34 type  1   force =     0.00000000    0.00000000    0.00000000
     atom   35 type  1   force =    -0.00000622   -0.00001127   -0.00001127
     atom   36 type  1   force =     0.00003346   -0.00003346   -0.00003346
     atom   37 type  1   force =    -0.00003346    0.00003346   -0.00003346
     atom   38 type  1   force =    -0.00003346   -0.00003346    0.00003346
     atom   39 type  1   force =     0.00000000    0.00000000    0.00000000
     atom   40 type  1   force =     0.00003346    0.00003346    0.00003346
     atom   41 type  1   force =     0.00000622   -0.00001127    0.00001127
     atom   42 type  1   force =     0.00000622    0.00001127   -0.00001127
     atom   43 type  1   force =    -0.00000061    0.00000061    0.00001112
     atom   44 type  1   force =    -0.00002040    0.00002040    0.00001335
     atom   45 type  1   force =    -0.00001127    0.00000622    0.00001127
     atom   46 type  1   force =     0.00001127    0.00000622   -0.00001127
     atom   47 type  1   force =     0.00002040    0.00002040   -0.00001335
     atom   48 type  1   force =     0.00000061    0.00000061   -0.00001112
     atom   49 type  1   force =     0.00001557    0.00001269   -0.00001269
     atom   50 type  1   force =     0.00001269    0.00001557   -0.00001269
     atom   51 type  1   force =     0.00001112   -0.00000061    0.00000061
     atom   52 type  1   force =     0.00001335   -0.00002040    0.00002040
     atom   53 type  1   force =    -0.00001269   -0.00001557   -0.00001269
     atom   54 type  1   force =    -0.00002247    0.00002247   -0.00002247
     atom   55 type  1   force =    -0.00000061    0.00001112    0.00000061
     atom   56 type  1   force =    -0.00002040    0.00001335    0.00002040
     atom   57 type  1   force =    -0.00001127    0.00001127    0.00000622
     atom   58 type  1   force =     0.00001127   -0.00001127    0.00000622
     atom   59 type  1   force =     0.00002040   -0.00001335    0.00002040
     atom   60 type  1   force =     0.00000061   -0.00001112    0.00000061
     atom   61 type  1   force =    -0.00001557   -0.00001269   -0.00001269
     atom   62 type  1   force =     0.00002247   -0.00002247   -0.00002247
     atom   63 type  1   force =    -0.00001335    0.00002040    0.00002040
     atom   64 type  1   force =    -0.00001112    0.00000061    0.00000061

     Total force =     0.000208     Total SCF correction =     0.000021
     SCF correction compared to forces is large: reduce conv_thr to get better values


     Computing stress (Cartesian axis) and pressure

          total   stress  (Ry/bohr**3)                   (kbar)     P=        0.53
   0.00000360   0.00000000   0.00000000            0.53        0.00        0.00
   0.00000000   0.00000360   0.00000000            0.00        0.53        0.00
   0.00000000   0.00000000   0.00000360            0.00        0.00        0.53

     Energy error            =      5.0E-03 Ry
     Gradient error          =      3.3E-05 Ry/Bohr
     Cell gradient error     =      5.3E-01 kbar

     number of scf cycles    =   3
     number of bfgs steps    =   2

     enthalpy           old  =    -501.9850907600 Ry
     enthalpy           new  =    -501.9901065252 Ry

     CASE: enthalpy          _new < enthalpy          _old

     new trust radius        =       0.0027289089 bohr
     new conv_thr            =       0.0000000100 Ry

     new unit-cell volume =   8398.18416 a.u.^3 (  1244.48250 Ang^3 )
     density =      2.39840 g/cm^3

CELL_PARAMETERS (angstrom)
  10.756300607   0.000000000   0.000000000
   0.000000000  10.756300607   0.000000000
   0.000000000   0.000000000  10.756300607

ATOMIC_POSITIONS (angstrom)
Si            0.0000000000        0.0000000000        0.0000000000
Si           -0.0000301380        2.6891465120        2.6891465120
Si            2.6891465120       -0.0000301380        2.6891465120
Si            2.6891465120        2.6891465120       -0.0000301380
Si            1.3445768432        1.3445768432        1.3445768432
Si            5.3781503036        0.0000000000        0.0000000000
Si            5.3781459510        2.6890367767        2.6890367767
Si            6.7226600333        1.3445407098        1.3445407098
Si            8.0671540951        0.0000301380        2.6891465120
Si            8.0671540951        2.6891465120        0.0000301380
Si            0.0000000000        5.3781503036        0.0000000000
Si            2.6890367767        5.3781459510        2.6890367767
Si            1.3445407098        6.7226600333        1.3445407098
Si            4.0336203143        4.0336203143        1.3444802655
Si            5.3781503036        5.3781503036        0.0000000000
Si            6.7226802929        6.7226802929        1.3444802655
Si            9.4117598974        4.0336405739        1.3445407098
Si            8.0672638305        5.3781546561        2.6890367767
Si            0.0000301380        8.0671540951        2.6891465120
Si            2.6891465120        8.0671540951        0.0000301380
Si            4.0336405739        9.4117598974        1.3445407098
Si            5.3781546561        8.0672638305        2.6890367767
Si            8.0671540951        8.0671540951       -0.0000301380
Si            9.4117237640        9.4117237640        1.3445768432
Si            0.0000000000        0.0000000000        5.3781503036
Si            2.6890367767        2.6890367767        5.3781459510
Si            1.3445407098        1.3445407098        6.7226600333
Si            4.0336203143        1.3444802655        4.0336203143
Si            5.3781503036        0.0000000000        5.3781503036
Si            6.7226802929        1.3444802655        6.7226802929
Si            9.4117598974        1.3445407098        4.0336405739
Si            8.0672638305        2.6890367767        5.3781546561
Si            1.3444802655        4.0336203143        4.0336203143
Si            0.0000000000        5.3781503036        5.3781503036
Si            1.3444802655        6.7226802929        6.7226802929
Si            6.7228005268        4.0335000803        4.0335000803
Si            4.0335000803        6.7228005268        4.0335000803
Si            4.0335000803        4.0335000803        6.7228005268
Si            5.3781503036        5.3781503036        5.3781503036
Si            6.7228005268        6.7228005268        6.7228005268
Si            9.4118203417        6.7226802929        4.0336203143
Si            9.4118203417        4.0336203143        6.7226802929
Si            1.3445407098        9.4117598974        4.0336405739
Si            2.6890367767        8.0672638305        5.3781546561
Si            6.7226802929        9.4118203417        4.0336203143
Si            4.0336203143        9.4118203417        6.7226802929
Si            8.0672638305        8.0672638305        5.3781459510
Si            9.4117598974        9.4117598974        6.7226600333
Si            0.0000301380        2.6891465120        8.0671540951
Si            2.6891465120        0.0000301380        8.0671540951
Si            4.0336405739        1.3445407098        9.4117598974
Si            5.3781546561        2.6890367767        8.0672638305
Si            8.0671540951       -0.0000301380        8.0671540951
Si            9.4117237640        1.3445768432        9.4117237640
Si            1.3445407098        4.0336405739        9.4117598974
Si            2.6890367767        5.3781546561        8.0672638305
Si            6.7226802929        4.0336203143        9.4118203417
Si            4.0336203143        6.7226802929        9.4118203417
Si            8.0672638305        5.3781459510        8.0672638305
Si            9.4117598974        6.7226600333        9.4117598974
Si           -0.0000301380        8.0671540951        8.0671540951
Si            1.3445768432        9.4117237640        9.4117237640
Si            5.3781459510        8.0672638305        8.0672638305
Si            6.7226600333        9.4117598974        9.4117598974



     Writing config-only to output data dir ./pwscf.save/
     NEW-OLD atomic charge density approx. for the potential
     extrapolated charge  256.11432, renormalised to  256.00000

     total cpu time spent up to now is        7.1 secs

     Self-consistent Calculation

     iteration #  1     ecut=    10.00 Ry     beta= 0.50
     Davidson diagonalization with overlap
     ethr =  1.00E-06,  avg # of iterations =  1.0

     Threshold (ethr) on eigenvalues was too large:
     Diagonalizing with lowered threshold

     Davidson diagonalization with overlap
     ethr =  9.22E-10,  avg # of iterations =  3.0

     total cpu time spent up to now is        7.2 secs

     total energy              =    -501.99010925 Ry
     estimated scf accuracy    <       0.00000236 Ry

     iteration #  2     ecut=    10.00 Ry     beta= 0.50
     Davidson diagonalization with overlap
     ethr =  9.20E-10,  avg # of iterations =  3.0

     total cpu time spent up to now is        7.3 secs

     total energy              =    -501.99011316 Ry
     estimated scf accuracy    <       0.00000074 Ry

     iteration #  3     ecut=    10.00 Ry     beta= 0.50
     Davidson diagonalization with overlap
     ethr =  2.91E-10,  avg # of iterations =  1.0

     total cpu time spent up to now is        7.3 secs

     total energy              =    -501.99011308 Ry
     estimated scf accuracy    <       0.00000031 Ry

     iteration #  4     ecut=    10.00 Ry     beta= 0.50
     Davidson diagonalization with overlap
     ethr =  1.20E-10,  avg # of iterations =  2.0

     total cpu time spent up to now is        7.4 secs

     End of self-consistent calculation

          k = 0.0000 0.0000 0.0000 (  2313 PWs)   bands (ev):

    -5.4348  -4.3525  -4.3525  -4.3524  -4.3524  -4.3524  -4.3520  -3.3392
    -3.3392  -3.3392  -3.3392  -3.3392  -3.3391  -3.3391  -3.3391  -3.3389
    -3.3389  -3.3389  -3.3387  -3.0304  -3.0304  -3.0304  -3.0303  -1.2015
    -1.2015  -1.2015  -1.2015  -1.2015  -1.2014  -0.9970  -0.9970  -0.9970
    -0.9968  -0.9968  -0.9967  -0.9967  -0.9967  -0.9967  -0.9967  -0.9967
    -0.9966  -0.4473  -0.4473  -0.4473  -0.4473   1.1677   1.1677   1.1677
     1.1677   1.1677   1.1678   1.1678   1.1678   1.1678   1.1678   1.1678
     1.1679   2.5860   2.5861   2.5861   2.5861   2.5862   2.5862   2.5862
     2.5863   2.5863   2.5863   2.5863   2.5863   2.7136   2.7136   2.7136
     2.7136   2.7136   2.7137   2.7137   2.7137   2.7137   2.7138   2.7138
     2.7138   3.1997   3.1999   3.1999   3.1999   3.1999   3.1999   3.6274
     3.6274   3.6274   3.6274   3.6274   3.6274   4.6306   4.6306   4.6306
     4.6306   4.6306   4.6306   4.6306   4.6306   4.6306   4.6307   4.6307
     4.6307   5.2190   5.2190   5.2190   5.2191   5.2191   5.2191   5.2191
     5.2191   5.2192   5.2192   5.2192   5.2192   5.3543   5.3543   5.3543
     5.3543   5.3543   5.3544   5.3544   5.3544   6.6231   6.6231   6.6231

     highest occupied level (ev):     6.6231

!    total energy              =    -501.99011310 Ry
     estimated scf accuracy    <          6.6E-09 Ry

     The total energy is the sum of the following terms:
     one-electron contribution =     161.26458326 Ry
     hartree contribution      =      34.55509290 Ry
     xc contribution           =    -155.06102040 Ry
     ewald contribution        =    -542.74876885 Ry

     convergence has been achieved in   4 iterations

     Forces acting on atoms (cartesian axes, Ry/au):

     atom    1 type  1   force =     0.00000000    0.00000000    0.00000000
     atom    2 type  1   force =    -0.00001237    0.00001274    0.00001274
     atom    3 type  1   force =     0.00001274   -0.00001237    0.00001274
     atom    4 type  1   force =     0.00001274    0.00001274   -0.00001237
     atom    5 type  1   force =     0.00001835    0.00001835    0.00001835
     atom    6 type  1   force =     0.00000000    0.00000000    0.00000000
     atom    7 type  1   force =    -0.00001134   -0.00001667   -0.00001667
     atom    8 type  1   force =    -0.00000935   -0.00000217   -0.00000217
     atom    9 type  1   force =    -0.00001274    0.00001237    0.00001274
     atom   10 type  1   force =    -0.00001274    0.00001274    0.00001237
     atom   11 type  1   force =     0.00000000    0.00000000    0.00000000
     atom   12 type  1   force =    -0.00001667   -0.00001134   -0.00001667
     atom   13 type  1   force =    -0.00000217   -0.00000935   -0.00000217
     atom   14 type  1   force =     0.00000788    0.00000788   -0.00000721
     atom   15 type  1   force =     0.00000000    0.00000000    0.00000000
     atom   16 type  1   force =    -0.00000788   -0.00000788   -0.00000721
     atom   17 type  1   force =     0.00000217    0.00000935   -0.00000217
     atom   18 type  1   force =     0.00001667    0.00001134   -0.00001667
     atom   19 type  1   force =     0.00001237   -0.00001274    0.00001274
     atom   20 type  1   force =     0.00001274   -0.00001274    0.00001237
     atom   21 type  1   force =     0.00000935    0.00000217   -0.00000217
     atom   22 type  1   force =     0.00001134    0.00001667   -0.00001667
     atom   23 type  1   force =    -0.00001274   -0.00001274   -0.00001237
     atom   24 type  1   force =    -0.00001835   -0.00001835    0.00001835
     atom   25 type  1   force =     0.00000000    0.00000000    0.00000000
     atom   26 type  1   force =    -0.00001667   -0.00001667   -0.00001134
     atom   27 type  1   force =    -0.00000217   -0.00000217   -0.00000935
     atom   28 type  1   force =     0.00000788   -0.00000721    0.00000788
     atom   29 type  1   force =     0.00000000    0.00000000    0.00000000
     atom   30 type  1   force =    -0.00000788   -0.00000721   -0.00000788
     atom   31 type  1   force =     0.00000217   -0.00000217    0.00000935
     atom   32 type  1   force =     0.00001667   -0.00001667    0.00001134
     atom   33 type  1   force =    -0.00000721    0.00000788    0.00000788
     atom   34 type  1   force =     0.00000000    0.00000000    0.00000000
     atom   35 type  1   force =    -0.00000721   -0.00000788   -0.00000788
     atom   36 type  1   force =     0.00002809   -0.00002809   -0.00002809
     atom   37 type  1   force =    -0.00002809    0.00002809   -0.00002809
     atom   38 type  1   force =    -0.00002809   -0.00002809    0.00002809
     atom   39 type  1   force =     0.00000000    0.00000000    0.00000000
     atom   40 type  1   force =     0.00002809    0.00002809    0.00002809
     atom   41 type  1   force =     0.00000721   -0.00000788    0.00000788
     atom   42 type  1   force =     0.00000721    0.00000788   -0.00000788
     atom   43 type  1   force =    -0.00000217    0.00000217    0.00000935
     atom   44 type  1   force =    -0.00001667    0.00001667    0.00001134
     atom   45 type  1   force =    -0.00000788    0.00000721    0.00000788
     atom   46 type  1   force =     0.00000788    0.00000721   -0.00000788
     atom   47 type  1   force =     0.00001667    0.00001667   -0.00001134
     atom   48 type  1   force =     0.00000217    0.00000217   -0.00000935
     atom   49 type  1   force =     0.00001237    0.00001274   -0.00001274
     atom   50 type  1   force =     0.00001274    0.00001237   -0.00001274
     atom   51 type  1   force =     0.00000935   -0.00000217    0.00000217
     atom   52 type  1   force =     0.00001134   -0.00001667    0.00001667
     atom   53 type  1   force =    -0.00001274   -0.00001237   -0.00001274
     atom   54 type  1   force =    -0.00001835    0.00001835   -0.00001835
     atom   55 type  1   force =    -0.00000217    0.00000935    0.00000217
     atom   56 type  1   force =    -0.00001667    0.00001134    0.00001667
     atom   57 type  1   force =    -0.00000788    0.00000788    0.00000721
     atom   58 type  1   force =     0.00000788   -0.00000788    0.00000721
     atom   59 type  1   force =     0.00001667   -0.00001134    0.00001667
     atom   60 type  1   force =     0.00000217   -0.00000935    0.00000217
     atom   61 type  1   force =    -0.00001237   -0.00001274   -0.00001274
     atom   62 type  1   force =     0.00001835   -0.00001835   -0.00001835
     atom   63 type  1   force =    -0.00001134    0.00001667    0.00001667
     atom   64 type  1   force =    -0.00000935    0.00000217    0.00000217

     Total force =     0.000175     Total SCF correction =     0.000036
     SCF correction compared to forces is large: reduce conv_thr to get better values


     Computing stress (Cartesian axis) and pressure

          total   stress  (Ry/bohr**3)                   (kbar)     P=       -0.02
  -0.00000013   0.00000000   0.00000000           -0.02        0.00        0.00
   0.00000000  -0.00000013   0.00000000            0.00       -0.02        0.00
   0.00000000   0.00000000  -0.00000013            0.00        0.00       -0.02

     Energy error            =      6.6E-06 Ry
     Gradient error          =      2.8E-05 Ry/Bohr
     Cell gradient error     =      1.9E-02 kbar

     bfgs converged in   4 scf cycles and   3 bfgs steps
     (criteria: energy <  1.0E-04 Ry, force <  1.0E-03 Ry/Bohr, cell <  5.0E-01 kbar)

     End of BFGS Geometry Optimization

     Final enthalpy           =    -501.9901130994 Ry

     File ./pwscf.bfgs deleted, as requested
Begin final coordinates
     new unit-cell volume =   8398.18416 a.u.^3 (  1244.48250 Ang^3 )
     density =      2.39840 g/cm^3

CELL_PARAMETERS (angstrom)
  10.756300607   0.000000000   0.000000000
   0.000000000  10.756300607   0.000000000
   0.000000000   0.000000000  10.756300607

ATOMIC_POSITIONS (angstrom)
Si            0.0000000000        0.0000000000        0.0000000000
Si           -0.0000301380        2.6891465120        2.6891465120
Si            2.6891465120       -0.0000301380        2.6891465120
Si            2.6891465120        2.6891465120       -0.0000301380
Si            1.3445768432        1.3445768432        1.3445768432
Si            5.3781503036        0.0000000000        0.0000000000
Si            5.3781459510        2.6890367767        2.6890367767
Si            6.7226600333        1.3445407098        1.3445407098
Si            8.0671540951        0.0000301380        2.6891465120
Si            8.0671540951        2.6891465120        0.0000301380
Si            0.0000000000        5.3781503036        0.0000000000
Si            2.6890367767        5.3781459510        2.6890367767
Si            1.3445407098        6.7226600333        1.3445407098
Si            4.0336203143        4.0336203143        1.3444802655
Si            5.3781503036        5.3781503036        0.0000000000
Si            6.7226802929        6.7226802929        1.3444802655
Si            9.4117598974        4.0336405739        1.3445407098
Si            8.0672638305        5.3781546561        2.6890367767
Si            0.0000301380        8.0671540951        2.6891465120
Si            2.6891465120        8.0671540951        0.0000301380
Si            4.0336405739        9.4117598974        1.3445407098
Si            5.3781546561        8.0672638305        2.6890367767
Si            8.0671540951        8.0671540951       -0.0000301380
Si            9.4117237640        9.4117237640        1.3445768432
Si            0.0000000000        0.0000000000        5.3781503036
Si            2.6890367767        2.6890367767        5.3781459510
Si            1.3445407098        1.3445407098        6.7226600333
Si            4.0336203143        1.3444802655        4.0336203143
Si            5.3781503036        0.0000000000        5.3781503036
Si            6.7226802929        1.3444802655        6.7226802929
Si            9.4117598974        1.3445407098        4.0336405739
Si            8.0672638305        2.6890367767        5.3781546561
Si            1.3444802655        4.0336203143        4.0336203143
Si            0.0000000000        5.3781503036        5.3781503036
Si            1.3444802655        6.7226802929        6.7226802929
Si            6.7228005268        4.0335000803        4.0335000803
Si            4.0335000803        6.7228005268        4.0335000803
Si            4.0335000803        4.0335000803        6.7228005268
Si            5.3781503036        5.3781503036        5.3781503036
Si            6.7228005268        6.7228005268        6.7228005268
Si            9.4118203417        6.7226802929        4.0336203143
Si            9.4118203417        4.0336203143        6.7226802929
Si            1.3445407098        9.4117598974        4.0336405739
Si            2.6890367767        8.0672638305        5.3781546561
Si            6.7226802929        9.4118203417        4.0336203143
Si            4.0336203143        9.4118203417        6.7226802929
Si            8.0672638305        8.0672638305        5.3781459510
Si            9.4117598974        9.4117598974        6.7226600333
Si            0.0000301380        2.6891465120        8.0671540951
Si            2.6891465120        0.0000301380        8.0671540951
Si            4.0336405739        1.3445407098        9.4117598974
Si            5.3781546561        2.6890367767        8.0672638305
Si            8.0671540951       -0.0000301380        8.0671540951
Si            9.4117237640        1.3445768432        9.4117237640
Si            1.3445407098        4.0336405739        9.4117598974
Si            2.6890367767        5.3781546561        8.0672638305
Si            6.7226802929        4.0336203143        9.4118203417
Si            4.0336203143        6.7226802929        9.4118203417
Si            8.0672638305        5.3781459510        8.0672638305
Si            9.4117598974        6.7226600333        9.4117598974
Si           -0.0000301380        8.0671540951        8.0671540951
Si            1.3445768432        9.4117237640        9.4117237640
Si            5.3781459510        8.0672638305        8.0672638305
Si            6.7226600333        9.4117598974        9.4117598974
End final coordinates



     Writing config-only to output data dir ./pwscf.save/

     Final scf calculation at the relaxed structure.
     The G-vectors are recalculated for the final unit cell
     Results may differ from those at the preceding step.
 
     Parallelization info
     --------------------
     sticks:   dense  smooth     PW     G-vecs:    dense   smooth      PW
     Min         655     655    178                17911    17911    2590
     Max         658     658    179                17914    17914    2595
     Sum        1313    1313    357                35825    35825    5185
 
     Using Slab Decomposition
 


     bravais-lattice index     =            0
     lattice parameter (alat)  =      20.5251  a.u.
     unit-cell volume          =    8398.1842 (a.u.)^3
     number of atoms/cell      =           64
     number of atomic types    =            1
     number of electrons       =       256.00
     number of Kohn-Sham states=          128
     kinetic-energy cutoff     =      10.0000  Ry
     charge density cutoff     =      40.0000  Ry
     scf convergence threshold =      1.0E-08
     mixing beta               =       0.5000
     number of iterations used =            8  plain     mixing
     press convergence thresh. =      5.0E-01
     Exchange-correlation= PBE
                           (   1   4   3   4   0   0   0)

     GPU acceleration is ACTIVE.
     GPU-aware MPI enabled

     Message from routine print_cuda_info:
     High GPU oversubscription detected. Are you sure this is what you want?

     celldm(1)=  20.525071  celldm(2)=   0.000000  celldm(3)=   0.000000
     celldm(4)=   0.000000  celldm(5)=   0.000000  celldm(6)=   0.000000

     crystal axes: (cart. coord. in units of alat)
               a(1) = (   0.990324   0.000000   0.000000 )  
               a(2) = (   0.000000   0.990324   0.000000 )  
               a(3) = (   0.000000   0.000000   0.990324 )  

     reciprocal axes: (cart. coord. in units 2 pi/alat)
               b(1) = (  1.009771  0.000000  0.000000 )  
               b(2) = (  0.000000  1.009771  0.000000 )  
               b(3) = (  0.000000  0.000000  1.009771 )  


     PseudoPot. # 1 for Si read from file:
     /home/ppiaggi/pseudos/Si_ONCV_PBE_sr.upf
     MD5 check sum: 8553c464762ac42b85b1eed164b4d029
     Pseudo is Norm-conserving, Zval =  4.0
     Generated using ONCVPSP code by D. R. Hamann
     Using radial grid of 1510 points,  4 beta functions with: 
                l(1) =   0
                l(2) =   0
                l(3) =   1
                l(4) =   1

     atomic species   valence    mass     pseudopotential
        Si             4.00    28.08550     Si( 1.00)

     24 Sym. Ops. (no inversion) found



   Cartesian axes

     site n.     atom                  positions (alat units)
         1           Si  tau(   1) = (   0.0000000   0.0000000   0.0000000  )
         2           Si  tau(   2) = (  -0.0000028   0.2475875   0.2475875  )
         3           Si  tau(   3) = (   0.2475875  -0.0000028   0.2475875  )
         4           Si  tau(   4) = (   0.2475875   0.2475875  -0.0000028  )
         5           Si  tau(   5) = (   0.1237941   0.1237941   0.1237941  )
         6           Si  tau(   6) = (   0.4951618   0.0000000   0.0000000  )
         7           Si  tau(   7) = (   0.4951614   0.2475774   0.2475774  )
         8           Si  tau(   8) = (   0.6189497   0.1237907   0.1237907  )
         9           Si  tau(   9) = (   0.7427361   0.0000028   0.2475875  )
        10           Si  tau(  10) = (   0.7427361   0.2475875   0.0000028  )
        11           Si  tau(  11) = (   0.0000000   0.4951618   0.0000000  )
        12           Si  tau(  12) = (   0.2475774   0.4951614   0.2475774  )
        13           Si  tau(  13) = (   0.1237907   0.6189497   0.1237907  )
        14           Si  tau(  14) = (   0.3713720   0.3713720   0.1237852  )
        15           Si  tau(  15) = (   0.4951618   0.4951618   0.0000000  )
        16           Si  tau(  16) = (   0.6189515   0.6189515   0.1237852  )
        17           Si  tau(  17) = (   0.8665329   0.3713739   0.1237907  )
        18           Si  tau(  18) = (   0.7427462   0.4951622   0.2475774  )
        19           Si  tau(  19) = (   0.0000028   0.7427361   0.2475875  )
        20           Si  tau(  20) = (   0.2475875   0.7427361   0.0000028  )
        21           Si  tau(  21) = (   0.3713739   0.8665329   0.1237907  )
        22           Si  tau(  22) = (   0.4951622   0.7427462   0.2475774  )
        23           Si  tau(  23) = (   0.7427361   0.7427361  -0.0000028  )
        24           Si  tau(  24) = (   0.8665295   0.8665295   0.1237941  )
        25           Si  tau(  25) = (   0.0000000   0.0000000   0.4951618  )
        26           Si  tau(  26) = (   0.2475774   0.2475774   0.4951614  )
        27           Si  tau(  27) = (   0.1237907   0.1237907   0.6189497  )
        28           Si  tau(  28) = (   0.3713720   0.1237852   0.3713720  )
        29           Si  tau(  29) = (   0.4951618   0.0000000   0.4951618  )
        30           Si  tau(  30) = (   0.6189515   0.1237852   0.6189515  )
        31           Si  tau(  31) = (   0.8665329   0.1237907   0.3713739  )
        32           Si  tau(  32) = (   0.7427462   0.2475774   0.4951622  )
        33           Si  tau(  33) = (   0.1237852   0.3713720   0.3713720  )
        34           Si  tau(  34) = (   0.0000000   0.4951618   0.4951618  )
        35           Si  tau(  35) = (   0.1237852   0.6189515   0.6189515  )
        36           Si  tau(  36) = (   0.6189626   0.3713610   0.3713610  )
        37           Si  tau(  37) = (   0.3713610   0.6189626   0.3713610  )
        38           Si  tau(  38) = (   0.3713610   0.3713610   0.6189626  )
        39           Si  tau(  39) = (   0.4951618   0.4951618   0.4951618  )
        40           Si  tau(  40) = (   0.6189626   0.6189626   0.6189626  )
        41           Si  tau(  41) = (   0.8665384   0.6189515   0.3713720  )
        42           Si  tau(  42) = (   0.8665384   0.3713720   0.6189515  )
        43           Si  tau(  43) = (   0.1237907   0.8665329   0.3713739  )
        44           Si  tau(  44) = (   0.2475774   0.7427462   0.4951622  )
        45           Si  tau(  45) = (   0.6189515   0.8665384   0.3713720  )
        46           Si  tau(  46) = (   0.3713720   0.8665384   0.6189515  )
        47           Si  tau(  47) = (   0.7427462   0.7427462   0.4951614  )
        48           Si  tau(  48) = (   0.8665329   0.8665329   0.6189497  )
        49           Si  tau(  49) = (   0.0000028   0.2475875   0.7427361  )
        50           Si  tau(  50) = (   0.2475875   0.0000028   0.7427361  )
        51           Si  tau(  51) = (   0.3713739   0.1237907   0.8665329  )
        52           Si  tau(  52) = (   0.4951622   0.2475774   0.7427462  )
        53           Si  tau(  53) = (   0.7427361  -0.0000028   0.7427361  )
        54           Si  tau(  54) = (   0.8665295   0.1237941   0.8665295  )
        55           Si  tau(  55) = (   0.1237907   0.3713739   0.8665329  )
        56           Si  tau(  56) = (   0.2475774   0.4951622   0.7427462  )
        57           Si  tau(  57) = (   0.6189515   0.3713720   0.8665384  )
        58           Si  tau(  58) = (   0.3713720   0.6189515   0.8665384  )
        59           Si  tau(  59) = (   0.7427462   0.4951614   0.7427462  )
        60           Si  tau(  60) = (   0.8665329   0.6189497   0.8665329  )
        61           Si  tau(  61) = (  -0.0000028   0.7427361   0.7427361  )
        62           Si  tau(  62) = (   0.1237941   0.8665295   0.8665295  )
        63           Si  tau(  63) = (   0.4951614   0.7427462   0.7427462  )
        64           Si  tau(  64) = (   0.6189497   0.8665329   0.8665329  )

     number of k points=     1
                       cart. coord. in units 2pi/alat
        k(    1) = (   0.0000000   0.0000000   0.0000000), wk =   2.0000000

     Dense  grid:    17913 G-vectors     FFT dimensions: (  45,  45,  45)

     Estimated max dynamical RAM per process >      28.99 MB

     Estimated total dynamical RAM >     111.58 MB

     Initial potential from superposition of free atoms

     starting charge     255.9608, renormalised to     256.0000
     Starting wfcs are  256 randomized atomic wfcs

     total cpu time spent up to now is        7.6 secs

     Self-consistent Calculation

     iteration #  1     ecut=    10.00 Ry     beta= 0.50
     Davidson diagonalization with overlap
     ethr =  1.00E-06,  avg # of iterations =  8.0

     total cpu time spent up to now is        7.7 secs

     total energy              =    -501.81257839 Ry
     estimated scf accuracy    <       1.98915550 Ry

     iteration #  2     ecut=    10.00 Ry     beta= 0.50
     Davidson diagonalization with overlap
     ethr =  7.77E-04,  avg # of iterations =  1.0

     total cpu time spent up to now is        7.8 secs

     total energy              =    -501.79403144 Ry
     estimated scf accuracy    <       0.36451420 Ry

     iteration #  3     ecut=    10.00 Ry     beta= 0.50
     Davidson diagonalization with overlap
     ethr =  1.42E-04,  avg # of iterations =  1.0

     total cpu time spent up to now is        7.8 secs

     total energy              =    -501.81388801 Ry
     estimated scf accuracy    <       0.00492624 Ry

     iteration #  4     ecut=    10.00 Ry     beta= 0.50
     Davidson diagonalization with overlap
     ethr =  1.92E-06,  avg # of iterations =  3.0

     total cpu time spent up to now is        7.9 secs

     total energy              =    -501.81600881 Ry
     estimated scf accuracy    <       0.00008135 Ry

     iteration #  5     ecut=    10.00 Ry     beta= 0.50
     Davidson diagonalization with overlap
     ethr =  3.18E-08,  avg # of iterations =  6.0

     total cpu time spent up to now is        8.0 secs

     total energy              =    -501.81608599 Ry
     estimated scf accuracy    <       0.00000749 Ry

     iteration #  6     ecut=    10.00 Ry     beta= 0.50
     Davidson diagonalization with overlap
     ethr =  2.92E-09,  avg # of iterations =  3.0

     total cpu time spent up to now is        8.0 secs

     total energy              =    -501.81608763 Ry
     estimated scf accuracy    <       0.00000122 Ry

     iteration #  7     ecut=    10.00 Ry     beta= 0.50
     Davidson diagonalization with overlap
     ethr =  4.75E-10,  avg # of iterations =  4.0

     total cpu time spent up to now is        8.1 secs

     total energy              =    -501.81608774 Ry
     estimated scf accuracy    <       0.00000043 Ry

     iteration #  8     ecut=    10.00 Ry     beta= 0.50
     Davidson diagonalization with overlap
     ethr =  1.70E-10,  avg # of iterations =  2.0

     total cpu time spent up to now is        8.1 secs

     total energy              =    -501.81608776 Ry
     estimated scf accuracy    <       0.00000005 Ry

     iteration #  9     ecut=    10.00 Ry     beta= 0.50
     Davidson diagonalization with overlap
     ethr =  1.87E-11,  avg # of iterations =  5.0

     total cpu time spent up to now is        8.2 secs

     End of self-consistent calculation

          k = 0.0000 0.0000 0.0000 (  2229 PWs)   bands (ev):

    -5.4378  -4.2872  -4.2871  -4.2870  -4.2870  -4.2870  -4.2867  -3.3174
    -3.3174  -3.3174  -3.3174  -3.3174  -3.3173  -3.3173  -3.3173  -3.3172
    -3.3171  -3.3171  -3.3169  -3.0340  -3.0340  -3.0340  -3.0339  -1.2051
    -1.2051  -1.2051  -1.2051  -1.2051  -1.2050  -1.0008  -1.0008  -1.0008
    -1.0007  -1.0007  -1.0005  -1.0005  -1.0005  -1.0005  -1.0005  -1.0005
    -1.0004  -0.4497  -0.4496  -0.4496  -0.4496   1.1787   1.1787   1.1787
     1.1787   1.1787   1.1787   1.1787   1.1787   1.1788   1.1788   1.1788
     1.1788   2.5841   2.5842   2.5842   2.5842   2.5843   2.5843   2.5843
     2.5844   2.5844   2.5845   2.5845   2.5845   2.7186   2.7186   2.7186
     2.7187   2.7187   2.7187   2.7187   2.7187   2.7187   2.7188   2.7188
     2.7188   3.2184   3.2185   3.2185   3.2185   3.2185   3.2185   3.6246
     3.6246   3.6246   3.6246   3.6246   3.6246   4.6311   4.6311   4.6311
     4.6311   4.6311   4.6311   4.6311   4.6311   4.6311   4.6312   4.6312
     4.6312   5.2181   5.2181   5.2181   5.2181   5.2181   5.2182   5.2182
     5.2182   5.2183   5.2183   5.2183   5.2183   5.3506   5.3506   5.3506
     5.3506   5.3506   5.3507   5.3507   5.3507   6.6191   6.6191   6.6191

     highest occupied level (ev):     6.6191

!    total energy              =    -501.81608777 Ry
     estimated scf accuracy    <          2.3E-09 Ry

     The total energy is the sum of the following terms:
     one-electron contribution =     161.47454957 Ry
     hartree contribution      =      34.48937387 Ry
     xc contribution           =    -155.03124235 Ry
     ewald contribution        =    -542.74876885 Ry

     convergence has been achieved in   9 iterations

     Forces acting on atoms (cartesian axes, Ry/au):

     atom    1 type  1   force =     0.00000000    0.00000000    0.00000000
     atom    2 type  1   force =    -0.00001115    0.00001884    0.00001884
     atom    3 type  1   force =     0.00001884   -0.00001115    0.00001884
     atom    4 type  1   force =     0.00001884    0.00001884   -0.00001115
     atom    5 type  1   force =     0.00001243    0.00001243    0.00001243
     atom    6 type  1   force =     0.00000000    0.00000000    0.00000000
     atom    7 type  1   force =    -0.00001106   -0.00000845   -0.00000845
     atom    8 type  1   force =    -0.00000334   -0.00000800   -0.00000800
     atom    9 type  1   force =    -0.00001884    0.00001115    0.00001884
     atom   10 type  1   force =    -0.00001884    0.00001884    0.00001115
     atom   11 type  1   force =     0.00000000    0.00000000    0.00000000
     atom   12 type  1   force =    -0.00000845   -0.00001106   -0.00000845
     atom   13 type  1   force =    -0.00000800   -0.00000334   -0.00000800
     atom   14 type  1   force =     0.00000169    0.00000169   -0.00001228
     atom   15 type  1   force =     0.00000000    0.00000000    0.00000000
     atom   16 type  1   force =    -0.00000169   -0.00000169   -0.00001228
     atom   17 type  1   force =     0.00000800    0.00000334   -0.00000800
     atom   18 type  1   force =     0.00000845    0.00001106   -0.00000845
     atom   19 type  1   force =     0.00001115   -0.00001884    0.00001884
     atom   20 type  1   force =     0.00001884   -0.00001884    0.00001115
     atom   21 type  1   force =     0.00000334    0.00000800   -0.00000800
     atom   22 type  1   force =     0.00001106    0.00000845   -0.00000845
     atom   23 type  1   force =    -0.00001884   -0.00001884   -0.00001115
     atom   24 type  1   force =    -0.00001243   -0.00001243    0.00001243
     atom   25 type  1   force =     0.00000000    0.00000000    0.00000000
     atom   26 type  1   force =    -0.00000845   -0.00000845   -0.00001106
     atom   27 type  1   force =    -0.00000800   -0.00000800   -0.00000334
     atom   28 type  1   force =     0.00000169   -0.00001228    0.00000169
     atom   29 type  1   force =     0.00000000    0.00000000    0.00000000
     atom   30 type  1   force =    -0.00000169   -0.00001228   -0.00000169
     atom   31 type  1   force =     0.00000800   -0.00000800    0.00000334
     atom   32 type  1   force =     0.00000845   -0.00000845    0.00001106
     atom   33 type  1   force =    -0.00001228    0.00000169    0.00000169
     atom   34 type  1   force =     0.00000000    0.00000000    0.00000000
     atom   35 type  1   force =    -0.00001228   -0.00000169   -0.00000169
     atom   36 type  1   force =     0.00002106   -0.00002106   -0.00002106
     atom   37 type  1   force =    -0.00002106    0.00002106   -0.00002106
     atom   38 type  1   force =    -0.00002106   -0.00002106    0.00002106
     atom   39 type  1   force =     0.00000000    0.00000000    0.00000000
     atom   40 type  1   force =     0.00002106    0.00002106    0.00002106
     atom   41 type  1   force =     0.00001228   -0.00000169    0.00000169
     atom   42 type  1   force =     0.00001228    0.00000169   -0.00000169
     atom   43 type  1   force =    -0.00000800    0.00000800    0.00000334
     atom   44 type  1   force =    -0.00000845    0.00000845    0.00001106
     atom   45 type  1   force =    -0.00000169    0.00001228    0.00000169
     atom   46 type  1   force =     0.00000169    0.00001228   -0.00000169
     atom   47 type  1   force =     0.00000845    0.00000845   -0.00001106
     atom   48 type  1   force =     0.00000800    0.00000800   -0.00000334
     atom   49 type  1   force =     0.00001115    0.00001884   -0.00001884
     atom   50 type  1   force =     0.00001884    0.00001115   -0.00001884
     atom   51 type  1   force =     0.00000334   -0.00000800    0.00000800
     atom   52 type  1   force =     0.00001106   -0.00000845    0.00000845
     atom   53 type  1   force =    -0.00001884   -0.00001115   -0.00001884
     atom   54 type  1   force =    -0.00001243    0.00001243   -0.00001243
     atom   55 type  1   force =    -0.00000800    0.00000334    0.00000800
     atom   56 type  1   force =    -0.00000845    0.00001106    0.00000845
     atom   57 type  1   force =    -0.00000169    0.00000169    0.00001228
     atom   58 type  1   force =     0.00000169   -0.00000169    0.00001228
     atom   59 type  1   force =     0.00000845   -0.00001106    0.00000845
     atom   60 type  1   force =     0.00000800   -0.00000334    0.00000800
     atom   61 type  1   force =    -0.00001115   -0.00001884   -0.00001884
     atom   62 type  1   force =     0.00001243   -0.00001243   -0.00001243
     atom   63 type  1   force =    -0.00001106    0.00000845    0.00000845
     atom   64 type  1   force =    -0.00000334    0.00000800    0.00000800

     Total force =     0.000155     Total SCF correction =     0.000029
     SCF correction compared to forces is large: reduce conv_thr to get better values


     Computing stress (Cartesian axis) and pressure

          total   stress  (Ry/bohr**3)                   (kbar)     P=       -3.73
  -0.00002535   0.00000000   0.00000000           -3.73        0.00        0.00
   0.00000000  -0.00002535   0.00000000            0.00       -3.73        0.00
   0.00000000   0.00000000  -0.00002535            0.00        0.00       -3.73


     Writing all to output data dir ./pwscf.save/
 
     init_run     :      0.90s CPU      4.93s WALL (       2 calls)
     electrons    :      1.92s CPU      2.13s WALL (       5 calls)
     update_pot   :      0.56s CPU      0.57s WALL (       3 calls)
     forces       :      0.11s CPU      0.11s WALL (       5 calls)
     stress       :      0.20s CPU      0.20s WALL (       5 calls)

     Called by init_run:
     wfcinit      :      0.54s CPU      4.40s WALL (       2 calls)
                                        4.40s GPU  (       2 calls)
     potinit      :      0.19s CPU      0.29s WALL (       2 calls)
     hinit0       :      0.15s CPU      0.18s WALL (       2 calls)

     Called by electrons:
     c_bands      :      1.32s CPU      1.44s WALL (      36 calls)
     sum_band     :      0.42s CPU      0.45s WALL (      36 calls)
     v_of_rho     :      0.15s CPU      0.26s WALL (      39 calls)
     mix_rho      :      0.04s CPU      0.05s WALL (      36 calls)

     Called by c_bands:
     init_us_2    :      0.13s CPU      0.14s WALL (      74 calls)
     init_us_2:gp :      0.13s CPU      0.14s WALL (      74 calls)
     regterg      :      1.08s CPU      1.19s WALL (      36 calls)

     Called by *egterg:
     rdiaghg      :      0.53s CPU      1.35s WALL (     134 calls)
                                        1.33s GPU  (     134 calls)
     h_psi        :      0.93s CPU      4.05s WALL (     141 calls)
                                        4.05s GPU  (     141 calls)
     g_psi        :      0.00s CPU      0.00s WALL (     103 calls)
                                        0.00s GPU  (     103 calls)

     Called by h_psi:
     h_psi:calbec :      0.52s CPU      3.57s WALL (     141 calls)
                                        3.57s GPU  (     141 calls)
     vloc_psi     :      0.34s CPU      0.41s WALL (     141 calls)
                                        0.41s GPU  (     141 calls)
     add_vuspsi   :      0.05s CPU      0.06s WALL (     141 calls)
                                        0.06s GPU  (     141 calls)

     General routines
     calbec       :      0.53s CPU      3.58s WALL (     166 calls)
     fft          :      0.22s CPU      0.36s WALL (     347 calls)
                                        0.16s GPU  (     228 calls)
     ffts         :      0.02s CPU      0.03s WALL (      36 calls)
     fftw         :      0.48s CPU      0.64s WALL (    3200 calls)
                                        0.59s GPU  (    3200 calls)
 
     Parallel routines
 
     PWSCF        :      3.94s CPU      8.30s WALL

 
   This run was terminated on:  14:30:41   8May2023            

=------------------------------------------------------------------------------=
   JOB DONE.
=------------------------------------------------------------------------------=
Warning: ieee_inexact is signaling
Warning: ieee_inexact is signaling
FORTRAN STOP
Warning: ieee_inexact is signaling
FORTRAN STOP
Warning: ieee_divide_by_zero is signaling
Warning: ieee_inexact is signaling
FORTRAN STOP
FORTRAN STOP
