
     Program PWSCF v.7.0 starts on 22Jun2023 at 14:32:31 

     This program is part of the open-source Quantum ESPRESSO suite
     for quantum simulation of materials; please cite
         "P. Giannozzi et al., J. Phys.:Condens. Matter 21 395502 (2009);
         "P. Giannozzi et al., J. Phys.:Condens. Matter 29 465901 (2017);
         "P. Giannozzi et al., J. Chem. Phys. 152 154105 (2020);
          URL http://www.quantum-espresso.org", 
     in publications or presentations arising from this work. More details at
     http://www.quantum-espresso.org/quote

     Parallel version (MPI & OpenMP), running on       4 processor cores
     Number of MPI processes:                 4
     Threads/MPI process:                     1

     MPI processes distributed on     1 nodes
     K-points division:     npool     =       2
     R & G space division:  proc/nbgrp/npool/nimage =       2
     69394 MiB available memory on the printing compute node when the environment starts
 
     Reading input from pw-si-333.in
Warning: card &CELL ignored
Warning: card / ignored

     Current dimensions of program PWSCF are:
     Max number of different atomic species (ntypx) = 10
     Max number of k-points (npk) =  40000
     Max angular momentum in pseudopotentials (lmaxx) =  4

     IMPORTANT: XC functional enforced from input :
     Exchange-correlation= PBE
                           (   1   4   3   4   0   0   0)
     Any further DFT definition will be discarded
     Please, verify this is what you really want

     Found identity + (  0.0000  0.5000 -0.5000) symmetry
     This is a supercell, fractional translations are disabled
     Message from routine setup:
     using ibrav=0 with symmetry is DISCOURAGED, use correct ibrav instead

     Subspace diagonalization in iterative solution of the eigenvalue problem:
     a serial algorithm will be used

 
     Parallelization info
     --------------------
     sticks:   dense  smooth     PW     G-vecs:    dense   smooth      PW
     Min         676     676    200                18596    18596    2943
     Max         677     677    201                18597    18597    2944
     Sum        1353    1353    401                37193    37193    5887
 
     Using Slab Decomposition
 


     bravais-lattice index     =            0
     lattice parameter (alat)  =      10.2871  a.u.
     unit-cell volume          =    1088.6285 (a.u.)^3
     number of atoms/cell      =            8
     number of atomic types    =            1
     number of electrons       =        32.00
     number of Kohn-Sham states=           16
     kinetic-energy cutoff     =      40.0000  Ry
     charge density cutoff     =     160.0000  Ry
     scf convergence threshold =      1.0E-06
     mixing beta               =       0.5000
     number of iterations used =            8  plain     mixing
     Exchange-correlation= PBE
                           (   1   4   3   4   0   0   0)

     GPU acceleration is ACTIVE.
     GPU-aware MPI enabled

     Message from routine print_cuda_info:
     High GPU oversubscription detected. Are you sure this is what you want?

     celldm(1)=  10.287107  celldm(2)=   0.000000  celldm(3)=   0.000000
     celldm(4)=   0.000000  celldm(5)=   0.000000  celldm(6)=   0.000000

     crystal axes: (cart. coord. in units of alat)
               a(1) = (   1.000000   0.000000   0.000000 )  
               a(2) = (   0.000000   1.000000   0.000000 )  
               a(3) = (   0.000000   0.000000   1.000000 )  

     reciprocal axes: (cart. coord. in units 2 pi/alat)
               b(1) = (  1.000000  0.000000  0.000000 )  
               b(2) = (  0.000000  1.000000  0.000000 )  
               b(3) = (  0.000000  0.000000  1.000000 )  


     PseudoPot. # 1 for Si read from file:
     ./Si_ONCV_PBE-1.0.upf
     MD5 check sum: 2de5a83d12544a9ea852f39b88f19b1f
     Pseudo is Norm-conserving, Zval =  4.0
     Generated using ONCVPSP code by D. R. Hamann
     Using radial grid of  602 points,  4 beta functions with: 
                l(1) =   0
                l(2) =   0
                l(3) =   1
                l(4) =   1

     atomic species   valence    mass     pseudopotential
        Si             4.00    28.08500     Si( 1.00)

     24 Sym. Ops. (no inversion) found



   Cartesian axes

     site n.     atom                  positions (alat units)
         1           Si  tau(   1) = (   0.7500000   0.7500000   0.2500000  )
         2           Si  tau(   2) = (   0.0000000   0.5000000   0.5000000  )
         3           Si  tau(   3) = (   0.7500000   0.2500000   0.7500000  )
         4           Si  tau(   4) = (   0.0000000   0.0000000   0.0000000  )
         5           Si  tau(   5) = (   0.2500000   0.7500000   0.7500000  )
         6           Si  tau(   6) = (   0.5000000   0.5000000   0.0000000  )
         7           Si  tau(   7) = (   0.2500000   0.2500000   0.2500000  )
         8           Si  tau(   8) = (   0.5000000   0.0000000   0.5000000  )

     number of k points=     4
                       cart. coord. in units 2pi/alat
        k(    1) = (   0.1666667   0.1666667   0.1666667), wk =   0.5925926
        k(    2) = (   0.1666667   0.1666667  -0.5000000), wk =   0.8888889
        k(    3) = (   0.1666667  -0.5000000  -0.5000000), wk =   0.4444444
        k(    4) = (  -0.5000000  -0.5000000  -0.5000000), wk =   0.0740741

     Dense  grid:    37193 G-vectors     FFT dimensions: (  45,  45,  45)

     Estimated max dynamical RAM per process >      17.53 MB

     Estimated total dynamical RAM >      61.03 MB

     Initial potential from superposition of free atoms

     starting charge      31.6302, renormalised to      32.0000
     Starting wfcs are random

     total cpu time spent up to now is        4.1 secs

     Self-consistent Calculation

     iteration #  1     ecut=    40.00 Ry     beta= 0.50
     Davidson diagonalization with overlap
     ethr =  1.00E-02,  avg # of iterations =  8.8

     Threshold (ethr) on eigenvalues was too large:
     Diagonalizing with lowered threshold

     Davidson diagonalization with overlap
     ethr =  5.87E-04,  avg # of iterations =  5.0

     total cpu time spent up to now is        5.1 secs

     total energy              =     -63.04786029 Ry
     estimated scf accuracy    <       0.21052210 Ry

     iteration #  2     ecut=    40.00 Ry     beta= 0.50
     Davidson diagonalization with overlap
     ethr =  6.58E-04,  avg # of iterations =  1.0

     total cpu time spent up to now is        5.3 secs

     total energy              =     -63.04716906 Ry
     estimated scf accuracy    <       0.03919804 Ry

     iteration #  3     ecut=    40.00 Ry     beta= 0.50
     Davidson diagonalization with overlap
     ethr =  1.22E-04,  avg # of iterations =  2.0

     total cpu time spent up to now is        5.6 secs

     total energy              =     -63.05043520 Ry
     estimated scf accuracy    <       0.00054076 Ry

     iteration #  4     ecut=    40.00 Ry     beta= 0.50
     Davidson diagonalization with overlap
     ethr =  1.69E-06,  avg # of iterations =  6.5

     total cpu time spent up to now is        6.1 secs

     total energy              =     -63.05129571 Ry
     estimated scf accuracy    <       0.00000656 Ry

     iteration #  5     ecut=    40.00 Ry     beta= 0.50
     Davidson diagonalization with overlap
     ethr =  2.05E-08,  avg # of iterations =  5.5

     total cpu time spent up to now is        6.5 secs

     End of self-consistent calculation

          k = 0.1667 0.1667 0.1667 (  4638 PWs)   bands (ev):

    -5.3958  -2.7084  -2.7081  -2.7081  -0.3954  -0.3952  -0.3952   2.5563
     2.5563   2.5563   3.6257   3.6257   3.6258   3.7794   5.7095   5.7095

          k = 0.1667 0.1667-0.5000 (  4656 PWs)   bands (ev):

    -4.4643  -4.4641  -2.5061  -2.5059  -0.6671  -0.6670   1.7292   1.7294
     2.1784   2.1784   3.4207   3.4207   4.1752   4.1753   4.4267   4.4270

          k = 0.1667-0.5000-0.5000 (  4664 PWs)   bands (ev):

    -3.6649  -3.6645  -3.6645  -3.6644   0.1718   0.1719   0.1719   0.1720
     3.1293   3.1294   3.1294   3.1296   4.8710   4.8710   4.8711   4.8713

          k =-0.5000-0.5000-0.5000 (  4680 PWs)   bands (ev):

    -3.4433  -3.4429  -3.4429  -3.4429  -0.7788  -0.7788  -0.7788  -0.7786
     4.9682   4.9682   4.9682   4.9684   4.9684   4.9684   4.9685   4.9685

     highest occupied level (ev):     5.7095

!    total energy              =     -63.05130310 Ry
     estimated scf accuracy    <       0.00000037 Ry

     The total energy is the sum of the following terms:
     one-electron contribution =      18.77636274 Ry
     hartree contribution      =       4.43899293 Ry
     xc contribution           =     -19.24002265 Ry
     ewald contribution        =     -67.02663612 Ry

     convergence has been achieved in   5 iterations

     Forces acting on atoms (cartesian axes, Ry/au):

     atom    1 type  1   force =    -0.00000399   -0.00000399    0.00000399
     atom    2 type  1   force =     0.00000000    0.00000000    0.00000000
     atom    3 type  1   force =    -0.00000399    0.00000399   -0.00000399
     atom    4 type  1   force =     0.00000000    0.00000000    0.00000000
     atom    5 type  1   force =     0.00000399   -0.00000399   -0.00000399
     atom    6 type  1   force =     0.00000000    0.00000000    0.00000000
     atom    7 type  1   force =     0.00000399    0.00000399    0.00000399
     atom    8 type  1   force =     0.00000000    0.00000000    0.00000000

     Total force =     0.000014     Total SCF correction =     0.000259
     SCF correction compared to forces is large: reduce conv_thr to get better values


     Computing stress (Cartesian axis) and pressure

          total   stress  (Ry/bohr**3)                   (kbar)     P=       15.97
   0.00010855   0.00000000   0.00000000           15.97        0.00        0.00
   0.00000000   0.00010855   0.00000000            0.00       15.97        0.00
   0.00000000   0.00000000   0.00010855            0.00        0.00       15.97

 
     init_run     :      0.76s CPU      4.04s WALL (       1 calls)
     electrons    :      2.37s CPU      2.41s WALL (       1 calls)
     forces       :      0.05s CPU      0.05s WALL (       1 calls)
     stress       :      0.18s CPU      0.18s WALL (       1 calls)

     Called by init_run:
     wfcinit      :      0.47s CPU      3.63s WALL (       1 calls)
                                        3.63s GPU  (       1 calls)
     potinit      :      0.09s CPU      0.16s WALL (       1 calls)
     hinit0       :      0.10s CPU      0.12s WALL (       1 calls)

     Called by electrons:
     c_bands      :      1.97s CPU      2.00s WALL (       6 calls)
     sum_band     :      0.10s CPU      0.11s WALL (       6 calls)
     v_of_rho     :      0.36s CPU      0.44s WALL (       6 calls)
     mix_rho      :      0.01s CPU      0.02s WALL (       6 calls)

     Called by c_bands:
     init_us_2    :      0.01s CPU      0.01s WALL (      30 calls)
     init_us_2:gp :      0.01s CPU      0.01s WALL (      30 calls)
     cegterg      :      1.76s CPU      1.78s WALL (      12 calls)

     Called by *egterg:
     cdiaghg      :      0.32s CPU      0.97s WALL (      66 calls)
                                        0.94s GPU  (      66 calls)
     h_psi        :      1.13s CPU      3.73s WALL (      70 calls)
                                        3.69s GPU  (      70 calls)
     g_psi        :      0.00s CPU      0.03s WALL (      56 calls)
                                        0.00s GPU  (      56 calls)

     Called by h_psi:
     h_psi:calbec :      0.53s CPU      3.11s WALL (      70 calls)
                                        3.07s GPU  (      70 calls)
     vloc_psi     :      0.41s CPU      0.48s WALL (      70 calls)
                                        0.43s GPU  (      70 calls)
     add_vuspsi   :      0.01s CPU      0.05s WALL (      70 calls)
                                        0.01s GPU  (      70 calls)

     General routines
     calbec       :      0.55s CPU      3.09s WALL (      80 calls)
     fft          :      0.23s CPU      0.36s WALL (      68 calls)
                                        0.21s GPU  (      46 calls)
     ffts         :      0.00s CPU      0.00s WALL (       6 calls)
     fftw         :      0.41s CPU      0.48s WALL (     152 calls)
                                        0.37s GPU  (     152 calls)
 
     Parallel routines
 
     PWSCF        :      3.45s CPU      6.80s WALL

 
   This run was terminated on:  14:32:38  22Jun2023            

=------------------------------------------------------------------------------=
   JOB DONE.
=------------------------------------------------------------------------------=
