
     Program PWSCF v.7.0 starts on 22Jun2023 at 14:32:49 

     This program is part of the open-source Quantum ESPRESSO suite
     for quantum simulation of materials; please cite
         "P. Giannozzi et al., J. Phys.:Condens. Matter 21 395502 (2009);
         "P. Giannozzi et al., J. Phys.:Condens. Matter 29 465901 (2017);
         "P. Giannozzi et al., J. Chem. Phys. 152 154105 (2020);
          URL http://www.quantum-espresso.org", 
     in publications or presentations arising from this work. More details at
     http://www.quantum-espresso.org/quote

     Parallel version (MPI & OpenMP), running on       4 processor cores
     Number of MPI processes:                 4
     Threads/MPI process:                     1

     MPI processes distributed on     1 nodes
     K-points division:     npool     =       2
     R & G space division:  proc/nbgrp/npool/nimage =       2
     69390 MiB available memory on the printing compute node when the environment starts
 
     Reading input from pw-si-555.in
Warning: card &CELL ignored
Warning: card / ignored

     Current dimensions of program PWSCF are:
     Max number of different atomic species (ntypx) = 10
     Max number of k-points (npk) =  40000
     Max angular momentum in pseudopotentials (lmaxx) =  4

     IMPORTANT: XC functional enforced from input :
     Exchange-correlation= PBE
                           (   1   4   3   4   0   0   0)
     Any further DFT definition will be discarded
     Please, verify this is what you really want

     Found identity + (  0.0000  0.5000 -0.5000) symmetry
     This is a supercell, fractional translations are disabled
     Message from routine setup:
     using ibrav=0 with symmetry is DISCOURAGED, use correct ibrav instead

     Subspace diagonalization in iterative solution of the eigenvalue problem:
     a serial algorithm will be used

 
     Parallelization info
     --------------------
     sticks:   dense  smooth     PW     G-vecs:    dense   smooth      PW
     Min         676     676    200                18596    18596    2943
     Max         677     677    201                18597    18597    2944
     Sum        1353    1353    401                37193    37193    5887
 
     Using Slab Decomposition
 


     bravais-lattice index     =            0
     lattice parameter (alat)  =      10.2871  a.u.
     unit-cell volume          =    1088.6285 (a.u.)^3
     number of atoms/cell      =            8
     number of atomic types    =            1
     number of electrons       =        32.00
     number of Kohn-Sham states=           16
     kinetic-energy cutoff     =      40.0000  Ry
     charge density cutoff     =     160.0000  Ry
     scf convergence threshold =      1.0E-06
     mixing beta               =       0.5000
     number of iterations used =            8  plain     mixing
     Exchange-correlation= PBE
                           (   1   4   3   4   0   0   0)

     GPU acceleration is ACTIVE.
     GPU-aware MPI enabled

     Message from routine print_cuda_info:
     High GPU oversubscription detected. Are you sure this is what you want?

     celldm(1)=  10.287107  celldm(2)=   0.000000  celldm(3)=   0.000000
     celldm(4)=   0.000000  celldm(5)=   0.000000  celldm(6)=   0.000000

     crystal axes: (cart. coord. in units of alat)
               a(1) = (   1.000000   0.000000   0.000000 )  
               a(2) = (   0.000000   1.000000   0.000000 )  
               a(3) = (   0.000000   0.000000   1.000000 )  

     reciprocal axes: (cart. coord. in units 2 pi/alat)
               b(1) = (  1.000000  0.000000  0.000000 )  
               b(2) = (  0.000000  1.000000  0.000000 )  
               b(3) = (  0.000000  0.000000  1.000000 )  


     PseudoPot. # 1 for Si read from file:
     ./Si_ONCV_PBE-1.0.upf
     MD5 check sum: 2de5a83d12544a9ea852f39b88f19b1f
     Pseudo is Norm-conserving, Zval =  4.0
     Generated using ONCVPSP code by D. R. Hamann
     Using radial grid of  602 points,  4 beta functions with: 
                l(1) =   0
                l(2) =   0
                l(3) =   1
                l(4) =   1

     atomic species   valence    mass     pseudopotential
        Si             4.00    28.08500     Si( 1.00)

     24 Sym. Ops. (no inversion) found



   Cartesian axes

     site n.     atom                  positions (alat units)
         1           Si  tau(   1) = (   0.7500000   0.7500000   0.2500000  )
         2           Si  tau(   2) = (   0.0000000   0.5000000   0.5000000  )
         3           Si  tau(   3) = (   0.7500000   0.2500000   0.7500000  )
         4           Si  tau(   4) = (   0.0000000   0.0000000   0.0000000  )
         5           Si  tau(   5) = (   0.2500000   0.7500000   0.7500000  )
         6           Si  tau(   6) = (   0.5000000   0.5000000   0.0000000  )
         7           Si  tau(   7) = (   0.2500000   0.2500000   0.2500000  )
         8           Si  tau(   8) = (   0.5000000   0.0000000   0.5000000  )

     number of k points=    10
                       cart. coord. in units 2pi/alat
        k(    1) = (   0.1000000   0.1000000   0.1000000), wk =   0.1280000
        k(    2) = (   0.1000000   0.1000000   0.3000000), wk =   0.3840000
        k(    3) = (   0.1000000   0.1000000  -0.5000000), wk =   0.1920000
        k(    4) = (   0.1000000   0.3000000   0.3000000), wk =   0.3840000
        k(    5) = (   0.1000000   0.3000000  -0.5000000), wk =   0.3840000
        k(    6) = (   0.1000000  -0.5000000  -0.5000000), wk =   0.0960000
        k(    7) = (   0.3000000   0.3000000   0.3000000), wk =   0.1280000
        k(    8) = (   0.3000000   0.3000000  -0.5000000), wk =   0.1920000
        k(    9) = (   0.3000000  -0.5000000  -0.5000000), wk =   0.0960000
        k(   10) = (  -0.5000000  -0.5000000  -0.5000000), wk =   0.0160000

     Dense  grid:    37193 G-vectors     FFT dimensions: (  45,  45,  45)

     Estimated max dynamical RAM per process >      19.23 MB

     Estimated total dynamical RAM >      67.84 MB

     Initial potential from superposition of free atoms

     starting charge      31.6302, renormalised to      32.0000
     Starting wfcs are random

     total cpu time spent up to now is        4.2 secs

     Self-consistent Calculation

     iteration #  1     ecut=    40.00 Ry     beta= 0.50
     Davidson diagonalization with overlap
     ethr =  1.00E-02,  avg # of iterations = 10.2

     Threshold (ethr) on eigenvalues was too large:
     Diagonalizing with lowered threshold

     Davidson diagonalization with overlap
     ethr =  6.08E-04,  avg # of iterations =  3.6

     total cpu time spent up to now is        6.6 secs

     total energy              =     -63.05169539 Ry
     estimated scf accuracy    <       0.20678370 Ry

     iteration #  2     ecut=    40.00 Ry     beta= 0.50
     Davidson diagonalization with overlap
     ethr =  6.46E-04,  avg # of iterations =  1.0

     total cpu time spent up to now is        7.0 secs

     total energy              =     -63.05167949 Ry
     estimated scf accuracy    <       0.03865529 Ry

     iteration #  3     ecut=    40.00 Ry     beta= 0.50
     Davidson diagonalization with overlap
     ethr =  1.21E-04,  avg # of iterations =  2.5

     total cpu time spent up to now is        7.6 secs

     total energy              =     -63.05566163 Ry
     estimated scf accuracy    <       0.00055102 Ry

     iteration #  4     ecut=    40.00 Ry     beta= 0.50
     Davidson diagonalization with overlap
     ethr =  1.72E-06,  avg # of iterations =  6.0

     total cpu time spent up to now is        8.6 secs

     total energy              =     -63.05652994 Ry
     estimated scf accuracy    <       0.00000282 Ry

     iteration #  5     ecut=    40.00 Ry     beta= 0.50
     Davidson diagonalization with overlap
     ethr =  8.81E-09,  avg # of iterations =  6.5

     total cpu time spent up to now is        9.8 secs

     End of self-consistent calculation

          k = 0.1000 0.1000 0.1000 (  4659 PWs)   bands (ev):

    -5.6291  -2.3421  -2.3418  -2.3418  -0.8510  -0.8507  -0.8507   2.9006
     2.9007   2.9007   3.4336   3.4336   3.4338   5.0042   5.9530   5.9530

          k = 0.1000 0.1000 0.3000 (  4654 PWs)   bands (ev):

    -5.2851  -3.6120  -2.2167  -2.2165  -0.8706  -0.8705   0.7362   2.2660
     2.2661   3.1962   3.1962   3.3212   3.7004   3.7398   5.1494   5.3137

          k = 0.1000 0.1000-0.5000 (  4648 PWs)   bands (ev):

    -4.6061  -4.6058  -2.1250  -2.1248  -0.9024  -0.9022   2.0507   2.0508
     2.2816   2.2817   2.9385   2.9385   4.1712   4.1714   4.3324   4.3327

          k = 0.1000 0.3000 0.3000 (  4642 PWs)   bands (ev):

    -4.9513  -3.3576  -3.3573  -2.4537  -0.7325   0.2899   0.2900   1.9487
     2.5174   2.7530   2.7530   3.7599   3.7602   3.9600   4.3954   5.6506

          k = 0.1000 0.3000-0.5000 (  4654 PWs)   bands (ev):

    -4.2976  -4.2973  -2.9135  -2.9133  -0.3074  -0.3073   1.3796   1.3798
     2.1979   2.1981   3.5022   3.5024   3.9425   3.9426   4.8161   4.8161

          k = 0.1000-0.5000-0.5000 (  4640 PWs)   bands (ev):

    -3.7082  -3.7077  -3.7077  -3.7076   0.4540   0.4542   0.4542   0.4543
     2.7240   2.7241   2.7241   2.7243   4.8472   4.8472   4.8474   4.8476

          k = 0.3000 0.3000 0.3000 (  4647 PWs)   bands (ev):

    -4.6346  -3.2117  -3.2113  -3.2113  -0.3175  -0.3175  -0.3175   1.3742
     3.0380   3.0383   3.0383   4.2175   4.2175   4.2177   5.2448   5.2448

          k = 0.3000 0.3000-0.5000 (  4642 PWs)   bands (ev):

    -4.0275  -4.0272  -3.1033  -3.1030  -0.6428  -0.6428   0.3886   0.3888
     3.2089   3.2092   4.3341   4.3341   4.4741   4.4741   4.6868   4.6871

          k = 0.3000-0.5000-0.5000 (  4644 PWs)   bands (ev):

    -3.5590  -3.5585  -3.5585  -3.5585  -0.3933  -0.3932  -0.3932  -0.3930
     4.0594   4.0596   4.0596   4.0598   4.9170   4.9170   4.9173   4.9174

          k =-0.5000-0.5000-0.5000 (  4680 PWs)   bands (ev):

    -3.4484  -3.4479  -3.4479  -3.4479  -0.7831  -0.7831  -0.7831  -0.7830
     4.9630   4.9630   4.9630   4.9634   4.9634   4.9634   4.9635   4.9635

     highest occupied level (ev):     5.9530

!    total energy              =     -63.05653965 Ry
     estimated scf accuracy    <       0.00000020 Ry

     The total energy is the sum of the following terms:
     one-electron contribution =      18.77834177 Ry
     hartree contribution      =       4.42578842 Ry
     xc contribution           =     -19.23403373 Ry
     ewald contribution        =     -67.02663612 Ry

     convergence has been achieved in   5 iterations

     Forces acting on atoms (cartesian axes, Ry/au):

     atom    1 type  1   force =     0.00000063    0.00000063   -0.00000063
     atom    2 type  1   force =     0.00000000    0.00000000    0.00000000
     atom    3 type  1   force =     0.00000063   -0.00000063    0.00000063
     atom    4 type  1   force =     0.00000000    0.00000000    0.00000000
     atom    5 type  1   force =    -0.00000063    0.00000063    0.00000063
     atom    6 type  1   force =     0.00000000    0.00000000    0.00000000
     atom    7 type  1   force =    -0.00000063   -0.00000063   -0.00000063
     atom    8 type  1   force =     0.00000000    0.00000000    0.00000000

     Total force =     0.000002     Total SCF correction =     0.000299
     SCF correction compared to forces is large: reduce conv_thr to get better values


     Computing stress (Cartesian axis) and pressure

          total   stress  (Ry/bohr**3)                   (kbar)     P=       15.64
   0.00010633   0.00000000   0.00000000           15.64        0.00        0.00
   0.00000000   0.00010633   0.00000000            0.00       15.64        0.00
   0.00000000   0.00000000   0.00010633            0.00        0.00       15.64

 
     init_run     :      0.86s CPU      4.19s WALL (       1 calls)
     electrons    :      5.49s CPU      5.57s WALL (       1 calls)
     forces       :      0.08s CPU      0.08s WALL (       1 calls)
     stress       :      0.41s CPU      0.42s WALL (       1 calls)

     Called by init_run:
     wfcinit      :      0.56s CPU      3.76s WALL (       1 calls)
                                        3.76s GPU  (       1 calls)
     potinit      :      0.09s CPU      0.16s WALL (       1 calls)
     hinit0       :      0.10s CPU      0.12s WALL (       1 calls)

     Called by electrons:
     c_bands      :      4.97s CPU      5.04s WALL (       6 calls)
     sum_band     :      0.22s CPU      0.22s WALL (       6 calls)
     v_of_rho     :      0.37s CPU      0.44s WALL (       6 calls)
     mix_rho      :      0.01s CPU      0.02s WALL (       6 calls)

     Called by c_bands:
     init_us_2    :      0.02s CPU      0.03s WALL (      75 calls)
     init_us_2:gp :      0.02s CPU      0.03s WALL (      75 calls)
     cegterg      :      4.44s CPU      4.50s WALL (      30 calls)

     Called by *egterg:
     cdiaghg      :      0.76s CPU      1.41s WALL (     175 calls)
                                        1.34s GPU  (     175 calls)
     h_psi        :      2.29s CPU      5.03s WALL (     185 calls)
                                        4.93s GPU  (     185 calls)
     g_psi        :      0.00s CPU      0.09s WALL (     150 calls)
                                        0.00s GPU  (     150 calls)

     Called by h_psi:
     h_psi:calbec :      0.72s CPU      3.41s WALL (     185 calls)
                                        3.30s GPU  (     185 calls)
     vloc_psi     :      1.10s CPU      1.26s WALL (     185 calls)
                                        1.15s GPU  (     185 calls)
     add_vuspsi   :      0.01s CPU      0.12s WALL (     185 calls)
                                        0.01s GPU  (     185 calls)

     General routines
     calbec       :      0.76s CPU      3.35s WALL (     210 calls)
     fft          :      0.24s CPU      0.36s WALL (      68 calls)
                                        0.21s GPU  (      46 calls)
     ffts         :      0.00s CPU      0.00s WALL (       6 calls)
     fftw         :      1.00s CPU      1.25s WALL (     400 calls)
                                        0.98s GPU  (     400 calls)
 
     Parallel routines
 
     PWSCF        :      6.91s CPU     10.34s WALL

 
   This run was terminated on:  14:32:59  22Jun2023            

=------------------------------------------------------------------------------=
   JOB DONE.
=------------------------------------------------------------------------------=
