-6823.147057556072
-6824.050950883285
-6823.842436443398
-6822.43609892697
-6822.643786548958
-6820.350667584061
-6824.326423831221
-6822.621289945518
-6822.5836809558205
-6824.429308985162
-6823.939814421415
-6822.967598207364
-6823.28496893121
-6823.698049575241
-6823.993898815587
-6825.423202739998
-6823.449527326113
-6823.931301203916
-6823.513117336954
-6824.697901398632
-6821.759820526321
-6822.656300384114
-6824.431761275076
-6823.0369690045945
-6824.02584566053
-6823.009779798007
-6824.237805605842
-6823.073201778553
-6825.40359748215
-6824.47153846784
-6822.377680711746
-6824.440588511945
-6825.757185605522
-6823.470686217922
-6823.303875264663
-6825.860212938944
-6823.360049084946
-6823.32724249633
-6825.348956343064
-6821.795457370973
-6823.884417350085
-6823.683255017947
-6823.524370196581
-6824.616934742281
-6823.549928897048
-6823.5100068036645
-6823.538824339463
-6822.292653436638
-6822.903006137311
-6824.342669027389
-6823.586917059022
-6824.206782315267
-6821.997522984997
-6827.223831712012
-6824.640124963896
-6823.1531889611415
-6823.283627546042
-6824.8277946674
-6822.418204856997
-6821.566476024768
-6821.2522932506
-6822.200630386853
-6822.3086648870185
-6822.775064605051
-6822.641301061156
-6823.232754367279
-6823.690844545022
-6822.413831851553
-6823.102305305995
-6822.566912892912
-6822.265046263195
-6824.020085418737
-6823.610175445153
-6824.558288631717
-6823.097429978406
-6823.22183198991
-6825.070367963787
-6824.241516014089
-6826.631772000198
-6823.885929078515
-6823.650464620105
-6823.600344924562
-6824.397383365099
-6821.845063859816
-6821.229388204288
-6822.794742789408
-6822.623787542387
-6821.054166756504
-6824.332739185246
-6823.389133836534
-6822.792071039682
-6825.589795594015
-6822.674863990186
-6823.827251402746
-6820.54301941433
-6821.605390072436
-6822.394325234972
-6819.900152919531
-6822.805246927807
-6822.832377493863
-6823.448827993547
