-0.0026664910885696013 -0.08379379468820407 -0.7522757315265302 -0.033982784703347924 0.4295930288137698 0.1279342366508442 -0.15325086103876187 0.08624405600090952 -0.3922207588128987 -0.2903629075341322 0.2213742961795607 0.5421057887032212 -0.03630989017462779 -0.05347688887221757 0.0037931484938450804 1.3037825018286773 1.4172807655598494 0.004950916247372119 0.73215273552441 -1.1337325669547054 -0.42168560104123504 -1.205520595431285 -0.3711184296166447 0.06174247131511948 -0.009922915540666781 -0.5346169365253438 0.05163392212620785 0.03997525484135696 -0.2582829962804519 -0.8446302713005518 -1.768906376559205 -1.1874616810470455 1.2983934696026218 0.057017297925308255 0.33806355604420485 -0.23870841658263406 1.1208850215680761 -1.2909966629179186 0.1491250117958464 0.0681468321795665 0.136291607476604 -0.5876791064576459 -0.5516101286492306 -0.5266961390163704 0.6679535751386819 0.28641343596808094 0.8385051322394205 -1.587008541207712 -1.588273781073381 -1.426299681229008 -1.3384443148769207 -0.6338319508646245 -0.9186564450790308 0.7997223550442678 -0.6158023470564233 -1.4952127021506378 1.6858743997376902 0.8349315559555492 0.4865126248189492 0.5490624225267124 0.14072881731235118 0.17823169935381564 -0.3321117093361442 0.9525626109081723 -0.16047026160533653 0.16037564500900123 -0.1583331606576757 1.5328019732583213 -0.21408239050383776 1.4104619428658032 1.9125963333824092 0.7425590184593985 0.9545847835445236 -0.8612349697367684 1.635681580933383 0.43287607044041576 0.08910775070194976 0.1378530384264529 -0.22797097556047188 0.5540567904175103 0.15057177154470197 0.4112512930817885 -1.2157152765761 -0.19135383855807042 0.1905627101153428 -0.9352297760566797 0.47983212747498 -0.3735337239263567 -0.06183888768366769 0.18786048069283132 0.6513365354072912 0.46371953818383366 -0.885048012995966 -0.03264735372137604 -0.5540984422887232 0.01982037716003683 0.04469914267958753 0.3206826415635961 -0.1278301069728121 0.23006462486470702 -0.43801853387330364 -0.03744477511001938 -0.244694716073056 0.5700269405935215 0.08306462983166339 -0.8912937367953617 1.1708407846609126 -0.4395892207945333 0.09040512935713463 -0.36582504242818936 -0.7597404153346916 -0.02640240125292872 -0.050233442234255424 0.2121797741644862 0.4308986349990708 0.4642373583605166 -0.6258656448296964 0.3247341859251504 -0.3198022958411718 -0.22453032531003914 -0.10087826097431657 -0.00027176560414791907 0.35748515510392626 -0.007130440397194172 -0.7888985249558864 0.663794815775302 -0.2755577242004996 0.536203050065541 -0.36509510624070024 -0.3254749207459169 0.0730992910888354 0.15177041983849346 0.7699147847645321 -0.5383838597669438 -0.5560504238087715 -0.32306579708379196 -1.3478463249171109 -0.8908957300259948 -0.4139198410528871 -0.20526582065347232 -0.07146689769173499 0.2975213729557844 0.7501795111191338 0.19874704569834803 -0.04256229884224283 0.7817706556618536 -0.3260084246518837 -0.3382885275708174 -0.3903407681813665 0.24237558102157614 0.14016548860971345 1.053164735402967 -0.38249119022996064 1.0105870099417564 -0.022332344948613154 0.369525374097912 -0.8417817461081633 0.9324239311767685 -0.8117186081741956 0.8149150036243061 0.18022996073076702 -0.4317357861883855 0.47216741184087074 0.4083585449150257 -0.006139537238834588 -0.7971653929503689 0.33031707932956667 1.0372694043289492 -0.13174872530092793 -0.9641402884434427 1.305373757575197 -1.6954602436539121 0.42038308017972764 -0.6449730550831086 -0.5001870369822483 0.8068211708725782 0.21233789700890526 1.3181331141233945 1.1296720237320865 -1.754023545910102 -0.09529305357705524 -0.09524317417572628 0.46282582272497064 0.053766395088178376 -0.009347759763487127 0.9819474918281926 -0.7679607463619549 0.39694824619555513 0.05337250208386937 -0.08385035895775238 -0.4048569595196705 0.4519323157409184
0.8289617115253595 1.5289324630005863 0.1445258224609382 0.41082577550859567 0.33640622294643996 -0.29821351392680256 0.15219670874263466 -1.8470460582854256 -0.2740672556979022 0.1532187222492458 0.217226078339142 -0.6230315178150109 -0.41755692358484214 -0.4936926875071562 -0.4825289575808528 2.1685241991671234 -1.738166267162871 0.18767690392711547 -0.050154766477520075 -0.7647949470394635 -0.056578924836309004 -2.2497638599749057 2.007869846575439 -0.3259341197705225 0.2574219338317373 0.4060941743608813 0.21489743020596538 -0.04740882830126674 0.42941587980595725 0.4217403655385704 -0.8033108437264745 -0.8899950725885962 0.057444872381030104 0.6739079929499039 0.15684320637571053 0.7331788627960792 0.24457541688637235 0.10333572137587364 -0.5877798937015684 -1.7439882731612868 0.10975216642517874 1.0556713038749046 1.0269983614202443 -0.4720542833017741 0.399493381214912 -1.2900854639575587 1.324832123410125 0.32215382679248394 0.304748743942159 0.46948986500870754 -0.04485032354547114 0.3744472368795616 -1.1379134378052724 0.5560753635094359 0.04339276516333817 0.18533205784402276 -0.6362883828249171 -0.17126863777242118 0.541329572658829 0.17286015062925716 -0.568408431153492 -0.01595986576336606 0.031095692963539995 -0.06204354749530605 -0.528005087635781 -0.012656255311429814 0.30386531289594115 -1.0474604859293382 0.033626172694877575 -0.2060132403424581 -0.6571760249072036 0.23007336661545538 0.11271639125982523 -0.5396395865509157 -0.29016878924545514 0.577529933838786 -0.4662065662717455 0.8313137566973039 -0.3112325518942898 -0.3024247237946727 0.41015086092875813 -0.9880497480711887 0.26535687240809785 -0.009076508379971465 0.9731005829605242 -0.7807689538702167 0.14687015432339864 -1.249530425353332 -0.45793789850505 1.086509886522316 -0.7166422985936367 0.8579028200397418 -0.9993032094978209 -0.2542175679618267 0.4252329520728612 -0.5178446021630114 -0.2865934131893709 -0.21422765783245043 0.10917752486863135 0.4470299933432947 0.555675814078172 0.5324124726748574 0.19547891647003754 0.16192524888430823 -0.2513746991963929 -0.6516952042982905 -0.26220469993236134 0.9076451815701917 0.042969304472674386 -0.23712770235907546 0.18547783939326767 -0.8670261224972488 -0.6245561819896535 -0.5542018006358069 -0.6975027495507085 -0.34403777134976876 -0.2569010283312608 0.3059715606056666 0.5596003459435589 0.5012740993988399 -0.547655771987173 -0.3274158465223716 -0.8009048053881432 2.4796716475467746 0.21872580281312007 -1.4160435507186389 -0.11091404794376382 0.08653510487876709 0.05920453538461416 -0.13543902966832158 0.6318380603630472 0.22236982732361057 -0.27026253723983135 0.547909796979508 0.24642969648629173 0.7946364558809282 0.8140539411755916 -0.4469765143975399 -0.26136137809545956 -0.6283405887327501 -1.008249362947515 0.38336279420163655 0.14453713531484785 0.15692728144908458 -0.022810570136612328 -0.9994052822933238 0.23502608263504038 0.03264658239042765 -0.1931674947280415 0.3330056819053233 0.39811269881730144 -0.425508574331751 -0.5044856643576021 0.40484101868007044 -0.3125504993747649 -0.24023513763980564 0.4011437723341414 0.11519030672161452 0.6454893325978948 -0.27070656675578536 -0.0589880484984339 -0.8126809720874648 0.47789968633895763 -0.2134234167636002 -0.049860632275868975 -0.5562365716776484 -0.997500094850811 0.24657444959427213 0.08164306689378843 0.836106807210573 -0.34235035634501687 -0.47867153150797564 0.7759231957421412 1.0072139797044655 -0.31248159381004253 0.8030341930263203 0.3905659968182951 0.17530089886026584 -0.18241848374165356 -0.6055996954918087 1.9437833005081748 -0.06638794050693082 -0.15569777991735764 0.28409867179197523 0.7489718639642778 0.4227451526540009 -0.3766956665941061 1.4191242465264915 -0.6223113518195347 -0.479293995583323 0.44199783023602596 -0.01070118846758802
-1.0227740389262514 -0.5918872310017226 0.5567423076694734 0.3675050012337735 -1.8643372412657053 0.04696814121942233 -0.07395212600743394 -0.35911472028754926 0.7826558864802844 0.2351009017370338 0.038263671466888936 0.5466468711066843 -0.7538682728246306 0.7000064898091687 -1.3824261197745096 -0.574420955896159 1.0357308561972356 0.011743513689173325 0.12528985704946163 -0.2402917019093539 0.15239391235510527 -0.623193754424488 1.7996210320342427 0.514838725457152 0.6802907565477961 -0.34743651261867264 0.5494977102919182 1.1191248443438597 -0.32116369496507274 0.35825108673567335 0.3733002677593119 0.08373311665359773 -0.1989254802577413 -0.4197153646887417 -0.5083749721096793 0.7531133969364772 -0.05443102525537078 0.7751827180316908 0.6157578669717331 0.22949152597005637 -0.33653914897987847 -0.6588552123818395 0.20047816945684183 -0.6189820303359855 -0.47834294452396325 -0.285431788781102 -0.022919070690018594 0.4422652249647996 0.541921440606557 0.3473606650754147 -0.23842045302857 0.32866514554844045 0.3795164238723529 -1.5028167397501409 -0.6720136041406685 -0.32809564619821563 -0.30935410392465434 -0.3568626910285789 0.47105181017918873 -0.16212219538646272 0.7751523790143876 0.5401910881790115 0.16039929915808504 0.6890674742991617 0.8556471912363456 -0.7479619346425248 -0.4858739627936858 -0.0008646619931404464 0.4738728245677517 0.3862665981119928 0.40842410804563856 0.40538095034394056 -0.2505640303696394 0.3776503171978915 -0.6485612866549992 -0.16308713040289333 0.3639532793267732 0.17690038213690176 0.5758959977797887 -1.652127128083916 0.21409910267438612 -0.29076065719318317 -1.1961887765073977 -0.832395676907573 -1.1536388189603293 0.3068015127061297 0.4213475009755259 0.4268815434198778 1.2526771985124299 -0.06828901418438561 -0.660659869690746 -1.1917993891904506 -0.6928549663660519 0.4372664861986276 -0.048365278677265096 -1.011675872130561 1.5119187020514089 -1.4664685401384097 -1.6505068188716736 0.5288525232377408 0.942384641933906 0.8185988802337967 -0.4705347613334542 0.1860699644513118 0.3945879734934946 -0.21348692301168393 1.3407976456004456 0.7321771610044423 -0.49623782252651316 -0.4632953061622214 -0.5557105239708493 -0.3313627469852616 -0.09123096769253966 -0.43047286031556187 -0.9768561933482145 0.41812693715569926 -0.46126027801006364 0.5769714902321548 -0.17134679930852426 -0.42260862707613667 0.1841156689384184 -0.8257174935564489 -0.726534103786052 -0.8645313810998531 -0.8802040546401034 2.334274221114161 0.272075422078854 -0.3241189209386547 0.44623526535614116 1.291031887031228 -0.30325621855703255 3.1698215562768377 -0.4635169352547243 -0.33162988460371917 -0.25843829091139364 0.931945191768137 -0.9054787700464922 0.9448279612680761 0.7189786600362972 0.9651126796590411 -0.44822324232044747 0.5120218248336472 0.8273208334878267 0.33518752004799046 0.10235535974047534 1.4484520489563313 -1.1713786594422535 -0.28259483355293913 -0.2443553304557663 0.4600387468981368 -0.9184114189477602 0.7987440502913986 0.12020241522422526 0.34424783047804586 -0.17241483556172243 -0.6715996565317014 -0.38006895394171314 -0.29418433816275136 -0.6156223698351333 -1.0887043230704734 0.7078748368136518 0.6791653846941014 0.5551230268984956 1.1826231220078214 -1.2025031487612001 0.1464577493763284 -1.4397591491680237 0.5496918285805953 -1.579700437582073 1.3542401442585967 -1.892112868717077 0.17549450292831065 -1.1896296352326414 0.8462189559439104 -0.26335346882482386 -0.42928269666220265 -0.31636421669390036 0.17136813946476293 0.00857077238814653 -0.2726490351941369 0.19517758317953482 0.3683904891625204 -0.551142959204825 0.48209109871248584 -0.5091910402530715 0.8628347101237205 -0.25367480808447923 -0.05808224885471287 0.10026171043624023 0.23235676333299338 -0.5563859527713192 0.6031314364569741
0.4565351046202525 0.034720434200320845 0.06477765859701747 -1.73463717096369 0.795193871046295 -0.04883579055578041 0.5724640892801044 0.5518777804883205 0.15122714574051374 -0.11110302402611832 0.648372824793277 0.16597422214270127 -0.039239662226913066 -0.14079515177391236 -0.0619540731052933 0.2862427147181716 -0.11196100115103945 -0.12340960930761327 0.023185951198160068 0.2018503672140201 -0.23665924736308921 -0.43806661350241977 0.26488430364705345 -0.7321218822864746 -0.12214796898637029 0.3567685886528759 -0.19183232085638574 -0.10371341643026653 0.3132372410291444 0.05741401914309467 -0.4212569981442487 0.39728326093747063 1.3364545381404016 0.10436673374354928 -0.17012089732122315 -0.4280305694226564 0.4613073291979152 1.3218560715009364 1.4963529864026681 -0.36700620722048405 0.8120739346310853 0.46271423684777085 0.13552413318296017 -0.18650190978240783 -0.8893443263784748 0.7199906462405794 -0.06509956071281046 0.21264077296130476 0.4981057289731874 0.23163608311688494 0.5102302801508631 -0.16335092558724124 0.02035979460327461 0.5491459833794542 0.36414842605671477 -0.06892124845174583 0.24074730138953376 0.1786551600444794 0.6866092425666561 -0.11979026738747112 -0.34067322575291004 0.4974518974392722 -0.24956027169547346 0.41995756260653483 -0.4891048110261576 -0.9999832662839812 0.5231431315577892 -0.3227611213591796 -0.07111568499990333 0.557605169890401 0.5363100079570506 -0.3055488712459512 0.32099220238421494 -1.2516011918394316 1.244328055216786 -0.10189693204681807 -0.06736264571537431 -0.20558360900420722 0.5842564539293422 0.07983378159919155 -0.12219656283611859 -0.5813073986033472 0.2035141280696882 0.1643549413717234 -0.5641326865962736 -0.3710515809344513 -0.39347699981750295 0.008181507369527845 -1.043147460376281 -0.44694926070403024 -0.03640759209475665 -0.13889587786867047 0.22739813377613743 -3.378502059038814 1.2265679030198875 -1.9615190272250411 -0.5338661744022483 -0.004775824122088549 0.05568623781871055 -0.442276023598077 -0.8944860184804144 0.4155092970271941 -1.3534780692815918 1.6278721121912931 0.7209830920608357 0.526365752260145 -0.055033691836376186 0.07736552256435708 -0.0634784801696197 -0.6824841646546891 0.15998817976259544 0.7487877729779298 -0.17023942517695842 -0.48448633841753974 2.0161662822562763 0.6168606131176085 -0.1210159122644561 -1.605701746741841 1.5818861323794822 -0.6584523205164661 0.4072912799927759 -0.13832535007718114 0.8121286991284208 0.3975866511105024 -0.11592512800511003 -0.6673002578253991 -0.46955080015363004 0.2972969156498041 -1.66183304251777 -0.028921053909724385 0.4101590884588742 0.41408259188299656 2.4706979832932547 -1.7161329415119153 1.5878498061620847 0.24622709355718242 0.6122323703169779 0.046957856806777186 -0.017546750634511714 -0.022792572414483323 0.33274188672097527 0.0776048922686728 -0.05961462633883926 -0.0769006671127966 0.2832494364178025 -0.3850802911133755 0.4014309645572571 0.537166699530391 -1.1495217114681622 -0.4043149709732714 -0.865897151099128 0.36802976338899196 -0.5243109266136453 -0.20139990994016282 -0.7308463580081607 -0.4011941659561026 -0.5960562747777477 0.7485926262479882 0.29957028506501315 -0.20387331118131985 -0.8686921973457619 -0.1657381948724952 0.07710327004190592 -0.6210875067147626 0.36046660632975336 0.8652006392527357 -1.0032274842528914 1.3458781454471467 0.061894937732583734 -1.4786869365814725 -0.9699111294889489 1.4519238095550155 0.19519635223261222 0.2208988992050389 -0.27986175089249216 0.030779447274701832 -0.06534407262344875 -0.2822495343983784 -0.49042224428600056 -0.19429929433963958 0.22644939670962289 0.20938858457259424 -0.17155300178205937 -0.39630521329491747 0.13201946246381133 0.11598657737066477 -0.49715519213445997 -1.108544240614536 -0.03871541429232687 -0.26731836700984285 0.11252844361873524 -0.05800383020829365
0.871143744210048 -0.6749060951971151 0.2681051245771963 -0.011603388566883243 -0.04519510847939959 0.15351157089931627 -0.5468348187477744 0.7954545809068494 -0.59864820387464 -1.252539644493301 -0.3157049858433466 -0.7624688700094482 -0.16446215637354902 0.03545602681476474 0.40637699570862273 0.08875885200296327 -0.05990798920954199 0.3133750521585893 0.4764930357994181 -0.23848035973222798 0.026392373950599707 -0.4868247567427293 0.1415194315344466 -0.2874439341151243 -0.05450790123989322 0.7996619341199775 -0.2984621396024989 -0.08304817477143117 0.22830419053017453 0.06366077138375488 -0.33413182508996647 0.20334957746736593 0.038285525843759875 0.16252097348677816 -0.8370398605478037 -0.2869058022234672 0.1840627042132959 -0.1290007302421456 -0.11863892739184728 -0.048109711023033276 -0.7693725391078169 -0.03995082936132474 -0.5129307098011617 -0.3065454308312656 0.2907485730083251 -0.252030587612837 0.2541689741120784 0.4826374581342591 -0.3276374756148745 -0.02768872416452006 0.19603118942908174 -0.40137388606707647 -0.13815951392327822 -0.2755181292118158 -0.04519228026592217 -0.5012956966653946 0.5057951271976451 -0.088488371950396 0.05152593579343384 -0.3492105737999599 0.35772246792571294 -0.5312940427996978 0.32501057951498863 -0.13403109357720142 0.45908281074277063 -1.3830701811164117 0.10482464721657431 -0.310093296083524 -0.28545312893734065 0.11241042998363221 0.10301690458387419 -0.16840854261580673 -0.852828490840628 -0.07749382061210525 0.4371482154532084 -0.08831893625206726 0.33505793644866166 -0.31538745460292783 0.5666102016024887 -1.6903293501852503 -0.4722345176333803 0.0886935459826666 0.2691569628804784 0.233617632323288 -1.1486056274117962 0.2940789229331387 0.5591606873029789 0.43339543327899555 0.15563504500022227 -0.39824408218884316 -0.36970457998825357 -1.3539897188106875 0.2813401352102316 1.3233300849433014 0.3791266446331019 0.9941103524429717 1.1710932669913507 0.7835655427787472 -0.4962679044335001 0.2665439507376635 0.7276075393558888 -0.1449279429953633 0.5034515666661329 0.4758281485219095 0.42870779799533915 1.1246393464041855 -0.39097120267651375 -0.47114025612793703 0.3370474560748647 0.07628694478819764 -0.16219778581940453 0.02328545289050183 0.1916466872081409 0.5392492930910325 -0.20400726565602287 0.21984628957080846 -0.1798448094772064 0.32232223404954813 0.10625829433930732 -0.7661221504913194 1.4570698725323292 0.16785395566391736 0.42809793232548204 -0.26875098569131134 -0.162124766489624 0.4467271173908951 0.06517977913144259 -0.17033661287645502 0.6225085554320053 0.7605906791501289 -0.7791265331707872 -0.2677670245114872 -0.037185093690729504 -0.2618565725643232 -0.14816239077226095 -0.07337877000246718 0.5905394587245765 -0.23395856060247447 -0.16591765787315296 -0.353255690403611 0.14472611139720234 -1.1380196243658336 -0.9269310263829972 0.4071074461167441 0.09265278774073075 -0.04032621042287248 0.03174155407765501 1.1709310303818738 -0.35381567667213903 0.1866140098802399 -1.3183323746183941 0.49296763641567354 -0.17464346778192502 0.6771085021650727 -0.6121732349442683 -0.316467575040984 -0.054559837523751195 0.2613765476041111 -0.1016274804355153 -1.7409340597159952 1.216663499421982 0.7022055543430165 -0.26219030175465813 0.4453940004017684 -0.19308959030225456 -0.036177478361821565 -0.4191183545346911 0.23326153453544987 -0.3398530438444598 0.2829177641099966 0.1682794732371102 -0.3769556051237121 0.8963474971691853 -0.4813189964331517 0.8882878600895024 1.0814689816642988 -0.4201681359554441 -1.4556061435026093 0.02143451572469212 -0.20666295811131505 0.5200243834231496 -0.040501816768788314 -0.22843557390171626 -0.5038056075714419 0.3855574878601102 0.6549527920036398 1.2436017185737227 -0.5221393728836233 0.7751904313411746 -0.2149185132518879 0.1110174062908475 -0.3118295620483404
0.1726758025325929 0.22243590467485563 0.7011272336771731 -0.14195857595439423 1.2019225936673816 -0.10356095001280229 -0.03726248389588421 -0.4649932626899347 0.2601380472113197 0.43210679637455907 0.543277183303503 0.019193285098999202 0.5677988225939512 0.5200945745394526 0.4066613597182609 0.20618961801932234 -0.18702178684161985 0.6443176808872968 -0.5203241740517555 -0.21101223621894627 0.2527530676011583 -0.04339327938397043 -0.42629198946499486 0.2635123630001913 -0.515500527410867 0.871879079714176 -1.126537334757847 -0.579855496648169 1.5316619461166072 1.77166285625842 -0.36805881685471453 0.5937762204943192 0.6661599735733689 -0.7064756424732801 -1.3041005472897282 -0.5874199392589884 -0.19931397394541156 -0.28890869158610893 -0.016180209304288262 0.28285580052380965 -0.4494447734323743 -0.3584380059354988 0.2281015876010652 0.32078420013846687 0.6748994103288958 -0.20789734473904842 -0.722051642534666 -0.09948240906805447 0.5338034394851129 0.20931942189755562 0.14382288285664263 -0.03428308955258612 -0.8147100867023518 -0.7753935484909162 0.6772059469748853 -0.1371182171429574 -0.8807092764112963 0.16073534234126513 -0.15146548700356494 0.12062253348077935 -0.3568372371072822 0.07743777056318922 0.1910573903635742 -0.40745017416814344 0.2795251934886799 -0.1911203823910257 -0.22477972231668383 0.5975775965182805 -0.35389872330424854 -0.030228459867238267 -0.32714536646980436 -0.06430354717407635 0.25577257115377244 -0.05567441074416864 -0.715644967677374 -0.39918279195302864 1.134475101547685 -0.11871348938352458 0.07118356212336127 -0.23089534829611846 0.17663324451844417 0.2225631742813393 0.06284084658562081 -0.08148777226284676 1.6362611075859368 0.06759121678641263 0.164630049409981 -0.1610101932692066 -0.2703029035594635 0.6674671224205665 0.6653071386547703 -0.6990284421666155 -0.20712447112876584 -0.6794636326608106 -0.28871971550375436 0.17174763429136872 0.19906689093161203 -0.3196721980212107 -0.5891173815660693 1.0539440367711526 0.07753444404205358 -0.14034598005163573 -1.498084367271478 -1.0184607562628782 -0.13152118267115412 -0.8227309001242993 0.038558576999488434 0.08932886557382035 -0.24311065941538776 -0.08036368596073257 -0.701928646532546 0.44739586132314557 -0.10301510481166129 0.1910440206271355 -0.4943945986701872 0.32871219673629193 -0.05159098470341438 -0.7128056984563659 0.2750010803660812 -0.21456164413310144 0.19345031607578295 -0.2933939810509721 -0.9279921206576598 1.2308572744238608 -0.14767182428908762 -0.8330482228899072 -1.2077438283348492 0.6193257868286495 -0.7564589163699424 -0.21151025890128733 0.24468443166041084 -0.007168749834297331 -0.3864013239176442 -1.4976935595909626 -1.3919952515201832 0.6927603497697167 -0.15344472221712283 -0.00792362572245087 -2.1465376675937033 1.2950996293426984 2.223080180036132 -0.01192991866836655 0.45768207374050207 0.556007743496294 0.7041567645321164 -1.0687733884745012 -2.1764159432103742 0.13142168097881238 -0.41857379488513075 -0.14488423424162145 -0.5892665055494238 0.006624961515685364 0.38411818431042233 0.7636150677987494 0.5524555073686614 0.044990448667761224 0.8554314756811139 0.3194253721177273 0.5510822811702186 1.4384373450328065 -0.5957513419428192 0.6940919240969465 0.3532711170225787 -0.634586569642462 -0.6381393199907267 -0.3223697994580319 -0.03598464562472512 0.36535838720441594 -1.076544804889804 0.7487723463589621 2.6250909283562596 -0.7282670273167586 -1.4901491715848014 -0.2866852015722289 0.5347048682534598 0.2935467045787525 -0.48147634794662236 2.508210635526732 -0.28526543840656676 1.7367400762393057 -0.7144278074408212 1.5912043244566143 -1.5544203228590454 1.8025127517597408 0.08150628420560802 -0.583684383475956 -0.17859345356860856 -0.23498443076382758 -0.15807296501775359 -2.063802910297633 0.24193617949131235 0.7001080483840394
0.055197728218066226 -0.35336573361891405 -0.3990889466876417 1.096385236654499 0.038156970685695575 -1.4550253312984747 0.0017064411681454485 0.10003133959298902 -1.027347774339863 0.4727348543085665 -0.5023161675101091 1.1253307160442556 0.08233932162986465 -0.46485699422238647 -0.4317949215610951 -0.7085083566325926 1.2091682194862015 0.25265973655640356 -0.9520658737774119 1.3043224334925472 0.10112560109843229 0.6368514544172387 -0.3917882992611704 1.1054666301304767 1.19366960962997 -0.3996551036037569 1.338609122589559 -0.14987268859514835 0.4104750770373963 0.49950620886513974 0.05957528846047159 1.4657974822133142 -1.4891747234866741 -0.03488704168517217 0.8315693243515356 0.2679647423445901 0.21154188347017117 -0.5653177080433104 -0.22313704450693828 0.2222749536169591 -0.5606413856135635 1.1837027282252452 0.5184272141393588 -0.2007080260794608 0.22964219261530772 0.2336358871557331 0.8725514231908521 0.5706126378936625 -0.4853669412502802 -0.15106542335166886 -0.5697492614521027 0.286483627084384 0.8867148591754277 -0.0073325291056712425 -0.4838926706975989 -0.2317363561401751 -0.20813748577431251 -1.5387569052901757 0.4430409267885596 -1.3306965526107017 0.924189201971802 -1.9242454875855635 1.0953159148497202 -0.8740390634799721 -0.24329037952636165 -0.11150617300180797 -0.9905298341805652 -0.5992714392809356 -0.6209676933074467 0.6526495977917598 0.5688558031035559 0.2865898136449451 0.897644618714054 -0.04451170925912979 -0.07031632902705955 0.13311860906526105 -0.21122358089880397 -0.697188046523767 -0.16547080014372148 -0.41016731598899037 -0.1365050090389907 -0.9307015491690229 -0.05612641067992269 1.8324519625213342 -0.5051544082898526 -0.24677628119243308 0.1275889374962835 -0.8678794716364795 -0.7456317438474513 0.08218736943303265 0.366994123035626 -0.5180400060032692 2.027873800501191 0.28822272126267784 -0.39447587339566254 0.45037576988707595 0.3189312060901281 -0.14243294448765148 0.18293167593264623 0.03132606380679121 -0.24239100764054383 0.05790227163342286 -0.17657873713142494 -0.058407236294299406 0.08196831144369109 0.021921225553123536 -0.3172659025725633 -0.3407025363289487 -0.6567780181378366 -0.2432153033140521 -0.3538771260376938 0.36907388838279015 -0.3761572775921328 0.051232830033047246 -1.1229532169510146 0.41260317912399264 0.8829019131872408 -0.28646074426624857 -0.24232801561309236 -0.49780156746920723 -1.045590522600135 0.04402319965848547 -0.7021446191980939 -0.2727426233492077 0.18202870450240263 -0.03267820695931146 -0.009981279582427971 -0.1717975136926977 -0.18889329283271986 -0.027810337344048877 0.11559679813141382 0.38258683526756043 0.7552870075490282 0.8612943622197939 0.30001791412539297 -0.0921470517489058 0.39717450327374826 0.9651067661217703 0.8204580449297224 -0.3342297841204115 -0.4866249820270974 0.43076365208310335 0.3227809188535215 -0.5963645500467858 -1.4859407899304087 -0.6438214579771686 0.04464360685130376 0.10259087279004912 -1.3156985365399727 1.3970603247479167 -0.18363435842662568 -0.45069972888539794 -0.6978197665704949 0.44787665761430606 1.1276953596216903 -0.410974385271318 0.24790628103181822 0.49212662857161693 -0.07757172503789221 0.2913538106924917 1.1005794772415045 -0.08702464292067592 0.059708985824858465 0.5203244311620716 -0.7109645314825691 -0.4717665768580262 0.6520034795673287 -1.8359792589483026 0.6389363619707253 -0.5208934162916642 -0.7401151849045963 1.1301312227566924 0.1436642457915913 0.027244694648565982 -0.35881852920336915 0.4823160702390984 0.6420983046384748 -0.5115765097661125 0.5946408824874597 -1.2420585424563189 0.391561527962345 -0.9582434633430337 -0.011885181473360176 0.5837113800591495 0.2080539249215707 -0.4011157473096834 0.5350727931158398 -0.48725901606667055 0.5106606828200625 -0.120347939663154 -0.067537994950974 0.0892044241808141