An instance of this daemon is already running

     Program PWSCF v.7.1 starts on 10May2023 at 10:51:43 

     This program is part of the open-source Quantum ESPRESSO suite
     for quantum simulation of materials; please cite
         "P. Giannozzi et al., J. Phys.:Condens. Matter 21 395502 (2009);
         "P. Giannozzi et al., J. Phys.:Condens. Matter 29 465901 (2017);
         "P. Giannozzi et al., J. Chem. Phys. 152 154105 (2020);
          URL http://www.quantum-espresso.org", 
     in publications or presentations arising from this work. More details at
     http://www.quantum-espresso.org/quote

     Parallel version (MPI & OpenMP), running on       4 processor cores
     Number of MPI processes:                 4
     Threads/MPI process:                     1

     MPI processes distributed on     1 nodes
     153141 MiB available memory on the printing compute node when the environment starts
 
     Reading input from pw-si-75.in
Warning: card &CELL ignored
Warning: card / ignored

     Current dimensions of program PWSCF are:
     Max number of different atomic species (ntypx) = 10
     Max number of k-points (npk) =  40000
     Max angular momentum in pseudopotentials (lmaxx) =  4

     IMPORTANT: XC functional enforced from input :
     Exchange-correlation= PBE
                           (   1   4   3   4   0   0   0)
     Any further DFT definition will be discarded
     Please, verify this is what you really want


     gamma-point specific algorithms are used
 
     K-points division:     npool     =       2
     R & G space division:  proc/nbgrp/npool/nimage =       2
     Subspace diagonalization in iterative solution of the eigenvalue problem:
     a serial algorithm will be used

     Message from routine divide_et_impera:
     suboptimal parallelization: some nodes have no k-points
 
     Parallelization info
     --------------------
     sticks:   dense  smooth     PW     G-vecs:    dense   smooth      PW
     Min        1935    1935    516                90689    90689   12416
     Max        1942    1942    517                90690    90690   12421
     Sum        3877    3877   1033               181379   181379   24837
 
     Using Slab Decomposition
 


     bravais-lattice index     =            0
     lattice parameter (alat)  =      20.1433  a.u.
     unit-cell volume          =    8173.1894 (a.u.)^3
     number of atoms/cell      =           64
     number of atomic types    =            1
     number of electrons       =       256.00
     number of Kohn-Sham states=          154
     kinetic-energy cutoff     =      30.0000  Ry
     charge density cutoff     =     120.0000  Ry
     scf convergence threshold =      1.0E-06
     mixing beta               =       0.5000
     number of iterations used =            8  plain     mixing
     Exchange-correlation= PBE
                           (   1   4   3   4   0   0   0)

     GPU acceleration is ACTIVE.
     GPU-aware MPI enabled

     Message from routine print_cuda_info:
     High GPU oversubscription detected. Are you sure this is what you want?

     celldm(1)=  20.143295  celldm(2)=   0.000000  celldm(3)=   0.000000
     celldm(4)=   0.000000  celldm(5)=   0.000000  celldm(6)=   0.000000

     crystal axes: (cart. coord. in units of alat)
               a(1) = (   1.000000   0.000000   0.000000 )  
               a(2) = (   0.000000   1.000000   0.000000 )  
               a(3) = (   0.000000   0.000000   1.000000 )  

     reciprocal axes: (cart. coord. in units 2 pi/alat)
               b(1) = (  1.000000  0.000000  0.000000 )  
               b(2) = (  0.000000  1.000000  0.000000 )  
               b(3) = (  0.000000  0.000000  1.000000 )  


     PseudoPot. # 1 for Si read from file:
     /home/ppiaggi/pseudos/Si_ONCV_PBE_sr.upf
     MD5 check sum: 8553c464762ac42b85b1eed164b4d029
     Pseudo is Norm-conserving, Zval =  4.0
     Generated using ONCVPSP code by D. R. Hamann
     Using radial grid of 1510 points,  4 beta functions with: 
                l(1) =   0
                l(2) =   0
                l(3) =   1
                l(4) =   1

     atomic species   valence    mass     pseudopotential
        Si             4.00    28.08500     Si( 1.00)

     No symmetry found



   Cartesian axes

     site n.     atom                  positions (alat units)
         1           Si  tau(   1) = (   0.2478900   0.3977490   0.3673390  )
         2           Si  tau(   2) = (   0.8440460   0.3485860   0.0529384  )
         3           Si  tau(   3) = (   0.8443070   0.7155340   0.5334050  )
         4           Si  tau(   4) = (   0.5952730   0.7041690   0.1061130  )
         5           Si  tau(   5) = (   0.4607250   0.3505400   0.7076530  )
         6           Si  tau(   6) = (   0.2463110   0.1843430   0.1723400  )
         7           Si  tau(   7) = (   0.5799190   0.1376230   0.3992660  )
         8           Si  tau(   8) = (   0.5414120   0.4961860   0.0366291  )
         9           Si  tau(   9) = (   0.1039840   0.3829960   0.0953187  )
        10           Si  tau(  10) = (   0.4038960   0.5642770   0.8628810  )
        11           Si  tau(  11) = (   0.7867310   0.8460290   0.0079059  )
        12           Si  tau(  12) = (   0.4073670   0.8875150   0.8188180  )
        13           Si  tau(  13) = (   0.8276680   0.4635060   0.3287810  )
        14           Si  tau(  14) = (   0.9644740   0.7292770   0.9792180  )
        15           Si  tau(  15) = (   0.3269390   0.5242940   0.1728420  )
        16           Si  tau(  16) = (   0.3826700   0.5474840   0.5779310  )
        17           Si  tau(  17) = (   0.9824270   0.8432970   0.3751620  )
        18           Si  tau(  18) = (   0.0851452   0.8630850   0.6266970  )
        19           Si  tau(  19) = (   0.0674798   0.4403950   0.7533580  )
        20           Si  tau(  20) = (   0.0406272   0.0779185   0.0568227  )
        21           Si  tau(  21) = (   0.4507200   0.8140080   0.4570360  )
        22           Si  tau(  22) = (   0.6004280   0.1894910   0.8464040  )
        23           Si  tau(  23) = (   0.7600820   0.9175340   0.2431120  )
        24           Si  tau(  24) = (   0.4557430   0.8552260   0.0806191  )
        25           Si  tau(  25) = (   0.1033780   0.0433838   0.7749570  )
        26           Si  tau(  26) = (   0.8854680   0.3454860   0.6822660  )
        27           Si  tau(  27) = (   0.2091090   0.6425970   0.9709560  )
        28           Si  tau(  28) = (   0.7179910   0.4015450   0.8927060  )
        29           Si  tau(  29) = (   0.3677280   0.1964420   0.4598400  )
        30           Si  tau(  30) = (   0.7860920   0.0601201   0.8942630  )
        31           Si  tau(  31) = (   0.6753400   0.0604640   0.6080590  )
        32           Si  tau(  32) = (   0.2454830   0.7105770   0.7296530  )
        33           Si  tau(  33) = (   0.5410060   0.3985990   0.3419930  )
        34           Si  tau(  34) = (   0.9610880   0.5737430   0.1739690  )
        35           Si  tau(  35) = (   0.1402220   0.8823190   0.9827030  )
        36           Si  tau(  36) = (   0.8795950   0.0849905   0.2201130  )
        37           Si  tau(  37) = (   0.1692780   0.5574460   0.4762930  )
        38           Si  tau(  38) = (   0.6538050   0.3349900   0.5684610  )
        39           Si  tau(  39) = (   0.5441540   0.9405740   0.2837360  )
        40           Si  tau(  40) = (   0.7166670   0.2620840   0.2317120  )
        41           Si  tau(  41) = (   0.4295300   0.0561843   0.6869840  )
        42           Si  tau(  42) = (   0.9814700   0.6550090   0.7360710  )
        43           Si  tau(  43) = (   0.2421190   0.3967280   0.9083060  )
        44           Si  tau(  44) = (   0.9664390   0.2228080   0.9053420  )
        45           Si  tau(  45) = (   0.2779880   0.9258910   0.5361880  )
        46           Si  tau(  46) = (   0.5958490   0.8247790   0.6208860  )
        47           Si  tau(  47) = (   0.3302380   0.0569923   0.9833890  )
        48           Si  tau(  48) = (   0.6945260   0.6673010   0.3328880  )
        49           Si  tau(  49) = (   0.1009960   0.6885640   0.2953110  )
        50           Si  tau(  50) = (   0.9300310   0.4827460   0.4913830  )
        51           Si  tau(  51) = (   0.0361628   0.3066940   0.3260340  )
        52           Si  tau(  52) = (   0.4660520   0.6107400   0.3217470  )
        53           Si  tau(  53) = (   0.2827380   0.1973780   0.8025010  )
        54           Si  tau(  54) = (   0.7489430   0.5907750   0.7685500  )
        55           Si  tau(  55) = (   0.9648060   0.1335190   0.5765510  )
        56           Si  tau(  56) = (   0.6187290   0.5814670   0.5759360  )
        57           Si  tau(  57) = (   0.4344190   0.3068440   0.1347450  )
        58           Si  tau(  58) = (   0.0463354   0.0860127   0.3699490  )
        59           Si  tau(  59) = (   0.2652130   0.9993560   0.3216440  )
        60           Si  tau(  60) = (   0.5950720   0.7338410   0.8581560  )
        61           Si  tau(  61) = (   0.1589450   0.2655530   0.5986930  )
        62           Si  tau(  62) = (   0.2540170   0.8353070   0.1813200  )
        63           Si  tau(  63) = (   0.5663700   0.1145540   0.0743830  )
        64           Si  tau(  64) = (   0.8425680   0.9434460   0.6606710  )

     number of k points=     1  Fermi-Dirac smearing, width (Ry)=  0.0100
                       cart. coord. in units 2pi/alat
        k(    1) = (   0.0000000   0.0000000   0.0000000), wk =   2.0000000

     Dense  grid:    90690 G-vectors     FFT dimensions: (  72,  72,  72)

     Estimated max dynamical RAM per process >     145.59 MB

     Estimated total dynamical RAM >     560.21 MB

     Initial potential from superposition of free atoms

     starting charge     255.9608, renormalised to     256.0000
     Starting wfcs are  256 randomized atomic wfcs

     total cpu time spent up to now is        4.3 secs

     Self-consistent Calculation

     iteration #  1     ecut=    30.00 Ry     beta= 0.50
     Davidson diagonalization with overlap
     ethr =  1.00E-02,  avg # of iterations =  3.0

     Threshold (ethr) on eigenvalues was too large:
     Diagonalizing with lowered threshold

     Davidson diagonalization with overlap
     ethr =  3.78E-04,  avg # of iterations =  4.0

     total cpu time spent up to now is        4.5 secs

     total energy              =    -501.27715029 Ry
     estimated scf accuracy    <       1.15177405 Ry

     iteration #  2     ecut=    30.00 Ry     beta= 0.50
     Davidson diagonalization with overlap
     ethr =  4.50E-04,  avg # of iterations =  3.0

     total cpu time spent up to now is        4.6 secs

     total energy              =    -500.86605618 Ry
     estimated scf accuracy    <       4.29840883 Ry

     iteration #  3     ecut=    30.00 Ry     beta= 0.50
     Davidson diagonalization with overlap
     ethr =  4.50E-04,  avg # of iterations =  3.0

     total cpu time spent up to now is        4.7 secs

     total energy              =    -501.27961710 Ry
     estimated scf accuracy    <       2.32784246 Ry

     iteration #  4     ecut=    30.00 Ry     beta= 0.50
     Davidson diagonalization with overlap
     ethr =  4.50E-04,  avg # of iterations =  2.0

     total cpu time spent up to now is        4.8 secs

     total energy              =    -501.40606348 Ry
     estimated scf accuracy    <       0.61793226 Ry

     iteration #  5     ecut=    30.00 Ry     beta= 0.50
     Davidson diagonalization with overlap
     ethr =  2.41E-04,  avg # of iterations =  2.0

     total cpu time spent up to now is        4.9 secs

     total energy              =    -501.44097075 Ry
     estimated scf accuracy    <       0.52707989 Ry

     iteration #  6     ecut=    30.00 Ry     beta= 0.50
     Davidson diagonalization with overlap
     ethr =  2.06E-04,  avg # of iterations =  2.0

     total cpu time spent up to now is        4.9 secs

     total energy              =    -501.48402134 Ry
     estimated scf accuracy    <       0.07234932 Ry

     iteration #  7     ecut=    30.00 Ry     beta= 0.50
     Davidson diagonalization with overlap
     ethr =  2.83E-05,  avg # of iterations =  2.0

     total cpu time spent up to now is        5.0 secs

     total energy              =    -501.49113802 Ry
     estimated scf accuracy    <       0.05072705 Ry

     iteration #  8     ecut=    30.00 Ry     beta= 0.50
     Davidson diagonalization with overlap
     ethr =  1.98E-05,  avg # of iterations =  2.0

     total cpu time spent up to now is        5.1 secs

     total energy              =    -501.49589307 Ry
     estimated scf accuracy    <       0.01166786 Ry

     iteration #  9     ecut=    30.00 Ry     beta= 0.50
     Davidson diagonalization with overlap
     c_bands:  1 eigenvalues not converged
     ethr =  4.56E-06,  avg # of iterations = 20.0

     total cpu time spent up to now is        5.3 secs

     total energy              =    -501.49712968 Ry
     estimated scf accuracy    <       0.00230208 Ry

     iteration # 10     ecut=    30.00 Ry     beta= 0.50
     Davidson diagonalization with overlap
     ethr =  8.99E-07,  avg # of iterations =  7.0

     total cpu time spent up to now is        5.4 secs

     total energy              =    -501.49727727 Ry
     estimated scf accuracy    <       0.00318779 Ry

     iteration # 11     ecut=    30.00 Ry     beta= 0.50
     Davidson diagonalization with overlap
     ethr =  8.99E-07,  avg # of iterations =  2.0

     total cpu time spent up to now is        5.5 secs

     total energy              =    -501.49752794 Ry
     estimated scf accuracy    <       0.00029793 Ry

     iteration # 12     ecut=    30.00 Ry     beta= 0.50
     Davidson diagonalization with overlap
     ethr =  1.16E-07,  avg # of iterations =  3.0

     total cpu time spent up to now is        5.6 secs

     total energy              =    -501.49756475 Ry
     estimated scf accuracy    <       0.00019149 Ry

     iteration # 13     ecut=    30.00 Ry     beta= 0.50
     Davidson diagonalization with overlap
     ethr =  7.48E-08,  avg # of iterations =  3.0

     total cpu time spent up to now is        5.7 secs

     total energy              =    -501.49757972 Ry
     estimated scf accuracy    <       0.00022400 Ry

     iteration # 14     ecut=    30.00 Ry     beta= 0.50
     Davidson diagonalization with overlap
     ethr =  7.48E-08,  avg # of iterations =  2.0

     total cpu time spent up to now is        5.8 secs

     total energy              =    -501.49759410 Ry
     estimated scf accuracy    <       0.00002052 Ry

     iteration # 15     ecut=    30.00 Ry     beta= 0.50
     Davidson diagonalization with overlap
     ethr =  8.02E-09,  avg # of iterations =  4.0

     total cpu time spent up to now is        5.9 secs

     total energy              =    -501.49759639 Ry
     estimated scf accuracy    <       0.00003259 Ry

     iteration # 16     ecut=    30.00 Ry     beta= 0.50
     Davidson diagonalization with overlap
     ethr =  8.02E-09,  avg # of iterations =  2.0

     total cpu time spent up to now is        6.0 secs

     total energy              =    -501.49759843 Ry
     estimated scf accuracy    <       0.00000445 Ry

     iteration # 17     ecut=    30.00 Ry     beta= 0.50
     Davidson diagonalization with overlap
     ethr =  1.74E-09,  avg # of iterations =  3.0

     total cpu time spent up to now is        6.1 secs

     total energy              =    -501.49759883 Ry
     estimated scf accuracy    <       0.00000626 Ry

     iteration # 18     ecut=    30.00 Ry     beta= 0.50
     Davidson diagonalization with overlap
     ethr =  1.74E-09,  avg # of iterations =  2.0

     total cpu time spent up to now is        6.2 secs

     End of self-consistent calculation

          k = 0.0000 0.0000 0.0000 ( 11372 PWs)   bands (ev):

    -5.3244  -4.3461  -4.3171  -4.2004  -4.1135  -3.9295  -3.9121  -3.3480
    -3.2436  -3.1349  -3.0948  -3.0753  -3.0099  -2.9414  -2.9210  -2.8235
    -2.7143  -2.6612  -2.4558  -2.1755  -2.0919  -1.8997  -1.8362  -1.6536
    -1.5903  -1.3579  -1.3393  -1.0184  -0.8632  -0.7050  -0.5935  -0.4245
    -0.2302  -0.1319  -0.0544   0.0219   0.0423   0.1700   0.2569   0.3054
     0.3730   0.4666   0.5184   0.5685   0.6600   0.7208   0.8362   0.9579
     1.0334   1.0532   1.1824   1.2514   1.3364   1.4560   1.5270   1.6815
     1.7439   1.7552   1.9100   2.0579   2.2313   2.3225   2.3748   2.4628
     2.5222   2.6221   2.6522   2.7579   2.8021   2.8208   2.9323   3.0182
     3.0907   3.1633   3.2164   3.2721   3.3500   3.3978   3.5197   3.5823
     3.7832   4.1277   4.2519   4.3054   4.4944   4.5703   4.5993   4.6920
     4.7609   4.8797   4.9195   4.9371   4.9831   5.0313   5.1805   5.2554
     5.2617   5.3588   5.4012   5.4605   5.4993   5.5591   5.6389   5.6684
     5.7394   5.7942   5.8365   5.9200   5.9218   5.9650   5.9747   6.0681
     6.1001   6.1565   6.2143   6.2304   6.3630   6.4392   6.4644   6.5380
     6.6144   6.6237   6.6560   6.7490   6.7865   6.8809   6.9241   6.9553
     7.0693   7.0967   7.1492   7.2085   7.2340   7.3407   7.4406   7.4623
     7.4903   7.5520   7.6143   7.8310   7.9087   7.9764   8.0552   8.1329
     8.1848   8.2346   8.2781   8.3320   8.3917   8.4425   8.5824   8.6921
     8.7086   8.7812

     the Fermi energy is     7.0102 ev

!    total energy              =    -501.49759863 Ry
     estimated scf accuracy    <       0.00000093 Ry
     smearing contrib. (-TS)   =      -0.15198395 Ry
     internal energy E=F+TS    =    -501.34561468 Ry

     The total energy is F=E-TS. E is the sum of the following terms:
     one-electron contribution =     190.99350724 Ry
     hartree contribution      =      22.34878689 Ry
     xc contribution           =    -150.59749304 Ry
     ewald contribution        =    -564.09041578 Ry

     convergence has been achieved in  18 iterations

     Forces acting on atoms (cartesian axes, Ry/au):

     atom    1 type  1   force =     0.03296218   -0.07153483   -0.03110925
     atom    2 type  1   force =     0.04754663   -0.01489587    0.03209632
     atom    3 type  1   force =     0.00348939    0.00758089   -0.00831098
     atom    4 type  1   force =     0.06572777   -0.04824282    0.01223184
     atom    5 type  1   force =    -0.01198944    0.00774760   -0.00500346
     atom    6 type  1   force =    -0.02606530   -0.02816267   -0.01035433
     atom    7 type  1   force =     0.01463610    0.00023354    0.01154725
     atom    8 type  1   force =    -0.00431122   -0.00482495   -0.03150831
     atom    9 type  1   force =    -0.03617786    0.01193052    0.02153460
     atom   10 type  1   force =     0.02098562   -0.02094877   -0.00195382
     atom   11 type  1   force =    -0.07131596    0.03935650    0.01789691
     atom   12 type  1   force =    -0.00193450   -0.06000663    0.03311195
     atom   13 type  1   force =    -0.08275897   -0.00557797   -0.14540643
     atom   14 type  1   force =     0.04158862   -0.03642983   -0.01664425
     atom   15 type  1   force =    -0.01837078   -0.00884733   -0.02322641
     atom   16 type  1   force =     0.00230886    0.01171030    0.01942579
     atom   17 type  1   force =    -0.06100595    0.03659362    0.05815775
     atom   18 type  1   force =    -0.01079755   -0.02592098   -0.00286606
     atom   19 type  1   force =     0.04995864    0.01452609    0.01061294
     atom   20 type  1   force =     0.00976916   -0.00250122    0.00934887
     atom   21 type  1   force =     0.00505533   -0.02507318   -0.03665458
     atom   22 type  1   force =     0.01424913    0.01818441    0.00796189
     atom   23 type  1   force =    -0.00798835   -0.09594189   -0.02265920
     atom   24 type  1   force =    -0.04714931    0.06282897    0.01501169
     atom   25 type  1   force =    -0.00231135    0.01816253    0.00479225
     atom   26 type  1   force =    -0.03985221   -0.02669952   -0.04198854
     atom   27 type  1   force =     0.00825575   -0.00425967   -0.00026027
     atom   28 type  1   force =    -0.05457360    0.00807713   -0.03530288
     atom   29 type  1   force =    -0.01983274    0.01297667    0.01371654
     atom   30 type  1   force =     0.01829774   -0.02871190   -0.01322697
     atom   31 type  1   force =    -0.07525000    0.01982885   -0.02233618
     atom   32 type  1   force =     0.03190383    0.01757512    0.01611791
     atom   33 type  1   force =    -0.00412545   -0.02396784    0.00873102
     atom   34 type  1   force =     0.00726662   -0.02784669   -0.05521592
     atom   35 type  1   force =    -0.00396523    0.01130700    0.00731147
     atom   36 type  1   force =     0.02504004    0.06920267   -0.00933006
     atom   37 type  1   force =    -0.04660238    0.04434946    0.01906803
     atom   38 type  1   force =    -0.01671704    0.02197325   -0.02042117
     atom   39 type  1   force =    -0.00898108    0.01587644   -0.00264324
     atom   40 type  1   force =     0.01973099   -0.00851469   -0.00010253
     atom   41 type  1   force =     0.01485106    0.01708136   -0.04418349
     atom   42 type  1   force =    -0.01466653    0.00497071    0.02377016
     atom   43 type  1   force =    -0.03368434    0.01344330   -0.00717658
     atom   44 type  1   force =    -0.02125383   -0.00825139    0.00589329
     atom   45 type  1   force =     0.01711656    0.03200785   -0.00148695
     atom   46 type  1   force =     0.02536360    0.00459810    0.02915931
     atom   47 type  1   force =     0.01632278   -0.02110113    0.00760589
     atom   48 type  1   force =     0.01112014   -0.00357969    0.00066983
     atom   49 type  1   force =     0.07228501   -0.01228546   -0.00218199
     atom   50 type  1   force =     0.08800853    0.01849464    0.14944835
     atom   51 type  1   force =     0.01938627    0.01752131   -0.00760205
     atom   52 type  1   force =     0.01614927    0.02132154    0.03074847
     atom   53 type  1   force =    -0.00454926    0.00216157   -0.03341408
     atom   54 type  1   force =    -0.01044835   -0.00943680   -0.00779795
     atom   55 type  1   force =     0.02812999    0.01967534    0.01647494
     atom   56 type  1   force =     0.02011519   -0.00903422   -0.00457811
     atom   57 type  1   force =     0.01996498    0.01698070    0.02862302
     atom   58 type  1   force =     0.00134166   -0.02416687    0.01237517
     atom   59 type  1   force =    -0.02890281    0.06713095    0.03174380
     atom   60 type  1   force =    -0.00320357    0.01960071   -0.00177646
     atom   61 type  1   force =     0.00432741   -0.00317443    0.00630230
     atom   62 type  1   force =    -0.02143149   -0.03762424   -0.03416290
     atom   63 type  1   force =    -0.01258046    0.00903328   -0.00525325
     atom   64 type  1   force =     0.02954209   -0.01647943    0.02464908

     Total force =     0.446639     Total SCF correction =     0.001870


     Computing stress (Cartesian axis) and pressure

          total   stress  (Ry/bohr**3)                   (kbar)     P=      -36.14
  -0.00020900  -0.00004291   0.00003118          -30.75       -6.31        4.59
  -0.00004291  -0.00025045   0.00002382           -6.31      -36.84        3.50
   0.00003118   0.00002382  -0.00027756            4.59        3.50      -40.83

 
     init_run     :      0.95s CPU      4.19s WALL (       1 calls)
     electrons    :      1.71s CPU      1.87s WALL (       1 calls)
     forces       :      0.03s CPU      0.03s WALL (       1 calls)
     stress       :      0.14s CPU      0.14s WALL (       1 calls)

     Called by init_run:
     wfcinit      :      0.45s CPU      3.54s WALL (       1 calls)
                                        3.54s GPU  (       1 calls)
     potinit      :      0.04s CPU      0.11s WALL (       1 calls)
     hinit0       :      0.45s CPU      0.47s WALL (       1 calls)

     Called by electrons:
     c_bands      :      1.13s CPU      1.23s WALL (      19 calls)
     sum_band     :      0.30s CPU      0.34s WALL (      19 calls)
     v_of_rho     :      0.13s CPU      0.21s WALL (      19 calls)
     mix_rho      :      0.13s CPU      0.15s WALL (      19 calls)

     Called by c_bands:
     init_us_2    :      0.05s CPU      0.05s WALL (      39 calls)
     init_us_2:gp :      0.05s CPU      0.05s WALL (      39 calls)
     regterg      :      0.99s CPU      1.08s WALL (      19 calls)

     Called by *egterg:
     rdiaghg      :      0.45s CPU      1.17s WALL (      89 calls)
                                        1.15s GPU  (      89 calls)
     h_psi        :      0.82s CPU      3.25s WALL (      91 calls)
                                        3.25s GPU  (      91 calls)
     g_psi        :      0.00s CPU      0.00s WALL (      71 calls)
                                        0.00s GPU  (      71 calls)

     Called by h_psi:
     h_psi:calbec :      0.43s CPU      2.79s WALL (      91 calls)
                                        2.79s GPU  (      91 calls)
     vloc_psi     :      0.34s CPU      0.40s WALL (      91 calls)
                                        0.40s GPU  (      91 calls)
     add_vuspsi   :      0.03s CPU      0.05s WALL (      91 calls)
                                        0.05s GPU  (      91 calls)

     General routines
     calbec       :      0.43s CPU      2.80s WALL (      96 calls)
     fft          :      0.55s CPU      0.66s WALL (     159 calls)
                                        0.11s GPU  (     101 calls)
     ffts         :      0.03s CPU      0.03s WALL (      19 calls)
     fftw         :      0.42s CPU      0.54s WALL (    2011 calls)
                                        0.48s GPU  (    2011 calls)
 
     Parallel routines
 
     PWSCF        :      2.86s CPU      6.36s WALL

 
   This run was terminated on:  10:51:49  10May2023            

=------------------------------------------------------------------------------=
   JOB DONE.
=------------------------------------------------------------------------------=
