An instance of this daemon is already running
An instance of this daemon is already running

     Program PWSCF v.7.1 starts on 10May2023 at 10:42:24 

     This program is part of the open-source Quantum ESPRESSO suite
     for quantum simulation of materials; please cite
         "P. Giannozzi et al., J. Phys.:Condens. Matter 21 395502 (2009);
         "P. Giannozzi et al., J. Phys.:Condens. Matter 29 465901 (2017);
         "P. Giannozzi et al., J. Chem. Phys. 152 154105 (2020);
          URL http://www.quantum-espresso.org", 
     in publications or presentations arising from this work. More details at
     http://www.quantum-espresso.org/quote

     Parallel version (MPI & OpenMP), running on       4 processor cores
     Number of MPI processes:                 4
     Threads/MPI process:                     1

     MPI processes distributed on     1 nodes
     153201 MiB available memory on the printing compute node when the environment starts
 
     Reading input from pw-si-12.in
Warning: card &CELL ignored
Warning: card / ignored

     Current dimensions of program PWSCF are:
     Max number of different atomic species (ntypx) = 10
     Max number of k-points (npk) =  40000
     Max angular momentum in pseudopotentials (lmaxx) =  4

     IMPORTANT: XC functional enforced from input :
     Exchange-correlation= PBE
                           (   1   4   3   4   0   0   0)
     Any further DFT definition will be discarded
     Please, verify this is what you really want


     gamma-point specific algorithms are used
 
     K-points division:     npool     =       2
     R & G space division:  proc/nbgrp/npool/nimage =       2
     Subspace diagonalization in iterative solution of the eigenvalue problem:
     a serial algorithm will be used

     Message from routine divide_et_impera:
     suboptimal parallelization: some nodes have no k-points
 
     Parallelization info
     --------------------
     sticks:   dense  smooth     PW     G-vecs:    dense   smooth      PW
     Min        1935    1935    516                90689    90689   12416
     Max        1942    1942    517                90690    90690   12421
     Sum        3877    3877   1033               181379   181379   24837
 
     Using Slab Decomposition
 


     bravais-lattice index     =            0
     lattice parameter (alat)  =      20.1452  a.u.
     unit-cell volume          =    8175.5377 (a.u.)^3
     number of atoms/cell      =           64
     number of atomic types    =            1
     number of electrons       =       256.00
     number of Kohn-Sham states=          154
     kinetic-energy cutoff     =      30.0000  Ry
     charge density cutoff     =     120.0000  Ry
     scf convergence threshold =      1.0E-06
     mixing beta               =       0.5000
     number of iterations used =            8  plain     mixing
     Exchange-correlation= PBE
                           (   1   4   3   4   0   0   0)

     GPU acceleration is ACTIVE.
     GPU-aware MPI enabled

     Message from routine print_cuda_info:
     High GPU oversubscription detected. Are you sure this is what you want?

     celldm(1)=  20.145224  celldm(2)=   0.000000  celldm(3)=   0.000000
     celldm(4)=   0.000000  celldm(5)=   0.000000  celldm(6)=   0.000000

     crystal axes: (cart. coord. in units of alat)
               a(1) = (   1.000000   0.000000   0.000000 )  
               a(2) = (   0.000000   1.000000   0.000000 )  
               a(3) = (   0.000000   0.000000   1.000000 )  

     reciprocal axes: (cart. coord. in units 2 pi/alat)
               b(1) = (  1.000000  0.000000  0.000000 )  
               b(2) = (  0.000000  1.000000  0.000000 )  
               b(3) = (  0.000000  0.000000  1.000000 )  


     PseudoPot. # 1 for Si read from file:
     /home/ppiaggi/pseudos/Si_ONCV_PBE_sr.upf
     MD5 check sum: 8553c464762ac42b85b1eed164b4d029
     Pseudo is Norm-conserving, Zval =  4.0
     Generated using ONCVPSP code by D. R. Hamann
     Using radial grid of 1510 points,  4 beta functions with: 
                l(1) =   0
                l(2) =   0
                l(3) =   1
                l(4) =   1

     atomic species   valence    mass     pseudopotential
        Si             4.00    28.08500     Si( 1.00)

     No symmetry found



   Cartesian axes

     site n.     atom                  positions (alat units)
         1           Si  tau(   1) = (   0.5581430   0.9754460   0.5238160  )
         2           Si  tau(   2) = (   0.1777040   0.1793430   0.9686590  )
         3           Si  tau(   3) = (   0.3515600   0.2868070   0.0734836  )
         4           Si  tau(   4) = (   0.2081180   0.9515580   0.9533860  )
         5           Si  tau(   5) = (   0.5722070   0.1701230   0.0257707  )
         6           Si  tau(   6) = (   0.7290320   0.2970260   0.3661850  )
         7           Si  tau(   7) = (   0.3324610   0.2694170   0.7382560  )
         8           Si  tau(   8) = (   0.9647420   0.0938138   0.1290220  )
         9           Si  tau(   9) = (   0.9961970   0.3102440   0.0763056  )
        10           Si  tau(  10) = (   0.7661570   0.8583810   0.5394200  )
        11           Si  tau(  11) = (   0.3047440   0.8374330   0.7638750  )
        12           Si  tau(  12) = (   0.6525740   0.4084550   0.9171720  )
        13           Si  tau(  13) = (   0.2019640   0.0558051   0.6847990  )
        14           Si  tau(  14) = (   0.8194940   0.3711900   0.5961100  )
        15           Si  tau(  15) = (   0.8979850   0.6951480   0.9562990  )
        16           Si  tau(  16) = (   0.0272706   0.6538330   0.7275950  )
        17           Si  tau(  17) = (   0.9128480   0.8149960   0.3674910  )
        18           Si  tau(  18) = (   0.2050040   0.2373220   0.4771640  )
        19           Si  tau(  19) = (   0.9740640   0.2182470   0.5413490  )
        20           Si  tau(  20) = (   0.7453520   0.3237100   0.1597990  )
        21           Si  tau(  21) = (   0.7857560   0.6504330   0.6279720  )
        22           Si  tau(  22) = (   0.4494940   0.4392080   0.9299200  )
        23           Si  tau(  23) = (   0.7906050   0.5385800   0.1365520  )
        24           Si  tau(  24) = (   0.2772920   0.3824890   0.2595920  )
        25           Si  tau(  25) = (   0.4055370   0.4369850   0.6466780  )
        26           Si  tau(  26) = (   0.8745360   0.1263150   0.3484830  )
        27           Si  tau(  27) = (   0.6228850   0.1058980   0.7315280  )
        28           Si  tau(  28) = (   0.0396901   0.3500930   0.2967660  )
        29           Si  tau(  29) = (   0.2913490   0.6600610   0.4422500  )
        30           Si  tau(  30) = (   0.1569420   0.1035540   0.2619230  )
        31           Si  tau(  31) = (   0.3959970   0.0690851   0.2114940  )
        32           Si  tau(  32) = (   0.9318580   0.9709450   0.6463490  )
        33           Si  tau(  33) = (   0.2051930   0.5957790   0.2591130  )
        34           Si  tau(  34) = (   0.8289720   0.0877363   0.8095860  )
        35           Si  tau(  35) = (   0.2941640   0.8715870   0.3133730  )
        36           Si  tau(  36) = (   0.5434410   0.1503970   0.3784800  )
        37           Si  tau(  37) = (   0.1541550   0.4857200   0.8101420  )
        38           Si  tau(  38) = (   0.1683110   0.4595880   0.5585840  )
        39           Si  tau(  39) = (   0.3446650   0.6011670   0.8036410  )
        40           Si  tau(  40) = (   0.4453190   0.3443950   0.4223670  )
        41           Si  tau(  41) = (   0.2920430   0.7098480   0.0310010  )
        42           Si  tau(  42) = (   0.0274644   0.8754650   0.8266270  )
        43           Si  tau(  43) = (   0.7237760   0.9779530   0.9858220  )
        44           Si  tau(  44) = (   0.6361980   0.5199960   0.4722710  )
        45           Si  tau(  45) = (   0.4333650   0.5747920   0.1268800  )
        46           Si  tau(  46) = (   0.7188960   0.6104880   0.8348170  )
        47           Si  tau(  47) = (   0.8634450   0.2830410   0.8601970  )
        48           Si  tau(  48) = (   0.6305580   0.3465100   0.6730870  )
        49           Si  tau(  49) = (   0.4890020   0.6811260   0.5493080  )
        50           Si  tau(  50) = (   0.5141230   0.8335430   0.7064290  )
        51           Si  tau(  51) = (   0.1099940   0.8414650   0.1337960  )
        52           Si  tau(  52) = (   0.0742246   0.5420860   0.0118469  )
        53           Si  tau(  53) = (   0.7455440   0.9595750   0.2811470  )
        54           Si  tau(  54) = (   0.9659680   0.5509570   0.4750830  )
        55           Si  tau(  55) = (   0.0709041   0.2635600   0.7853860  )
        56           Si  tau(  56) = (   0.0936772   0.9679110   0.4701060  )
        57           Si  tau(  57) = (   0.9820270   0.6222600   0.2380750  )
        58           Si  tau(  58) = (   0.4477220   0.9071980   0.0241672  )
        59           Si  tau(  59) = (   0.8739500   0.8577240   0.0899986  )
        60           Si  tau(  60) = (   0.6191820   0.6323110   0.2629980  )
        61           Si  tau(  61) = (   0.4480170   0.0809421   0.8643140  )
        62           Si  tau(  62) = (   0.1785070   0.7643990   0.5727270  )
        63           Si  tau(  63) = (   0.5846840   0.7816550   0.8983240  )
        64           Si  tau(  64) = (   0.5051740   0.8357970   0.3627390  )

     number of k points=     1  Fermi-Dirac smearing, width (Ry)=  0.0100
                       cart. coord. in units 2pi/alat
        k(    1) = (   0.0000000   0.0000000   0.0000000), wk =   2.0000000

     Dense  grid:    90690 G-vectors     FFT dimensions: (  72,  72,  72)

     Estimated max dynamical RAM per process >     145.63 MB

     Estimated total dynamical RAM >     560.37 MB

     Initial potential from superposition of free atoms

     starting charge     255.9608, renormalised to     256.0000
     Starting wfcs are  256 randomized atomic wfcs

     total cpu time spent up to now is        4.4 secs

     Self-consistent Calculation

     iteration #  1     ecut=    30.00 Ry     beta= 0.50
     Davidson diagonalization with overlap
     ethr =  1.00E-02,  avg # of iterations =  3.0

     Threshold (ethr) on eigenvalues was too large:
     Diagonalizing with lowered threshold

     Davidson diagonalization with overlap
     ethr =  4.25E-04,  avg # of iterations =  4.0

     total cpu time spent up to now is        4.6 secs

     total energy              =    -501.22667136 Ry
     estimated scf accuracy    <       1.31541209 Ry

     iteration #  2     ecut=    30.00 Ry     beta= 0.50
     Davidson diagonalization with overlap
     ethr =  5.14E-04,  avg # of iterations =  3.0

     total cpu time spent up to now is        4.7 secs

     total energy              =    -500.79011593 Ry
     estimated scf accuracy    <       4.76310074 Ry

     iteration #  3     ecut=    30.00 Ry     beta= 0.50
     Davidson diagonalization with overlap
     ethr =  5.14E-04,  avg # of iterations =  4.0

     total cpu time spent up to now is        4.8 secs

     total energy              =    -501.23011609 Ry
     estimated scf accuracy    <       2.73542811 Ry

     iteration #  4     ecut=    30.00 Ry     beta= 0.50
     Davidson diagonalization with overlap
     ethr =  5.14E-04,  avg # of iterations =  2.0

     total cpu time spent up to now is        4.9 secs

     total energy              =    -501.42628225 Ry
     estimated scf accuracy    <       0.57852032 Ry

     iteration #  5     ecut=    30.00 Ry     beta= 0.50
     Davidson diagonalization with overlap
     ethr =  2.26E-04,  avg # of iterations =  2.0

     total cpu time spent up to now is        5.0 secs

     total energy              =    -501.46816192 Ry
     estimated scf accuracy    <       0.16150048 Ry

     iteration #  6     ecut=    30.00 Ry     beta= 0.50
     Davidson diagonalization with overlap
     ethr =  6.31E-05,  avg # of iterations =  3.0

     total cpu time spent up to now is        5.1 secs

     total energy              =    -501.48516813 Ry
     estimated scf accuracy    <       0.18549860 Ry

     iteration #  7     ecut=    30.00 Ry     beta= 0.50
     Davidson diagonalization with overlap
     ethr =  6.31E-05,  avg # of iterations =  2.0

     total cpu time spent up to now is        5.1 secs

     total energy              =    -501.49963797 Ry
     estimated scf accuracy    <       0.00744029 Ry

     iteration #  8     ecut=    30.00 Ry     beta= 0.50
     Davidson diagonalization with overlap
     ethr =  2.91E-06,  avg # of iterations = 17.0

     total cpu time spent up to now is        5.3 secs

     total energy              =    -501.50036369 Ry
     estimated scf accuracy    <       0.01647770 Ry

     iteration #  9     ecut=    30.00 Ry     beta= 0.50
     Davidson diagonalization with overlap
     ethr =  2.91E-06,  avg # of iterations =  3.0

     total cpu time spent up to now is        5.4 secs

     total energy              =    -501.50172247 Ry
     estimated scf accuracy    <       0.00533824 Ry

     iteration # 10     ecut=    30.00 Ry     beta= 0.50
     Davidson diagonalization with overlap
     ethr =  2.09E-06,  avg # of iterations =  2.0

     total cpu time spent up to now is        5.5 secs

     total energy              =    -501.50210469 Ry
     estimated scf accuracy    <       0.00078056 Ry

     iteration # 11     ecut=    30.00 Ry     beta= 0.50
     Davidson diagonalization with overlap
     ethr =  3.05E-07,  avg # of iterations =  2.0

     total cpu time spent up to now is        5.6 secs

     total energy              =    -501.50215238 Ry
     estimated scf accuracy    <       0.00050439 Ry

     iteration # 12     ecut=    30.00 Ry     beta= 0.50
     Davidson diagonalization with overlap
     ethr =  1.97E-07,  avg # of iterations =  2.0

     total cpu time spent up to now is        5.7 secs

     total energy              =    -501.50220722 Ry
     estimated scf accuracy    <       0.00035607 Ry

     iteration # 13     ecut=    30.00 Ry     beta= 0.50
     Davidson diagonalization with overlap
     ethr =  1.39E-07,  avg # of iterations =  1.0

     total cpu time spent up to now is        5.7 secs

     total energy              =    -501.50223122 Ry
     estimated scf accuracy    <       0.00005166 Ry

     iteration # 14     ecut=    30.00 Ry     beta= 0.50
     Davidson diagonalization with overlap
     ethr =  2.02E-08,  avg # of iterations =  2.0

     total cpu time spent up to now is        5.8 secs

     total energy              =    -501.50223638 Ry
     estimated scf accuracy    <       0.00002955 Ry

     iteration # 15     ecut=    30.00 Ry     beta= 0.50
     Davidson diagonalization with overlap
     ethr =  1.15E-08,  avg # of iterations =  2.0

     total cpu time spent up to now is        5.9 secs

     total energy              =    -501.50223787 Ry
     estimated scf accuracy    <       0.00000793 Ry

     iteration # 16     ecut=    30.00 Ry     beta= 0.50
     Davidson diagonalization with overlap
     ethr =  3.10E-09,  avg # of iterations =  3.0

     total cpu time spent up to now is        6.0 secs

     total energy              =    -501.50223919 Ry
     estimated scf accuracy    <       0.00000883 Ry

     iteration # 17     ecut=    30.00 Ry     beta= 0.50
     Davidson diagonalization with overlap
     ethr =  3.10E-09,  avg # of iterations =  1.0

     total cpu time spent up to now is        6.1 secs

     End of self-consistent calculation

          k = 0.0000 0.0000 0.0000 ( 11372 PWs)   bands (ev):

    -5.4065  -4.4638  -4.3459  -4.3376  -4.2439  -4.0566  -4.0081  -3.5137
    -3.3951  -3.3159  -3.2073  -3.1592  -3.0701  -2.9935  -2.9491  -2.8325
    -2.8176  -2.6777  -2.4641  -2.2255  -2.1120  -2.0058  -1.9559  -1.6645
    -1.4976  -1.4858  -1.2221  -1.1050  -1.0189  -0.8735  -0.7589  -0.5967
    -0.3565  -0.1720  -0.1421  -0.0946  -0.0155   0.0198   0.1509   0.2349
     0.3148   0.4035   0.5034   0.5360   0.6592   0.7106   0.7957   0.9568
     1.0166   1.0575   1.0926   1.2252   1.2646   1.5276   1.6055   1.6513
     1.7385   1.8382   1.8863   1.9255   1.9964   2.1746   2.2683   2.3475
     2.4683   2.5669   2.6077   2.7098   2.7794   2.9167   3.0066   3.0954
     3.1438   3.1841   3.1975   3.2502   3.4014   3.4376   3.5472   3.5965
     3.7511   4.1631   4.1859   4.2298   4.3768   4.4715   4.5258   4.5463
     4.5924   4.6185   4.8261   4.9261   4.9614   5.0154   5.0740   5.0999
     5.1541   5.2227   5.2653   5.3470   5.3827   5.5045   5.5261   5.6070
     5.6240   5.6780   5.7562   5.7652   5.8722   5.9045   6.0247   6.0798
     6.1074   6.2044   6.2366   6.3158   6.4044   6.4681   6.4972   6.5534
     6.5975   6.6704   6.7266   6.7554   6.8807   6.9395   6.9972   7.0580
     7.0939   7.0988   7.1756   7.2486   7.2990   7.4301   7.4487   7.5470
     7.6320   7.7113   7.7434   7.8696   7.9055   7.9657   8.0200   8.0378
     8.0767   8.1629   8.2115   8.2640   8.3283   8.4226   8.5199   8.6028
     8.6313   8.7079

     the Fermi energy is     7.0614 ev

!    total energy              =    -501.50223911 Ry
     estimated scf accuracy    <       0.00000083 Ry
     smearing contrib. (-TS)   =      -0.15023219 Ry
     internal energy E=F+TS    =    -501.35200692 Ry

     The total energy is F=E-TS. E is the sum of the following terms:
     one-electron contribution =     183.67478919 Ry
     hartree contribution      =      25.84279172 Ry
     xc contribution           =    -151.06270664 Ry
     ewald contribution        =    -559.80688119 Ry

     convergence has been achieved in  17 iterations

     Forces acting on atoms (cartesian axes, Ry/au):

     atom    1 type  1   force =     0.05568243    0.00961478    0.04458120
     atom    2 type  1   force =     0.00349759    0.00517375   -0.00124290
     atom    3 type  1   force =     0.00538629   -0.03604878   -0.00500855
     atom    4 type  1   force =    -0.00026623   -0.00351788   -0.01154111
     atom    5 type  1   force =     0.00971604   -0.00079574    0.02987925
     atom    6 type  1   force =    -0.02607373   -0.02037902    0.06855730
     atom    7 type  1   force =    -0.05284770   -0.10730311    0.05855428
     atom    8 type  1   force =     0.01302064   -0.02017757    0.02291937
     atom    9 type  1   force =    -0.02737971    0.03871886   -0.02603672
     atom   10 type  1   force =    -0.00794607    0.01011002    0.00485859
     atom   11 type  1   force =    -0.02727023   -0.00080463   -0.01388739
     atom   12 type  1   force =     0.09463357   -0.00444720   -0.03844691
     atom   13 type  1   force =    -0.02089487    0.03028953   -0.01498970
     atom   14 type  1   force =     0.07011824    0.01651638   -0.05245922
     atom   15 type  1   force =     0.00437177   -0.06654383   -0.02781119
     atom   16 type  1   force =    -0.01194529    0.04179954   -0.03599802
     atom   17 type  1   force =     0.01926607   -0.00124175   -0.02259439
     atom   18 type  1   force =    -0.02122484    0.00846917   -0.00838650
     atom   19 type  1   force =     0.01299141   -0.03992553    0.00632653
     atom   20 type  1   force =     0.01241905    0.00668008   -0.07079152
     atom   21 type  1   force =     0.02189432   -0.01976985   -0.03884882
     atom   22 type  1   force =    -0.07257740    0.02114902    0.03112023
     atom   23 type  1   force =     0.00052369    0.01789815   -0.02023465
     atom   24 type  1   force =    -0.00034208    0.00955722    0.01739661
     atom   25 type  1   force =     0.05745452    0.06738801   -0.07155932
     atom   26 type  1   force =     0.02360057   -0.00203112    0.00079377
     atom   27 type  1   force =    -0.00639120    0.02675263   -0.03729463
     atom   28 type  1   force =     0.02766276    0.00797305    0.01314785
     atom   29 type  1   force =     0.06867921   -0.04276920   -0.00725413
     atom   30 type  1   force =     0.01278824   -0.01263856    0.03454272
     atom   31 type  1   force =     0.00434027    0.00541163   -0.01410028
     atom   32 type  1   force =     0.00640466    0.02777411   -0.00564794
     atom   33 type  1   force =    -0.00274041   -0.00929742   -0.04985826
     atom   34 type  1   force =    -0.02597285   -0.06825517   -0.00779409
     atom   35 type  1   force =    -0.03638056    0.00607841   -0.01835953
     atom   36 type  1   force =     0.01084626    0.00845119   -0.01171193
     atom   37 type  1   force =    -0.00295845   -0.03048496   -0.02700185
     atom   38 type  1   force =     0.00336025   -0.00146303   -0.00654725
     atom   39 type  1   force =     0.00665507   -0.00305038    0.02215009
     atom   40 type  1   force =    -0.02301782    0.02462498    0.01814426
     atom   41 type  1   force =    -0.03745165    0.00648637    0.00309970
     atom   42 type  1   force =    -0.00294797   -0.03013217   -0.00452837
     atom   43 type  1   force =    -0.03116347    0.00823671   -0.02589535
     atom   44 type  1   force =    -0.02491676    0.00519249    0.00027783
     atom   45 type  1   force =     0.00964988   -0.02215289    0.00968498
     atom   46 type  1   force =     0.01058666   -0.00072844    0.03650626
     atom   47 type  1   force =     0.00121029    0.07828778    0.02928530
     atom   48 type  1   force =    -0.08470237   -0.01330571    0.06508482
     atom   49 type  1   force =    -0.00172880   -0.03045082   -0.03397631
     atom   50 type  1   force =    -0.01201101    0.02493917   -0.04353383
     atom   51 type  1   force =     0.03092670   -0.01552120    0.01193405
     atom   52 type  1   force =    -0.00985041    0.00516825    0.01805946
     atom   53 type  1   force =    -0.00714928   -0.03142026   -0.01050126
     atom   54 type  1   force =    -0.00467151   -0.02429224    0.00342811
     atom   55 type  1   force =     0.04880802    0.00324224   -0.00152081
     atom   56 type  1   force =    -0.00240421   -0.02320107   -0.00159051
     atom   57 type  1   force =     0.00429271    0.01968197    0.04607934
     atom   58 type  1   force =    -0.04028543    0.02773459    0.00691104
     atom   59 type  1   force =     0.02393525    0.04891789    0.05861993
     atom   60 type  1   force =    -0.02100056    0.01344583    0.01802245
     atom   61 type  1   force =    -0.02679367    0.00941000   -0.01719631
     atom   62 type  1   force =    -0.07367328    0.07976930    0.09204504
     atom   63 type  1   force =     0.04390332    0.02083007    0.02838381
     atom   64 type  1   force =     0.02835408   -0.05962358   -0.01624460

     Total force =     0.448587     Total SCF correction =     0.001843


     Computing stress (Cartesian axis) and pressure

          total   stress  (Ry/bohr**3)                   (kbar)     P=      -24.96
  -0.00015048  -0.00000645  -0.00007568          -22.14       -0.95      -11.13
  -0.00000645  -0.00014919  -0.00001570           -0.95      -21.95       -2.31
  -0.00007568  -0.00001570  -0.00020945          -11.13       -2.31      -30.81

 
     init_run     :      1.04s CPU      4.36s WALL (       1 calls)
     electrons    :      1.51s CPU      1.65s WALL (       1 calls)
     forces       :      0.03s CPU      0.03s WALL (       1 calls)
     stress       :      0.12s CPU      0.15s WALL (       1 calls)

     Called by init_run:
     wfcinit      :      0.54s CPU      3.70s WALL (       1 calls)
                                        3.70s GPU  (       1 calls)
     potinit      :      0.03s CPU      0.12s WALL (       1 calls)
     hinit0       :      0.45s CPU      0.48s WALL (       1 calls)

     Called by electrons:
     c_bands      :      0.97s CPU      1.04s WALL (      18 calls)
     sum_band     :      0.28s CPU      0.32s WALL (      18 calls)
     v_of_rho     :      0.11s CPU      0.21s WALL (      18 calls)
     mix_rho      :      0.12s CPU      0.13s WALL (      18 calls)

     Called by c_bands:
     init_us_2    :      0.04s CPU      0.05s WALL (      37 calls)
     init_us_2:gp :      0.04s CPU      0.05s WALL (      37 calls)
     regterg      :      0.84s CPU      0.91s WALL (      18 calls)

     Called by *egterg:
     rdiaghg      :      0.35s CPU      1.13s WALL (      75 calls)
                                        1.12s GPU  (      75 calls)
     h_psi        :      0.87s CPU      3.29s WALL (      77 calls)
                                        3.29s GPU  (      77 calls)
     g_psi        :      0.00s CPU      0.00s WALL (      58 calls)
                                        0.00s GPU  (      58 calls)

     Called by h_psi:
     h_psi:calbec :      0.50s CPU      2.86s WALL (      77 calls)
                                        2.86s GPU  (      77 calls)
     vloc_psi     :      0.33s CPU      0.39s WALL (      77 calls)
                                        0.38s GPU  (      77 calls)
     add_vuspsi   :      0.03s CPU      0.04s WALL (      77 calls)
                                        0.04s GPU  (      77 calls)

     General routines
     calbec       :      0.51s CPU      2.86s WALL (      82 calls)
     fft          :      0.54s CPU      0.65s WALL (     151 calls)
                                        0.11s GPU  (      96 calls)
     ffts         :      0.03s CPU      0.03s WALL (      18 calls)
     fftw         :      0.40s CPU      0.52s WALL (    1888 calls)
                                        0.46s GPU  (    1888 calls)
 
     Parallel routines
 
     PWSCF        :      2.74s CPU      6.26s WALL

 
   This run was terminated on:  10:42:30  10May2023            

=------------------------------------------------------------------------------=
   JOB DONE.
=------------------------------------------------------------------------------=
