An instance of this daemon is already running

     Program PWSCF v.7.1 starts on 10May2023 at 10:42: 7 

     This program is part of the open-source Quantum ESPRESSO suite
     for quantum simulation of materials; please cite
         "P. Giannozzi et al., J. Phys.:Condens. Matter 21 395502 (2009);
         "P. Giannozzi et al., J. Phys.:Condens. Matter 29 465901 (2017);
         "P. Giannozzi et al., J. Chem. Phys. 152 154105 (2020);
          URL http://www.quantum-espresso.org", 
     in publications or presentations arising from this work. More details at
     http://www.quantum-espresso.org/quote

     Parallel version (MPI & OpenMP), running on       4 processor cores
     Number of MPI processes:                 4
     Threads/MPI process:                     1

     MPI processes distributed on     1 nodes
     153210 MiB available memory on the printing compute node when the environment starts
 
     Reading input from pw-si-10.in
Warning: card &CELL ignored
Warning: card / ignored

     Current dimensions of program PWSCF are:
     Max number of different atomic species (ntypx) = 10
     Max number of k-points (npk) =  40000
     Max angular momentum in pseudopotentials (lmaxx) =  4

     IMPORTANT: XC functional enforced from input :
     Exchange-correlation= PBE
                           (   1   4   3   4   0   0   0)
     Any further DFT definition will be discarded
     Please, verify this is what you really want


     gamma-point specific algorithms are used
 
     K-points division:     npool     =       2
     R & G space division:  proc/nbgrp/npool/nimage =       2
     Subspace diagonalization in iterative solution of the eigenvalue problem:
     a serial algorithm will be used

     Message from routine divide_et_impera:
     suboptimal parallelization: some nodes have no k-points
 
     Parallelization info
     --------------------
     sticks:   dense  smooth     PW     G-vecs:    dense   smooth      PW
     Min        1933    1933    515                90495    90495   12286
     Max        1936    1936    518                90500    90500   12287
     Sum        3869    3869   1033               180995   180995   24573
 
     Using Slab Decomposition
 


     bravais-lattice index     =            0
     lattice parameter (alat)  =      20.1247  a.u.
     unit-cell volume          =    8150.5207 (a.u.)^3
     number of atoms/cell      =           64
     number of atomic types    =            1
     number of electrons       =       256.00
     number of Kohn-Sham states=          154
     kinetic-energy cutoff     =      30.0000  Ry
     charge density cutoff     =     120.0000  Ry
     scf convergence threshold =      1.0E-06
     mixing beta               =       0.5000
     number of iterations used =            8  plain     mixing
     Exchange-correlation= PBE
                           (   1   4   3   4   0   0   0)

     GPU acceleration is ACTIVE.
     GPU-aware MPI enabled

     Message from routine print_cuda_info:
     High GPU oversubscription detected. Are you sure this is what you want?

     celldm(1)=  20.124655  celldm(2)=   0.000000  celldm(3)=   0.000000
     celldm(4)=   0.000000  celldm(5)=   0.000000  celldm(6)=   0.000000

     crystal axes: (cart. coord. in units of alat)
               a(1) = (   1.000000   0.000000   0.000000 )  
               a(2) = (   0.000000   1.000000   0.000000 )  
               a(3) = (   0.000000   0.000000   1.000000 )  

     reciprocal axes: (cart. coord. in units 2 pi/alat)
               b(1) = (  1.000000  0.000000  0.000000 )  
               b(2) = (  0.000000  1.000000  0.000000 )  
               b(3) = (  0.000000  0.000000  1.000000 )  


     PseudoPot. # 1 for Si read from file:
     /home/ppiaggi/pseudos/Si_ONCV_PBE_sr.upf
     MD5 check sum: 8553c464762ac42b85b1eed164b4d029
     Pseudo is Norm-conserving, Zval =  4.0
     Generated using ONCVPSP code by D. R. Hamann
     Using radial grid of 1510 points,  4 beta functions with: 
                l(1) =   0
                l(2) =   0
                l(3) =   1
                l(4) =   1

     atomic species   valence    mass     pseudopotential
        Si             4.00    28.08500     Si( 1.00)

     No symmetry found



   Cartesian axes

     site n.     atom                  positions (alat units)
         1           Si  tau(   1) = (   0.5652690   0.9238570   0.2463340  )
         2           Si  tau(   2) = (   0.3917670   0.1343720   0.3854630  )
         3           Si  tau(   3) = (   0.4409970   0.3682650   0.4288650  )
         4           Si  tau(   4) = (   0.3845120   0.0163460   0.1412010  )
         5           Si  tau(   5) = (   0.9731070   0.2089980   0.8510700  )
         6           Si  tau(   6) = (   0.2896950   0.9899330   0.8440990  )
         7           Si  tau(   7) = (   0.9836070   0.1272120   0.2138550  )
         8           Si  tau(   8) = (   0.8383250   0.0599479   0.0186183  )
         9           Si  tau(   9) = (   0.0839343   0.8153090   0.5804000  )
        10           Si  tau(  10) = (   0.2843930   0.4178700   0.9197890  )
        11           Si  tau(  11) = (   0.1674050   0.1694370   0.4018000  )
        12           Si  tau(  12) = (   0.6254500   0.1287080   0.4927290  )
        13           Si  tau(  13) = (   0.8755770   0.7088920   0.9926180  )
        14           Si  tau(  14) = (   0.1076040   0.0416945   0.7150040  )
        15           Si  tau(  15) = (   0.9212630   0.1079170   0.4539260  )
        16           Si  tau(  16) = (   0.5326450   0.6294340   0.9502790  )
        17           Si  tau(  17) = (   0.8985600   0.8747020   0.1990110  )
        18           Si  tau(  18) = (   0.7480090   0.5866910   0.3477190  )
        19           Si  tau(  19) = (   0.1070330   0.6480140   0.0757475  )
        20           Si  tau(  20) = (   0.0589333   0.4178130   0.1416140  )
        21           Si  tau(  21) = (   0.1015180   0.5325480   0.4506840  )
        22           Si  tau(  22) = (   0.6846960   0.7398800   0.7851900  )
        23           Si  tau(  23) = (   0.8429780   0.3689640   0.3027370  )
        24           Si  tau(  24) = (   0.1625670   0.2483160   0.6183480  )
        25           Si  tau(  25) = (   0.1625620   0.9211020   0.3316460  )
        26           Si  tau(  26) = (   0.4901150   0.8843060   0.9741400  )
        27           Si  tau(  27) = (   0.9501690   0.7286330   0.3717690  )
        28           Si  tau(  28) = (   0.1720190   0.7016860   0.7666920  )
        29           Si  tau(  29) = (   0.9057340   0.6656870   0.7490650  )
        30           Si  tau(  30) = (   0.3573080   0.4038270   0.1383040  )
        31           Si  tau(  31) = (   0.7422610   0.0095291   0.3011320  )
        32           Si  tau(  32) = (   0.3644300   0.5781030   0.3910220  )
        33           Si  tau(  33) = (   0.7289270   0.2097570   0.1644700  )
        34           Si  tau(  34) = (   0.2376880   0.5427050   0.6327390  )
        35           Si  tau(  35) = (   0.8334690   0.8615040   0.5196070  )
        36           Si  tau(  36) = (   0.2990970   0.8772890   0.4980570  )
        37           Si  tau(  37) = (   0.8334020   0.4197600   0.6821510  )
        38           Si  tau(  38) = (   0.5405470   0.5421450   0.1877240  )
        39           Si  tau(  39) = (   0.1807960   0.0164605   0.0801172  )
        40           Si  tau(  40) = (   0.1004300   0.4187710   0.7917910  )
        41           Si  tau(  41) = (   0.4058230   0.1968430   0.9255530  )
        42           Si  tau(  42) = (   0.9634650   0.3679740   0.5148580  )
        43           Si  tau(  43) = (   0.6939310   0.4130540   0.0367341  )
        44           Si  tau(  44) = (   0.4801090   0.2262970   0.1453800  )
        45           Si  tau(  45) = (   0.7239450   0.5843010   0.5724630  )
        46           Si  tau(  46) = (   0.8935160   0.9280910   0.7446230  )
        47           Si  tau(  47) = (   0.6121190   0.8718900   0.6134920  )
        48           Si  tau(  48) = (   0.4809770   0.4397630   0.8008970  )
        49           Si  tau(  49) = (   0.1255120   0.2185080   0.0292316  )
        50           Si  tau(  50) = (   0.5809250   0.1301710   0.7570750  )
        51           Si  tau(  51) = (   0.2064620   0.3699010   0.3079920  )
        52           Si  tau(  52) = (   0.1838650   0.6917530   0.2790720  )
        53           Si  tau(  53) = (   0.0414517   0.8657440   0.9294000  )
        54           Si  tau(  54) = (   0.4039750   0.0716356   0.6219760  )
        55           Si  tau(  55) = (   0.6905780   0.9608120   0.8766300  )
        56           Si  tau(  56) = (   0.3554670   0.3458620   0.6265410  )
        57           Si  tau(  57) = (   0.9237230   0.4725330   0.9544640  )
        58           Si  tau(  58) = (   0.2949690   0.6447520   0.9488750  )
        59           Si  tau(  59) = (   0.6673740   0.3549860   0.4637670  )
        60           Si  tau(  60) = (   0.4827200   0.5990220   0.6248140  )
        61           Si  tau(  61) = (   0.4843030   0.7748720   0.4112560  )
        62           Si  tau(  62) = (   0.4038260   0.8020410   0.7140110  )
        63           Si  tau(  63) = (   0.6809570   0.3326330   0.8201630  )
        64           Si  tau(  64) = (   0.6834360   0.7490930   0.1611020  )

     number of k points=     1  Fermi-Dirac smearing, width (Ry)=  0.0100
                       cart. coord. in units 2pi/alat
        k(    1) = (   0.0000000   0.0000000   0.0000000), wk =   2.0000000

     Dense  grid:    90498 G-vectors     FFT dimensions: (  72,  72,  72)

     Estimated max dynamical RAM per process >     145.26 MB

     Estimated total dynamical RAM >     558.93 MB

     Initial potential from superposition of free atoms

     starting charge     255.9608, renormalised to     256.0000
     Starting wfcs are  256 randomized atomic wfcs

     total cpu time spent up to now is        4.4 secs

     Self-consistent Calculation

     iteration #  1     ecut=    30.00 Ry     beta= 0.50
     Davidson diagonalization with overlap
     ethr =  1.00E-02,  avg # of iterations =  3.0

     Threshold (ethr) on eigenvalues was too large:
     Diagonalizing with lowered threshold

     Davidson diagonalization with overlap
     ethr =  4.04E-04,  avg # of iterations =  4.0

     total cpu time spent up to now is        4.6 secs

     total energy              =    -501.21529554 Ry
     estimated scf accuracy    <       1.27400333 Ry

     iteration #  2     ecut=    30.00 Ry     beta= 0.50
     Davidson diagonalization with overlap
     ethr =  4.98E-04,  avg # of iterations =  4.0

     total cpu time spent up to now is        4.7 secs

     total energy              =    -500.62659460 Ry
     estimated scf accuracy    <       7.63644215 Ry

     iteration #  3     ecut=    30.00 Ry     beta= 0.50
     Davidson diagonalization with overlap
     ethr =  4.98E-04,  avg # of iterations =  4.0

     total cpu time spent up to now is        4.8 secs

     total energy              =    -501.31629892 Ry
     estimated scf accuracy    <       2.23180731 Ry

     iteration #  4     ecut=    30.00 Ry     beta= 0.50
     Davidson diagonalization with overlap
     ethr =  4.98E-04,  avg # of iterations =  2.0

     total cpu time spent up to now is        4.9 secs

     total energy              =    -501.47272487 Ry
     estimated scf accuracy    <       0.54993451 Ry

     iteration #  5     ecut=    30.00 Ry     beta= 0.50
     Davidson diagonalization with overlap
     ethr =  2.15E-04,  avg # of iterations =  2.0

     total cpu time spent up to now is        5.0 secs

     total energy              =    -501.48981939 Ry
     estimated scf accuracy    <       0.51892605 Ry

     iteration #  6     ecut=    30.00 Ry     beta= 0.50
     Davidson diagonalization with overlap
     ethr =  2.03E-04,  avg # of iterations =  2.0

     total cpu time spent up to now is        5.1 secs

     total energy              =    -501.53660050 Ry
     estimated scf accuracy    <       0.08800427 Ry

     iteration #  7     ecut=    30.00 Ry     beta= 0.50
     Davidson diagonalization with overlap
     ethr =  3.44E-05,  avg # of iterations =  2.0

     total cpu time spent up to now is        5.2 secs

     total energy              =    -501.54561773 Ry
     estimated scf accuracy    <       0.02568517 Ry

     iteration #  8     ecut=    30.00 Ry     beta= 0.50
     Davidson diagonalization with overlap
     ethr =  1.00E-05,  avg # of iterations = 18.0

     total cpu time spent up to now is        5.3 secs

     total energy              =    -501.54822174 Ry
     estimated scf accuracy    <       0.02245101 Ry

     iteration #  9     ecut=    30.00 Ry     beta= 0.50
     Davidson diagonalization with overlap
     ethr =  8.77E-06,  avg # of iterations =  2.0

     total cpu time spent up to now is        5.5 secs

     total energy              =    -501.54986948 Ry
     estimated scf accuracy    <       0.00219358 Ry

     iteration # 10     ecut=    30.00 Ry     beta= 0.50
     Davidson diagonalization with overlap
     ethr =  8.57E-07,  avg # of iterations =  4.0

     total cpu time spent up to now is        5.6 secs

     total energy              =    -501.55012995 Ry
     estimated scf accuracy    <       0.00187413 Ry

     iteration # 11     ecut=    30.00 Ry     beta= 0.50
     Davidson diagonalization with overlap
     ethr =  7.32E-07,  avg # of iterations =  2.0

     total cpu time spent up to now is        5.6 secs

     total energy              =    -501.55029480 Ry
     estimated scf accuracy    <       0.00044379 Ry

     iteration # 12     ecut=    30.00 Ry     beta= 0.50
     Davidson diagonalization with overlap
     ethr =  1.73E-07,  avg # of iterations =  2.0

     total cpu time spent up to now is        5.7 secs

     total energy              =    -501.55033819 Ry
     estimated scf accuracy    <       0.00018855 Ry

     iteration # 13     ecut=    30.00 Ry     beta= 0.50
     Davidson diagonalization with overlap
     ethr =  7.37E-08,  avg # of iterations =  2.0

     total cpu time spent up to now is        5.8 secs

     total energy              =    -501.55035234 Ry
     estimated scf accuracy    <       0.00018830 Ry

     iteration # 14     ecut=    30.00 Ry     beta= 0.50
     Davidson diagonalization with overlap
     ethr =  7.36E-08,  avg # of iterations =  1.0

     total cpu time spent up to now is        5.9 secs

     total energy              =    -501.55036491 Ry
     estimated scf accuracy    <       0.00001720 Ry

     iteration # 15     ecut=    30.00 Ry     beta= 0.50
     Davidson diagonalization with overlap
     ethr =  6.72E-09,  avg # of iterations =  4.0

     total cpu time spent up to now is        6.0 secs

     total energy              =    -501.55036646 Ry
     estimated scf accuracy    <       0.00003586 Ry

     iteration # 16     ecut=    30.00 Ry     beta= 0.50
     Davidson diagonalization with overlap
     ethr =  6.72E-09,  avg # of iterations =  2.0

     total cpu time spent up to now is        6.1 secs

     total energy              =    -501.55036944 Ry
     estimated scf accuracy    <       0.00000439 Ry

     iteration # 17     ecut=    30.00 Ry     beta= 0.50
     Davidson diagonalization with overlap
     ethr =  1.71E-09,  avg # of iterations =  2.0

     total cpu time spent up to now is        6.1 secs

     End of self-consistent calculation

          k = 0.0000 0.0000 0.0000 ( 11324 PWs)   bands (ev):

    -5.3700  -4.4573  -4.3195  -4.1837  -4.0933  -3.9777  -3.8322  -3.5138
    -3.2879  -3.1119  -3.0931  -3.0339  -2.9036  -2.8892  -2.7935  -2.7475
    -2.7110  -2.6557  -2.1436  -2.1063  -1.9823  -1.9166  -1.7533  -1.6867
    -1.5032  -1.4518  -1.2821  -0.9143  -0.8517  -0.7578  -0.5512  -0.2778
    -0.1738  -0.0368   0.0090   0.0460   0.1327   0.1370   0.2163   0.2735
     0.3589   0.4649   0.5899   0.6027   0.6787   0.8238   0.8824   0.9655
     1.0023   1.1132   1.2704   1.3102   1.4175   1.4988   1.5182   1.6437
     1.7508   1.8310   1.9043   2.0475   2.0771   2.2363   2.3499   2.4023
     2.4880   2.5853   2.6406   2.7260   2.8007   2.8321   2.8978   3.0079
     3.0660   3.1080   3.3451   3.3748   3.4568   3.5626   3.6068   3.7249
     3.8555   4.1603   4.3020   4.4557   4.4903   4.5729   4.6722   4.6942
     4.7440   4.8362   4.9324   4.9370   5.0335   5.1169   5.1986   5.2403
     5.2759   5.3121   5.3617   5.4809   5.5636   5.6403   5.6512   5.6799
     5.7542   5.7882   5.8546   5.8858   5.9121   6.0629   6.1257   6.1512
     6.2238   6.2594   6.3216   6.4019   6.4370   6.4501   6.5505   6.5587
     6.6198   6.6712   6.7433   6.8131   6.8639   6.8702   6.9978   7.0536
     7.1401   7.1627   7.3032   7.3342   7.3655   7.3990   7.4537   7.4986
     7.5898   7.6401   7.7148   7.7533   7.9453   8.0395   8.0667   8.0868
     8.1038   8.1761   8.2859   8.3321   8.4691   8.5214   8.5763   8.6379
     8.6652   8.7323

     the Fermi energy is     7.0868 ev

!    total energy              =    -501.55036937 Ry
     estimated scf accuracy    <       0.00000089 Ry
     smearing contrib. (-TS)   =      -0.14408019 Ry
     internal energy E=F+TS    =    -501.40628918 Ry

     The total energy is F=E-TS. E is the sum of the following terms:
     one-electron contribution =     187.31878648 Ry
     hartree contribution      =      24.49918229 Ry
     xc contribution           =    -150.62555978 Ry
     ewald contribution        =    -562.59869818 Ry

     convergence has been achieved in  17 iterations

     Forces acting on atoms (cartesian axes, Ry/au):

     atom    1 type  1   force =    -0.07765755   -0.06580972   -0.00039633
     atom    2 type  1   force =     0.01946189    0.01388523    0.00321576
     atom    3 type  1   force =     0.03080232   -0.00539585   -0.01247463
     atom    4 type  1   force =     0.05547410    0.01420370    0.01661558
     atom    5 type  1   force =     0.01301900   -0.02205950    0.01600113
     atom    6 type  1   force =     0.00484195    0.00486027    0.00223079
     atom    7 type  1   force =    -0.01214212   -0.01336999    0.00375045
     atom    8 type  1   force =     0.02149279    0.01855172    0.01430424
     atom    9 type  1   force =     0.00323057    0.01375550    0.01431311
     atom   10 type  1   force =     0.01441948   -0.01856988    0.02915625
     atom   11 type  1   force =    -0.01377811    0.01483892   -0.00165920
     atom   12 type  1   force =     0.00490390   -0.02103665    0.00607127
     atom   13 type  1   force =     0.00366433   -0.00422142    0.00953582
     atom   14 type  1   force =    -0.01710940    0.00091649    0.01033862
     atom   15 type  1   force =     0.00925223   -0.00680827   -0.02489489
     atom   16 type  1   force =     0.01191265    0.01997555    0.01071923
     atom   17 type  1   force =    -0.00544097    0.02942227   -0.02448810
     atom   18 type  1   force =     0.01060333   -0.00450862   -0.03785568
     atom   19 type  1   force =    -0.01201101   -0.01963388    0.00603958
     atom   20 type  1   force =    -0.00846721   -0.00753283   -0.00267360
     atom   21 type  1   force =     0.02121265    0.01463022   -0.00093699
     atom   22 type  1   force =     0.00529784   -0.00898689    0.02119016
     atom   23 type  1   force =     0.00257265    0.00377903    0.00751735
     atom   24 type  1   force =    -0.04435442   -0.01291629   -0.01150109
     atom   25 type  1   force =    -0.01255286   -0.00835043   -0.03743365
     atom   26 type  1   force =     0.00818898   -0.01978934   -0.01539727
     atom   27 type  1   force =     0.01177837   -0.00447718    0.00954849
     atom   28 type  1   force =     0.01461173    0.03525731    0.01869351
     atom   29 type  1   force =    -0.02146018   -0.00636550    0.01011485
     atom   30 type  1   force =    -0.02246037    0.02272133    0.01389680
     atom   31 type  1   force =     0.05320294    0.07199166    0.04691973
     atom   32 type  1   force =     0.00777096    0.01747534   -0.01006120
     atom   33 type  1   force =    -0.01453519   -0.00009680   -0.00194070
     atom   34 type  1   force =    -0.00105155   -0.01294721   -0.04062269
     atom   35 type  1   force =     0.00118044    0.03215115    0.00737698
     atom   36 type  1   force =     0.01577994    0.00801151    0.02990348
     atom   37 type  1   force =    -0.00573567    0.03242519    0.00793119
     atom   38 type  1   force =     0.02016923   -0.00631622   -0.03567268
     atom   39 type  1   force =    -0.03599225   -0.04280674   -0.00232585
     atom   40 type  1   force =    -0.02548865   -0.01154815   -0.00228028
     atom   41 type  1   force =    -0.01448564   -0.00530426    0.00155181
     atom   42 type  1   force =     0.01336203   -0.04050117   -0.01531913
     atom   43 type  1   force =    -0.00088160   -0.01768439    0.00217413
     atom   44 type  1   force =     0.03973740   -0.03784231    0.00238957
     atom   45 type  1   force =    -0.03764741   -0.00468153    0.00993991
     atom   46 type  1   force =     0.01615811   -0.00296424   -0.01529958
     atom   47 type  1   force =    -0.02696179    0.00530390   -0.02666533
     atom   48 type  1   force =     0.00573191    0.01188214   -0.01722363
     atom   49 type  1   force =    -0.01120631    0.04901240   -0.01511423
     atom   50 type  1   force =     0.02422718    0.01024425    0.00702073
     atom   51 type  1   force =    -0.00736429    0.01483160   -0.00992839
     atom   52 type  1   force =    -0.01607158    0.01005628    0.02555660
     atom   53 type  1   force =     0.00579090   -0.01118404    0.00160187
     atom   54 type  1   force =    -0.01268838   -0.01346474   -0.00607691
     atom   55 type  1   force =    -0.01003008   -0.00087919   -0.01184975
     atom   56 type  1   force =     0.01666894   -0.00307289    0.01962506
     atom   57 type  1   force =     0.00252574    0.01532664    0.00013021
     atom   58 type  1   force =    -0.01315896   -0.01506396   -0.01641643
     atom   59 type  1   force =    -0.01018858    0.00368436   -0.00424675
     atom   60 type  1   force =     0.01697082    0.01251082    0.00050310
     atom   61 type  1   force =     0.01340897    0.00191712    0.01727407
     atom   62 type  1   force =    -0.01447033    0.00976390    0.00070073
     atom   63 type  1   force =    -0.02633047   -0.02224469    0.00739323
     atom   64 type  1   force =     0.01229663   -0.01495103   -0.01049044

     Total force =     0.279069     Total SCF correction =     0.001765


     Computing stress (Cartesian axis) and pressure

          total   stress  (Ry/bohr**3)                   (kbar)     P=      -39.70
  -0.00022204   0.00001551   0.00004295          -32.66        2.28        6.32
   0.00001551  -0.00031837  -0.00001063            2.28      -46.83       -1.56
   0.00004295  -0.00001063  -0.00026920            6.32       -1.56      -39.60

 
     init_run     :      0.97s CPU      4.35s WALL (       1 calls)
     electrons    :      1.55s CPU      1.70s WALL (       1 calls)
     forces       :      0.03s CPU      0.03s WALL (       1 calls)
     stress       :      0.14s CPU      0.14s WALL (       1 calls)

     Called by init_run:
     wfcinit      :      0.46s CPU      3.68s WALL (       1 calls)
                                        3.68s GPU  (       1 calls)
     potinit      :      0.04s CPU      0.13s WALL (       1 calls)
     hinit0       :      0.45s CPU      0.47s WALL (       1 calls)

     Called by electrons:
     c_bands      :      1.00s CPU      1.09s WALL (      18 calls)
     sum_band     :      0.28s CPU      0.32s WALL (      18 calls)
     v_of_rho     :      0.12s CPU      0.22s WALL (      18 calls)
     mix_rho      :      0.13s CPU      0.14s WALL (      18 calls)

     Called by c_bands:
     init_us_2    :      0.04s CPU      0.05s WALL (      37 calls)
     init_us_2:gp :      0.04s CPU      0.05s WALL (      37 calls)
     regterg      :      0.87s CPU      0.95s WALL (      18 calls)

     Called by *egterg:
     rdiaghg      :      0.37s CPU      1.03s WALL (      79 calls)
                                        1.02s GPU  (      79 calls)
     h_psi        :      0.82s CPU      3.43s WALL (      81 calls)
                                        3.43s GPU  (      81 calls)
     g_psi        :      0.00s CPU      0.00s WALL (      62 calls)
                                        0.00s GPU  (      62 calls)

     Called by h_psi:
     h_psi:calbec :      0.44s CPU      2.99s WALL (      81 calls)
                                        2.99s GPU  (      81 calls)
     vloc_psi     :      0.33s CPU      0.39s WALL (      81 calls)
                                        0.39s GPU  (      81 calls)
     add_vuspsi   :      0.03s CPU      0.05s WALL (      81 calls)
                                        0.04s GPU  (      81 calls)

     General routines
     calbec       :      0.44s CPU      2.99s WALL (      86 calls)
     fft          :      0.54s CPU      0.66s WALL (     151 calls)
                                        0.12s GPU  (      96 calls)
     ffts         :      0.03s CPU      0.03s WALL (      18 calls)
     fftw         :      0.40s CPU      0.53s WALL (    1900 calls)
                                        0.46s GPU  (    1900 calls)
 
     Parallel routines
 
     PWSCF        :      2.72s CPU      6.33s WALL

 
   This run was terminated on:  10:42:13  10May2023            

=------------------------------------------------------------------------------=
   JOB DONE.
=------------------------------------------------------------------------------=
