An instance of this daemon is already running
An instance of this daemon is already running

     Program PWSCF v.7.1 starts on 10May2023 at 10:47:52 

     This program is part of the open-source Quantum ESPRESSO suite
     for quantum simulation of materials; please cite
         "P. Giannozzi et al., J. Phys.:Condens. Matter 21 395502 (2009);
         "P. Giannozzi et al., J. Phys.:Condens. Matter 29 465901 (2017);
         "P. Giannozzi et al., J. Chem. Phys. 152 154105 (2020);
          URL http://www.quantum-espresso.org", 
     in publications or presentations arising from this work. More details at
     http://www.quantum-espresso.org/quote

     Parallel version (MPI & OpenMP), running on       4 processor cores
     Number of MPI processes:                 4
     Threads/MPI process:                     1

     MPI processes distributed on     1 nodes
     153214 MiB available memory on the printing compute node when the environment starts
 
     Reading input from pw-si-49.in
Warning: card &CELL ignored
Warning: card / ignored

     Current dimensions of program PWSCF are:
     Max number of different atomic species (ntypx) = 10
     Max number of k-points (npk) =  40000
     Max angular momentum in pseudopotentials (lmaxx) =  4

     IMPORTANT: XC functional enforced from input :
     Exchange-correlation= PBE
                           (   1   4   3   4   0   0   0)
     Any further DFT definition will be discarded
     Please, verify this is what you really want


     gamma-point specific algorithms are used
 
     K-points division:     npool     =       2
     R & G space division:  proc/nbgrp/npool/nimage =       2
     Subspace diagonalization in iterative solution of the eigenvalue problem:
     a serial algorithm will be used

     Message from routine divide_et_impera:
     suboptimal parallelization: some nodes have no k-points
 
     Parallelization info
     --------------------
     sticks:   dense  smooth     PW     G-vecs:    dense   smooth      PW
     Min        1916    1916    502                89532    89532   12150
     Max        1917    1917    503                89537    89537   12153
     Sum        3833    3833   1005               179069   179069   24303
 
     Using Slab Decomposition
 


     bravais-lattice index     =            0
     lattice parameter (alat)  =      20.0557  a.u.
     unit-cell volume          =    8066.9966 (a.u.)^3
     number of atoms/cell      =           64
     number of atomic types    =            1
     number of electrons       =       256.00
     number of Kohn-Sham states=          154
     kinetic-energy cutoff     =      30.0000  Ry
     charge density cutoff     =     120.0000  Ry
     scf convergence threshold =      1.0E-06
     mixing beta               =       0.5000
     number of iterations used =            8  plain     mixing
     Exchange-correlation= PBE
                           (   1   4   3   4   0   0   0)

     GPU acceleration is ACTIVE.
     GPU-aware MPI enabled

     Message from routine print_cuda_info:
     High GPU oversubscription detected. Are you sure this is what you want?

     celldm(1)=  20.055675  celldm(2)=   0.000000  celldm(3)=   0.000000
     celldm(4)=   0.000000  celldm(5)=   0.000000  celldm(6)=   0.000000

     crystal axes: (cart. coord. in units of alat)
               a(1) = (   1.000000   0.000000   0.000000 )  
               a(2) = (   0.000000   1.000000   0.000000 )  
               a(3) = (   0.000000   0.000000   1.000000 )  

     reciprocal axes: (cart. coord. in units 2 pi/alat)
               b(1) = (  1.000000  0.000000  0.000000 )  
               b(2) = (  0.000000  1.000000  0.000000 )  
               b(3) = (  0.000000  0.000000  1.000000 )  


     PseudoPot. # 1 for Si read from file:
     /home/ppiaggi/pseudos/Si_ONCV_PBE_sr.upf
     MD5 check sum: 8553c464762ac42b85b1eed164b4d029
     Pseudo is Norm-conserving, Zval =  4.0
     Generated using ONCVPSP code by D. R. Hamann
     Using radial grid of 1510 points,  4 beta functions with: 
                l(1) =   0
                l(2) =   0
                l(3) =   1
                l(4) =   1

     atomic species   valence    mass     pseudopotential
        Si             4.00    28.08500     Si( 1.00)

     No symmetry found



   Cartesian axes

     site n.     atom                  positions (alat units)
         1           Si  tau(   1) = (   0.4612990   0.6001630   0.5798990  )
         2           Si  tau(   2) = (   0.0508475   0.0424746   0.5431910  )
         3           Si  tau(   3) = (   0.9624860   0.2801590   0.5662020  )
         4           Si  tau(   4) = (   0.4843680   0.7910890   0.4410110  )
         5           Si  tau(   5) = (   0.3659860   0.0172705   0.1605380  )
         6           Si  tau(   6) = (   0.7922700   0.3860080   0.8588980  )
         7           Si  tau(   7) = (   0.9920870   0.5071190   0.6783550  )
         8           Si  tau(   8) = (   0.5554950   0.4139100   0.8982590  )
         9           Si  tau(   9) = (   0.2441750   0.4462310   0.8192390  )
        10           Si  tau(  10) = (   0.1490540   0.4250360   0.2379140  )
        11           Si  tau(  11) = (   0.5196490   0.0222173   0.6939030  )
        12           Si  tau(  12) = (   0.1804050   0.0095013   0.3091180  )
        13           Si  tau(  13) = (   0.8929550   0.8848280   0.6492410  )
        14           Si  tau(  14) = (   0.7876130   0.8076570   0.4437360  )
        15           Si  tau(  15) = (   0.5651200   0.0160834   0.4460700  )
        16           Si  tau(  16) = (   0.7802190   0.4927660   0.6131900  )
        17           Si  tau(  17) = (   0.2514810   0.5112670   0.5836930  )
        18           Si  tau(  18) = (   0.2416850   0.8916280   0.7738860  )
        19           Si  tau(  19) = (   0.4373150   0.2579330   0.1265990  )
        20           Si  tau(  20) = (   0.4164940   0.5315450   0.0478803  )
        21           Si  tau(  21) = (   0.9774010   0.7450820   0.3166670  )
        22           Si  tau(  22) = (   0.8786830   0.0831359   0.7537950  )
        23           Si  tau(  23) = (   0.6734990   0.1690180   0.7607360  )
        24           Si  tau(  24) = (   0.3060070   0.1606580   0.4239820  )
        25           Si  tau(  25) = (   0.9218320   0.5983090   0.8906630  )
        26           Si  tau(  26) = (   0.6371420   0.2981330   0.5899440  )
        27           Si  tau(  27) = (   0.2683200   0.8153340   0.0962922  )
        28           Si  tau(  28) = (   0.9780320   0.5872270   0.1474000  )
        29           Si  tau(  29) = (   0.2792880   0.8808450   0.5196960  )
        30           Si  tau(  30) = (   0.1726980   0.6445270   0.9637520  )
        31           Si  tau(  31) = (   0.2592100   0.3323240   0.0405410  )
        32           Si  tau(  32) = (   0.6466350   0.8126410   0.6481970  )
        33           Si  tau(  33) = (   0.5308000   0.2362260   0.3705610  )
        34           Si  tau(  34) = (   0.9034840   0.4476810   0.3417130  )
        35           Si  tau(  35) = (   0.3567280   0.5423080   0.2676330  )
        36           Si  tau(  36) = (   0.0503663   0.7726060   0.7817550  )
        37           Si  tau(  37) = (   0.7598520   0.0161751   0.3445140  )
        38           Si  tau(  38) = (   0.7258590   0.0161028   0.0910834  )
        39           Si  tau(  39) = (   0.1462370   0.3437470   0.4387160  )
        40           Si  tau(  40) = (   0.0724144   0.9323790   0.9940870  )
        41           Si  tau(  41) = (   0.4874320   0.8043300   0.9786930  )
        42           Si  tau(  42) = (   0.6089960   0.6056780   0.7729270  )
        43           Si  tau(  43) = (   0.5862410   0.1756280   0.9873020  )
        44           Si  tau(  44) = (   0.3787010   0.6970140   0.8260920  )
        45           Si  tau(  45) = (   0.5531770   0.7002950   0.2337830  )
        46           Si  tau(  46) = (   0.5272490   0.4739770   0.3932550  )
        47           Si  tau(  47) = (   0.9583070   0.9461950   0.2163150  )
        48           Si  tau(  48) = (   0.5559110   0.9184590   0.2016040  )
        49           Si  tau(  49) = (   0.0148941   0.1843640   0.2814930  )
        50           Si  tau(  50) = (   0.2730210   0.1256710   0.6735550  )
        51           Si  tau(  51) = (   0.9746440   0.1940590   0.9269070  )
        52           Si  tau(  52) = (   0.2264240   0.1101140   0.9549600  )
        53           Si  tau(  53) = (   0.4469630   0.0041693   0.8985400  )
        54           Si  tau(  54) = (   0.2087630   0.7477530   0.3146400  )
        55           Si  tau(  55) = (   0.8210320   0.2241810   0.1150230  )
        56           Si  tau(  56) = (   0.7303930   0.6001400   0.4168380  )
        57           Si  tau(  57) = (   0.7527620   0.6041870   0.1415700  )
        58           Si  tau(  58) = (   0.6848310   0.4111150   0.1116170  )
        59           Si  tau(  59) = (   0.4201460   0.3018570   0.7372880  )
        60           Si  tau(  60) = (   0.7101500   0.7250780   0.9561490  )
        61           Si  tau(  61) = (   0.8317480   0.8933660   0.9258280  )
        62           Si  tau(  62) = (   0.1115740   0.2857360   0.7548280  )
        63           Si  tau(  63) = (   0.1071300   0.7243960   0.5576870  )
        64           Si  tau(  64) = (   0.7862480   0.2318140   0.3884510  )

     number of k points=     1  Fermi-Dirac smearing, width (Ry)=  0.0100
                       cart. coord. in units 2pi/alat
        k(    1) = (   0.0000000   0.0000000   0.0000000), wk =   2.0000000

     Dense  grid:    89535 G-vectors     FFT dimensions: (  72,  72,  72)

     Estimated max dynamical RAM per process >     143.92 MB

     Estimated total dynamical RAM >     553.83 MB

     Initial potential from superposition of free atoms

     starting charge     255.9608, renormalised to     256.0000
     Starting wfcs are  256 randomized atomic wfcs

     total cpu time spent up to now is        4.3 secs

     Self-consistent Calculation

     iteration #  1     ecut=    30.00 Ry     beta= 0.50
     Davidson diagonalization with overlap
     ethr =  1.00E-02,  avg # of iterations =  3.0

     Threshold (ethr) on eigenvalues was too large:
     Diagonalizing with lowered threshold

     Davidson diagonalization with overlap
     ethr =  4.11E-04,  avg # of iterations =  4.0

     total cpu time spent up to now is        4.5 secs

     total energy              =    -501.26736247 Ry
     estimated scf accuracy    <       1.24722047 Ry

     iteration #  2     ecut=    30.00 Ry     beta= 0.50
     Davidson diagonalization with overlap
     ethr =  4.87E-04,  avg # of iterations =  4.0

     total cpu time spent up to now is        4.6 secs

     total energy              =    -500.53880032 Ry
     estimated scf accuracy    <       9.96634607 Ry

     iteration #  3     ecut=    30.00 Ry     beta= 0.50
     Davidson diagonalization with overlap
     ethr =  4.87E-04,  avg # of iterations =  4.0

     total cpu time spent up to now is        4.7 secs

     total energy              =    -501.44484620 Ry
     estimated scf accuracy    <       1.15874771 Ry

     iteration #  4     ecut=    30.00 Ry     beta= 0.50
     Davidson diagonalization with overlap
     ethr =  4.53E-04,  avg # of iterations =  2.0

     total cpu time spent up to now is        4.8 secs

     total energy              =    -501.47987631 Ry
     estimated scf accuracy    <       0.76419781 Ry

     iteration #  5     ecut=    30.00 Ry     beta= 0.50
     Davidson diagonalization with overlap
     ethr =  2.99E-04,  avg # of iterations =  2.0

     total cpu time spent up to now is        4.9 secs

     total energy              =    -501.52815508 Ry
     estimated scf accuracy    <       0.45307117 Ry

     iteration #  6     ecut=    30.00 Ry     beta= 0.50
     Davidson diagonalization with overlap
     ethr =  1.77E-04,  avg # of iterations =  1.0

     total cpu time spent up to now is        5.0 secs

     total energy              =    -501.56983855 Ry
     estimated scf accuracy    <       0.04757085 Ry

     iteration #  7     ecut=    30.00 Ry     beta= 0.50
     Davidson diagonalization with overlap
     ethr =  1.86E-05,  avg # of iterations =  8.0

     total cpu time spent up to now is        5.1 secs

     total energy              =    -501.57445992 Ry
     estimated scf accuracy    <       0.04334501 Ry

     iteration #  8     ecut=    30.00 Ry     beta= 0.50
     Davidson diagonalization with overlap
     ethr =  1.69E-05,  avg # of iterations =  2.0

     total cpu time spent up to now is        5.2 secs

     total energy              =    -501.57893676 Ry
     estimated scf accuracy    <       0.00709011 Ry

     iteration #  9     ecut=    30.00 Ry     beta= 0.50
     Davidson diagonalization with overlap
     ethr =  2.77E-06,  avg # of iterations =  9.0

     total cpu time spent up to now is        5.3 secs

     total energy              =    -501.57973180 Ry
     estimated scf accuracy    <       0.00135428 Ry

     iteration # 10     ecut=    30.00 Ry     beta= 0.50
     Davidson diagonalization with overlap
     ethr =  5.29E-07,  avg # of iterations =  3.0

     total cpu time spent up to now is        5.4 secs

     total energy              =    -501.57980959 Ry
     estimated scf accuracy    <       0.00153725 Ry

     iteration # 11     ecut=    30.00 Ry     beta= 0.50
     Davidson diagonalization with overlap
     ethr =  5.29E-07,  avg # of iterations =  2.0

     total cpu time spent up to now is        5.5 secs

     total energy              =    -501.57990740 Ry
     estimated scf accuracy    <       0.00034119 Ry

     iteration # 12     ecut=    30.00 Ry     beta= 0.50
     Davidson diagonalization with overlap
     ethr =  1.33E-07,  avg # of iterations =  3.0

     total cpu time spent up to now is        5.6 secs

     total energy              =    -501.57995549 Ry
     estimated scf accuracy    <       0.00022616 Ry

     iteration # 13     ecut=    30.00 Ry     beta= 0.50
     Davidson diagonalization with overlap
     ethr =  8.83E-08,  avg # of iterations =  2.0

     total cpu time spent up to now is        5.7 secs

     total energy              =    -501.57996537 Ry
     estimated scf accuracy    <       0.00012739 Ry

     iteration # 14     ecut=    30.00 Ry     beta= 0.50
     Davidson diagonalization with overlap
     ethr =  4.98E-08,  avg # of iterations =  1.0

     total cpu time spent up to now is        5.7 secs

     total energy              =    -501.57997539 Ry
     estimated scf accuracy    <       0.00000835 Ry

     iteration # 15     ecut=    30.00 Ry     beta= 0.50
     Davidson diagonalization with overlap
     ethr =  3.26E-09,  avg # of iterations =  5.0

     total cpu time spent up to now is        5.8 secs

     total energy              =    -501.57997452 Ry
     estimated scf accuracy    <       0.00005738 Ry

     iteration # 16     ecut=    30.00 Ry     beta= 0.50
     Davidson diagonalization with overlap
     ethr =  3.26E-09,  avg # of iterations =  3.0

     total cpu time spent up to now is        5.9 secs

     total energy              =    -501.57997851 Ry
     estimated scf accuracy    <       0.00000188 Ry

     iteration # 17     ecut=    30.00 Ry     beta= 0.50
     Davidson diagonalization with overlap
     ethr =  7.34E-10,  avg # of iterations =  4.0

     total cpu time spent up to now is        6.0 secs

     total energy              =    -501.57997858 Ry
     estimated scf accuracy    <       0.00000364 Ry

     iteration # 18     ecut=    30.00 Ry     beta= 0.50
     Davidson diagonalization with overlap
     ethr =  7.34E-10,  avg # of iterations =  2.0

     total cpu time spent up to now is        6.1 secs

     End of self-consistent calculation

          k = 0.0000 0.0000 0.0000 ( 11168 PWs)   bands (ev):

    -5.2941  -4.3073  -4.2202  -4.1479  -4.1101  -3.9210  -3.8639  -3.3273
    -3.2229  -3.1075  -3.0318  -2.9747  -2.9202  -2.8690  -2.7381  -2.7178
    -2.6627  -2.5453  -2.2896  -2.0213  -1.9728  -1.7675  -1.6584  -1.6364
    -1.4252  -1.3367  -1.2999  -0.9045  -0.8027  -0.6361  -0.3961  -0.2968
    -0.1756  -0.0603   0.0362   0.1002   0.2909   0.3711   0.4022   0.4545
     0.4984   0.6030   0.6667   0.7295   0.8271   0.8859   0.9120   1.0007
     1.0982   1.1231   1.2843   1.3214   1.4812   1.5353   1.5912   1.7137
     1.7611   1.9280   2.0776   2.1454   2.2351   2.3335   2.4202   2.4592
     2.5538   2.6199   2.7020   2.7769   2.8573   2.9693   3.0603   3.0685
     3.1735   3.2601   3.3407   3.4564   3.4921   3.5707   3.7369   3.7500
     3.8784   4.1789   4.3175   4.3791   4.6084   4.6367   4.7004   4.8364
     4.8791   4.9629   5.0096   5.0831   5.1504   5.1791   5.2898   5.3311
     5.3595   5.5062   5.5498   5.6096   5.6615   5.7038   5.8035   5.8383
     5.8803   5.9514   5.9741   6.0530   6.1062   6.1535   6.2274   6.2903
     6.3258   6.3520   6.4016   6.4904   6.5051   6.5882   6.6161   6.6332
     6.7106   6.8098   6.8272   6.8524   6.9040   7.0400   7.0508   7.0991
     7.2309   7.2419   7.4152   7.4819   7.5757   7.6038   7.6791   7.7229
     7.7674   7.7849   7.8598   7.9334   7.9615   8.0073   8.2029   8.2192
     8.2622   8.2876   8.3708   8.4170   8.4806   8.5261   8.6247   8.6989
     8.7488   8.8031

     the Fermi energy is     7.1875 ev

!    total energy              =    -501.57997864 Ry
     estimated scf accuracy    <       0.00000029 Ry
     smearing contrib. (-TS)   =      -0.12792583 Ry
     internal energy E=F+TS    =    -501.45205280 Ry

     The total energy is F=E-TS. E is the sum of the following terms:
     one-electron contribution =     193.26844264 Ry
     hartree contribution      =      22.52673168 Ry
     xc contribution           =    -151.00192495 Ry
     ewald contribution        =    -566.24530218 Ry

     convergence has been achieved in  18 iterations

     Forces acting on atoms (cartesian axes, Ry/au):

     atom    1 type  1   force =     0.00997385    0.01164710    0.00839087
     atom    2 type  1   force =     0.01732834    0.01057040   -0.01115634
     atom    3 type  1   force =     0.00708778    0.01154125   -0.01076359
     atom    4 type  1   force =    -0.01920277    0.01136239    0.03763034
     atom    5 type  1   force =    -0.03937190    0.03270724   -0.02587946
     atom    6 type  1   force =    -0.00104693   -0.00320421    0.00477725
     atom    7 type  1   force =     0.02105117   -0.00601333    0.01311057
     atom    8 type  1   force =     0.01491691    0.00081707    0.01163188
     atom    9 type  1   force =     0.00836993    0.01790554    0.00525936
     atom   10 type  1   force =    -0.00205293    0.00839465   -0.05126790
     atom   11 type  1   force =     0.00732016   -0.02044539   -0.05744065
     atom   12 type  1   force =     0.00215195   -0.00917518    0.02703834
     atom   13 type  1   force =     0.00024699   -0.00589724    0.00168160
     atom   14 type  1   force =     0.01422031    0.03286545    0.02538673
     atom   15 type  1   force =    -0.02322695   -0.02211841    0.02508678
     atom   16 type  1   force =    -0.03719139   -0.02150173    0.00312152
     atom   17 type  1   force =    -0.03530201    0.01275119    0.00891911
     atom   18 type  1   force =     0.01780981    0.01207175   -0.01425184
     atom   19 type  1   force =     0.03901553   -0.02514947    0.07121193
     atom   20 type  1   force =    -0.01357081   -0.01408279   -0.02377723
     atom   21 type  1   force =     0.01288949   -0.00864480    0.00898519
     atom   22 type  1   force =    -0.02315134   -0.01884945    0.02239692
     atom   23 type  1   force =     0.02427388    0.00322537    0.04020493
     atom   24 type  1   force =    -0.00275090    0.01569153    0.04263898
     atom   25 type  1   force =     0.00704124   -0.02108299   -0.00140687
     atom   26 type  1   force =     0.00068194    0.03433182   -0.02730040
     atom   27 type  1   force =    -0.01334735   -0.00432433   -0.00369455
     atom   28 type  1   force =     0.03413038   -0.01755137   -0.00675404
     atom   29 type  1   force =     0.00057085   -0.00016500   -0.02443124
     atom   30 type  1   force =     0.00170886   -0.01370239   -0.02247395
     atom   31 type  1   force =    -0.02267358    0.02782245   -0.00915883
     atom   32 type  1   force =    -0.00209494    0.00719593   -0.01764537
     atom   33 type  1   force =    -0.02878781    0.02647470   -0.01264934
     atom   34 type  1   force =    -0.01592245   -0.00531732    0.01354043
     atom   35 type  1   force =    -0.01597870    0.03509330   -0.01135046
     atom   36 type  1   force =    -0.01831195    0.00418848    0.00449148
     atom   37 type  1   force =    -0.00330946   -0.03817187   -0.02132291
     atom   38 type  1   force =     0.00060719    0.01356899   -0.00297141
     atom   39 type  1   force =     0.00669039    0.00228967    0.03963143
     atom   40 type  1   force =    -0.00701723    0.01161457    0.00764187
     atom   41 type  1   force =     0.02319144    0.00528187    0.05439160
     atom   42 type  1   force =     0.00384810    0.00774709   -0.03369968
     atom   43 type  1   force =     0.01303146   -0.01577870   -0.04208607
     atom   44 type  1   force =    -0.01981987   -0.02240287   -0.00985091
     atom   45 type  1   force =     0.00575188   -0.01411388   -0.00002956
     atom   46 type  1   force =     0.02761744    0.00243909    0.01863114
     atom   47 type  1   force =     0.02844648    0.02265754   -0.02411073
     atom   48 type  1   force =     0.02517149    0.00411135    0.01282360
     atom   49 type  1   force =    -0.01635632   -0.01614709    0.00382222
     atom   50 type  1   force =     0.00621773   -0.01184903   -0.02743101
     atom   51 type  1   force =    -0.00206293    0.00061768   -0.01039564
     atom   52 type  1   force =     0.00051078   -0.01453050    0.00865011
     atom   53 type  1   force =    -0.04077393    0.01094590    0.01660103
     atom   54 type  1   force =     0.03496582    0.00785471   -0.00109702
     atom   55 type  1   force =     0.02250330    0.00406953    0.00368769
     atom   56 type  1   force =    -0.01739167   -0.06222860   -0.00660202
     atom   57 type  1   force =    -0.00219582    0.07331229    0.01128243
     atom   58 type  1   force =    -0.04319555   -0.08900545   -0.03724819
     atom   59 type  1   force =     0.00252942    0.01998535   -0.00300641
     atom   60 type  1   force =    -0.02996975   -0.04934476   -0.00792262
     atom   61 type  1   force =     0.05177245    0.06994075   -0.02135666
     atom   62 type  1   force =    -0.02784731   -0.01070448    0.01263513
     atom   63 type  1   force =     0.00887597   -0.04503065    0.00926901
     atom   64 type  1   force =     0.02140385    0.03343929    0.00596142

     Total force =     0.327940     Total SCF correction =     0.001023


     Computing stress (Cartesian axis) and pressure

          total   stress  (Ry/bohr**3)                   (kbar)     P=      -32.75
  -0.00023977   0.00010000   0.00004853          -35.27       14.71        7.14
   0.00010000  -0.00013380   0.00000446           14.71      -19.68        0.66
   0.00004853   0.00000446  -0.00029433            7.14        0.66      -43.30

 
     init_run     :      1.00s CPU      4.29s WALL (       1 calls)
     electrons    :      1.62s CPU      1.77s WALL (       1 calls)
     forces       :      0.03s CPU      0.03s WALL (       1 calls)
     stress       :      0.14s CPU      0.14s WALL (       1 calls)

     Called by init_run:
     wfcinit      :      0.50s CPU      3.64s WALL (       1 calls)
                                        3.64s GPU  (       1 calls)
     potinit      :      0.03s CPU      0.12s WALL (       1 calls)
     hinit0       :      0.45s CPU      0.47s WALL (       1 calls)

     Called by electrons:
     c_bands      :      1.04s CPU      1.12s WALL (      19 calls)
     sum_band     :      0.30s CPU      0.34s WALL (      19 calls)
     v_of_rho     :      0.12s CPU      0.22s WALL (      19 calls)
     mix_rho      :      0.13s CPU      0.15s WALL (      19 calls)

     Called by c_bands:
     init_us_2    :      0.05s CPU      0.05s WALL (      39 calls)
     init_us_2:gp :      0.05s CPU      0.05s WALL (      39 calls)
     regterg      :      0.90s CPU      0.97s WALL (      19 calls)

     Called by *egterg:
     rdiaghg      :      0.36s CPU      1.01s WALL (      82 calls)
                                        1.00s GPU  (      82 calls)
     h_psi        :      0.88s CPU      3.41s WALL (      84 calls)
                                        3.41s GPU  (      84 calls)
     g_psi        :      0.00s CPU      0.00s WALL (      64 calls)
                                        0.00s GPU  (      64 calls)

     Called by h_psi:
     h_psi:calbec :      0.49s CPU      2.95s WALL (      84 calls)
                                        2.95s GPU  (      84 calls)
     vloc_psi     :      0.35s CPU      0.41s WALL (      84 calls)
                                        0.41s GPU  (      84 calls)
     add_vuspsi   :      0.03s CPU      0.04s WALL (      84 calls)
                                        0.04s GPU  (      84 calls)

     General routines
     calbec       :      0.49s CPU      2.96s WALL (      89 calls)
     fft          :      0.54s CPU      0.66s WALL (     159 calls)
                                        0.12s GPU  (     101 calls)
     ffts         :      0.03s CPU      0.03s WALL (      19 calls)
     fftw         :      0.43s CPU      0.55s WALL (    2007 calls)
                                        0.49s GPU  (    2007 calls)
 
     Parallel routines
 
     PWSCF        :      2.82s CPU      6.31s WALL

 
   This run was terminated on:  10:47:58  10May2023            

=------------------------------------------------------------------------------=
   JOB DONE.
=------------------------------------------------------------------------------=
