An instance of this daemon is already running
An instance of this daemon is already running

     Program PWSCF v.7.1 starts on 10May2023 at 10:54:16 

     This program is part of the open-source Quantum ESPRESSO suite
     for quantum simulation of materials; please cite
         "P. Giannozzi et al., J. Phys.:Condens. Matter 21 395502 (2009);
         "P. Giannozzi et al., J. Phys.:Condens. Matter 29 465901 (2017);
         "P. Giannozzi et al., J. Chem. Phys. 152 154105 (2020);
          URL http://www.quantum-espresso.org", 
     in publications or presentations arising from this work. More details at
     http://www.quantum-espresso.org/quote

     Parallel version (MPI & OpenMP), running on       4 processor cores
     Number of MPI processes:                 4
     Threads/MPI process:                     1

     MPI processes distributed on     1 nodes
     153145 MiB available memory on the printing compute node when the environment starts
 
     Reading input from pw-si-92.in
Warning: card &CELL ignored
Warning: card / ignored

     Current dimensions of program PWSCF are:
     Max number of different atomic species (ntypx) = 10
     Max number of k-points (npk) =  40000
     Max angular momentum in pseudopotentials (lmaxx) =  4

     IMPORTANT: XC functional enforced from input :
     Exchange-correlation= PBE
                           (   1   4   3   4   0   0   0)
     Any further DFT definition will be discarded
     Please, verify this is what you really want


     gamma-point specific algorithms are used
 
     K-points division:     npool     =       2
     R & G space division:  proc/nbgrp/npool/nimage =       2
     Subspace diagonalization in iterative solution of the eigenvalue problem:
     a serial algorithm will be used

     Message from routine divide_et_impera:
     suboptimal parallelization: some nodes have no k-points
 
     Parallelization info
     --------------------
     sticks:   dense  smooth     PW     G-vecs:    dense   smooth      PW
     Min        1971    1971    520                93153    93153   12668
     Max        1974    1974    521                93158    93158   12673
     Sum        3945    3945   1041               186311   186311   25341
 
     Using Slab Decomposition
 


     bravais-lattice index     =            0
     lattice parameter (alat)  =      20.3183  a.u.
     unit-cell volume          =    8388.1053 (a.u.)^3
     number of atoms/cell      =           64
     number of atomic types    =            1
     number of electrons       =       256.00
     number of Kohn-Sham states=          154
     kinetic-energy cutoff     =      30.0000  Ry
     charge density cutoff     =     120.0000  Ry
     scf convergence threshold =      1.0E-06
     mixing beta               =       0.5000
     number of iterations used =            8  plain     mixing
     Exchange-correlation= PBE
                           (   1   4   3   4   0   0   0)

     GPU acceleration is ACTIVE.
     GPU-aware MPI enabled

     Message from routine print_cuda_info:
     High GPU oversubscription detected. Are you sure this is what you want?

     celldm(1)=  20.318328  celldm(2)=   0.000000  celldm(3)=   0.000000
     celldm(4)=   0.000000  celldm(5)=   0.000000  celldm(6)=   0.000000

     crystal axes: (cart. coord. in units of alat)
               a(1) = (   1.000000   0.000000   0.000000 )  
               a(2) = (   0.000000   1.000000   0.000000 )  
               a(3) = (   0.000000   0.000000   1.000000 )  

     reciprocal axes: (cart. coord. in units 2 pi/alat)
               b(1) = (  1.000000  0.000000  0.000000 )  
               b(2) = (  0.000000  1.000000  0.000000 )  
               b(3) = (  0.000000  0.000000  1.000000 )  


     PseudoPot. # 1 for Si read from file:
     /home/ppiaggi/pseudos/Si_ONCV_PBE_sr.upf
     MD5 check sum: 8553c464762ac42b85b1eed164b4d029
     Pseudo is Norm-conserving, Zval =  4.0
     Generated using ONCVPSP code by D. R. Hamann
     Using radial grid of 1510 points,  4 beta functions with: 
                l(1) =   0
                l(2) =   0
                l(3) =   1
                l(4) =   1

     atomic species   valence    mass     pseudopotential
        Si             4.00    28.08500     Si( 1.00)

     No symmetry found



   Cartesian axes

     site n.     atom                  positions (alat units)
         1           Si  tau(   1) = (   0.9637710   0.8409520   0.5615020  )
         2           Si  tau(   2) = (   0.2615410   0.1110270   0.8647830  )
         3           Si  tau(   3) = (   0.2937110   0.9393090   0.7049880  )
         4           Si  tau(   4) = (   0.8488160   0.6383820   0.5962240  )
         5           Si  tau(   5) = (   0.7883600   0.2777810   0.3660420  )
         6           Si  tau(   6) = (   0.6562970   0.0807295   0.3308880  )
         7           Si  tau(   7) = (   0.3283950   0.4433180   0.1745550  )
         8           Si  tau(   8) = (   0.9291660   0.6100160   0.2822320  )
         9           Si  tau(   9) = (   0.0878237   0.2916350   0.1487460  )
        10           Si  tau(  10) = (   0.2846140   0.0324517   0.4851780  )
        11           Si  tau(  11) = (   0.0489263   0.4637680   0.8934280  )
        12           Si  tau(  12) = (   0.8338840   0.0398449   0.5056220  )
        13           Si  tau(  13) = (   0.7601620   0.9728160   0.1151850  )
        14           Si  tau(  14) = (   0.3320880   0.7273570   0.9164240  )
        15           Si  tau(  15) = (   0.0443774   0.9094790   0.0564838  )
        16           Si  tau(  16) = (   0.2527290   0.9161620   0.0563866  )
        17           Si  tau(  17) = (   0.0385663   0.9713550   0.3137040  )
        18           Si  tau(  18) = (   0.5457790   0.7670930   0.5382060  )
        19           Si  tau(  19) = (   0.7666050   0.2314100   0.0384642  )
        20           Si  tau(  20) = (   0.7327460   0.4787860   0.2960770  )
        21           Si  tau(  21) = (   0.0149711   0.6656930   0.8419310  )
        22           Si  tau(  22) = (   0.9852600   0.4785070   0.6476320  )
        23           Si  tau(  23) = (   0.9151790   0.7196170   0.0400500  )
        24           Si  tau(  24) = (   0.3280810   0.6981650   0.5289790  )
        25           Si  tau(  25) = (   0.4977500   0.5295190   0.9822120  )
        26           Si  tau(  26) = (   0.6672910   0.5836670   0.4906020  )
        27           Si  tau(  27) = (   0.2402330   0.6712070   0.1350270  )
        28           Si  tau(  28) = (   0.0679410   0.2044340   0.8696180  )
        29           Si  tau(  29) = (   0.8485960   0.8381840   0.3022170  )
        30           Si  tau(  30) = (   0.4850810   0.3042490   0.9566490  )
        31           Si  tau(  31) = (   0.2336900   0.3969890   0.5009570  )
        32           Si  tau(  32) = (   0.5338460   0.1462820   0.1337070  )
        33           Si  tau(  33) = (   0.5141030   0.4215610   0.6100370  )
        34           Si  tau(  34) = (   0.5165980   0.8662880   0.7729240  )
        35           Si  tau(  35) = (   0.7016150   0.3661730   0.7416520  )
        36           Si  tau(  36) = (   0.1188920   0.1821370   0.5105080  )
        37           Si  tau(  37) = (   0.2518530   0.4100040   0.7178650  )
        38           Si  tau(  38) = (   0.2967650   0.0460613   0.2482980  )
        39           Si  tau(  39) = (   0.8168410   0.4486010   0.9594100  )
        40           Si  tau(  40) = (   0.9840230   0.1732450   0.6652790  )
        41           Si  tau(  41) = (   0.1359900   0.8269170   0.8060750  )
        42           Si  tau(  42) = (   0.6018890   0.8549930   0.3290530  )
        43           Si  tau(  43) = (   0.4158210   0.4752180   0.3859920  )
        44           Si  tau(  44) = (   0.4177720   0.2389640   0.3415720  )
        45           Si  tau(  45) = (   0.2835500   0.2115460   0.0839119  )
        46           Si  tau(  46) = (   0.1536500   0.8399870   0.4623010  )
        47           Si  tau(  47) = (   0.9702790   0.1193840   0.0567137  )
        48           Si  tau(  48) = (   0.7157640   0.5755800   0.0970961  )
        49           Si  tau(  49) = (   0.0517814   0.5150230   0.1347610  )
        50           Si  tau(  50) = (   0.6561830   0.1456530   0.8378300  )
        51           Si  tau(  51) = (   0.3676460   0.8099210   0.2756530  )
        52           Si  tau(  52) = (   0.5519300   0.9429210   0.9949930  )
        53           Si  tau(  53) = (   0.9411680   0.9590060   0.7529620  )
        54           Si  tau(  54) = (   0.6309870   0.9919630   0.6157640  )
        55           Si  tau(  55) = (   0.4284710   0.2502200   0.7726950  )
        56           Si  tau(  56) = (   0.9981790   0.1943930   0.3307200  )
        57           Si  tau(  57) = (   0.7802830   0.8632750   0.8810900  )
        58           Si  tau(  58) = (   0.5421830   0.6161430   0.7719130  )
        59           Si  tau(  59) = (   0.5432800   0.7577810   0.1064410  )
        60           Si  tau(  60) = (   0.2620510   0.6331550   0.7195180  )
        61           Si  tau(  61) = (   0.7557190   0.6457920   0.7934510  )
        62           Si  tau(  62) = (   0.4976660   0.1754120   0.5229150  )
        63           Si  tau(  63) = (   0.0896492   0.5975280   0.4608810  )
        64           Si  tau(  64) = (   0.8233710   0.3238860   0.5829200  )

     number of k points=     1  Fermi-Dirac smearing, width (Ry)=  0.0100
                       cart. coord. in units 2pi/alat
        k(    1) = (   0.0000000   0.0000000   0.0000000), wk =   2.0000000

     Dense  grid:    93156 G-vectors     FFT dimensions: (  72,  72,  72)

     Estimated max dynamical RAM per process >     149.04 MB

     Estimated total dynamical RAM >     573.40 MB

     Initial potential from superposition of free atoms

     starting charge     255.9608, renormalised to     256.0000
     Starting wfcs are  256 randomized atomic wfcs

     total cpu time spent up to now is        4.4 secs

     Self-consistent Calculation

     iteration #  1     ecut=    30.00 Ry     beta= 0.50
     Davidson diagonalization with overlap
     ethr =  1.00E-02,  avg # of iterations =  3.0

     Threshold (ethr) on eigenvalues was too large:
     Diagonalizing with lowered threshold

     Davidson diagonalization with overlap
     ethr =  4.42E-04,  avg # of iterations =  4.0

     total cpu time spent up to now is        4.5 secs

     total energy              =    -501.12178085 Ry
     estimated scf accuracy    <       1.36641739 Ry

     iteration #  2     ecut=    30.00 Ry     beta= 0.50
     Davidson diagonalization with overlap
     ethr =  5.34E-04,  avg # of iterations =  4.0

     total cpu time spent up to now is        4.7 secs

     total energy              =    -500.41840081 Ry
     estimated scf accuracy    <       9.48935611 Ry

     iteration #  3     ecut=    30.00 Ry     beta= 0.50
     Davidson diagonalization with overlap
     ethr =  5.34E-04,  avg # of iterations =  5.0

     total cpu time spent up to now is        4.8 secs

     total energy              =    -501.23760482 Ry
     estimated scf accuracy    <       1.84113349 Ry

     iteration #  4     ecut=    30.00 Ry     beta= 0.50
     Davidson diagonalization with overlap
     ethr =  5.34E-04,  avg # of iterations =  2.0

     total cpu time spent up to now is        4.8 secs

     total energy              =    -501.33245821 Ry
     estimated scf accuracy    <       0.98399809 Ry

     iteration #  5     ecut=    30.00 Ry     beta= 0.50
     Davidson diagonalization with overlap
     ethr =  3.84E-04,  avg # of iterations =  2.0

     total cpu time spent up to now is        4.9 secs

     total energy              =    -501.38828064 Ry
     estimated scf accuracy    <       0.64330374 Ry

     iteration #  6     ecut=    30.00 Ry     beta= 0.50
     Davidson diagonalization with overlap
     ethr =  2.51E-04,  avg # of iterations =  2.0

     total cpu time spent up to now is        5.0 secs

     total energy              =    -501.44442843 Ry
     estimated scf accuracy    <       0.04572262 Ry

     iteration #  7     ecut=    30.00 Ry     beta= 0.50
     Davidson diagonalization with overlap
     ethr =  1.79E-05,  avg # of iterations = 18.0

     total cpu time spent up to now is        5.2 secs

     total energy              =    -501.44973736 Ry
     estimated scf accuracy    <       0.06831408 Ry

     iteration #  8     ecut=    30.00 Ry     beta= 0.50
     Davidson diagonalization with overlap
     ethr =  1.79E-05,  avg # of iterations =  2.0

     total cpu time spent up to now is        5.3 secs

     total energy              =    -501.45607492 Ry
     estimated scf accuracy    <       0.01052328 Ry

     iteration #  9     ecut=    30.00 Ry     beta= 0.50
     Davidson diagonalization with overlap
     ethr =  4.11E-06,  avg # of iterations =  8.0

     total cpu time spent up to now is        5.4 secs

     total energy              =    -501.45686104 Ry
     estimated scf accuracy    <       0.00275749 Ry

     iteration # 10     ecut=    30.00 Ry     beta= 0.50
     Davidson diagonalization with overlap
     ethr =  1.08E-06,  avg # of iterations = 14.0

     total cpu time spent up to now is        5.5 secs

     total energy              =    -501.45697896 Ry
     estimated scf accuracy    <       0.00453034 Ry

     iteration # 11     ecut=    30.00 Ry     beta= 0.50
     Davidson diagonalization with overlap
     ethr =  1.08E-06,  avg # of iterations =  2.0

     total cpu time spent up to now is        5.6 secs

     total energy              =    -501.45732401 Ry
     estimated scf accuracy    <       0.00027833 Ry

     iteration # 12     ecut=    30.00 Ry     beta= 0.50
     Davidson diagonalization with overlap
     ethr =  1.09E-07,  avg # of iterations =  4.0

     total cpu time spent up to now is        5.7 secs

     total energy              =    -501.45736071 Ry
     estimated scf accuracy    <       0.00023787 Ry

     iteration # 13     ecut=    30.00 Ry     beta= 0.50
     Davidson diagonalization with overlap
     ethr =  9.29E-08,  avg # of iterations =  3.0

     total cpu time spent up to now is        5.8 secs

     total energy              =    -501.45737631 Ry
     estimated scf accuracy    <       0.00025714 Ry

     iteration # 14     ecut=    30.00 Ry     beta= 0.50
     Davidson diagonalization with overlap
     ethr =  9.29E-08,  avg # of iterations =  1.0

     total cpu time spent up to now is        5.9 secs

     total energy              =    -501.45738998 Ry
     estimated scf accuracy    <       0.00002816 Ry

     iteration # 15     ecut=    30.00 Ry     beta= 0.50
     Davidson diagonalization with overlap
     ethr =  1.10E-08,  avg # of iterations =  4.0

     total cpu time spent up to now is        6.0 secs

     total energy              =    -501.45739317 Ry
     estimated scf accuracy    <       0.00004755 Ry

     iteration # 16     ecut=    30.00 Ry     beta= 0.50
     Davidson diagonalization with overlap
     ethr =  1.10E-08,  avg # of iterations =  2.0

     total cpu time spent up to now is        6.1 secs

     total energy              =    -501.45739596 Ry
     estimated scf accuracy    <       0.00000698 Ry

     iteration # 17     ecut=    30.00 Ry     beta= 0.50
     Davidson diagonalization with overlap
     ethr =  2.73E-09,  avg # of iterations =  3.0

     total cpu time spent up to now is        6.2 secs

     total energy              =    -501.45739668 Ry
     estimated scf accuracy    <       0.00000697 Ry

     iteration # 18     ecut=    30.00 Ry     beta= 0.50
     Davidson diagonalization with overlap
     ethr =  2.72E-09,  avg # of iterations =  2.0

     total cpu time spent up to now is        6.3 secs

     total energy              =    -501.45739713 Ry
     estimated scf accuracy    <       0.00000163 Ry

     iteration # 19     ecut=    30.00 Ry     beta= 0.50
     Davidson diagonalization with overlap
     ethr =  6.35E-10,  avg # of iterations =  2.0

     total cpu time spent up to now is        6.3 secs

     total energy              =    -501.45739721 Ry
     estimated scf accuracy    <       0.00000114 Ry

     iteration # 20     ecut=    30.00 Ry     beta= 0.50
     Davidson diagonalization with overlap
     ethr =  4.43E-10,  avg # of iterations =  1.0

     total cpu time spent up to now is        6.4 secs

     End of self-consistent calculation

          k = 0.0000 0.0000 0.0000 ( 11564 PWs)   bands (ev):

    -5.5466  -4.6732  -4.4879  -4.4732  -4.4065  -4.2406  -4.0338  -3.5736
    -3.5453  -3.5068  -3.4255  -3.3383  -3.2564  -3.1805  -3.0900  -3.0185
    -2.9071  -2.7610  -2.7215  -2.4183  -2.3207  -2.1908  -2.1072  -1.9798
    -1.9228  -1.8151  -1.6974  -1.3355  -1.1415  -1.1046  -0.8186  -0.6719
    -0.5354  -0.5300  -0.4367  -0.3804  -0.1685  -0.0822  -0.0149   0.0571
     0.1069   0.1830   0.2424   0.3139   0.4031   0.5002   0.6051   0.6191
     0.7117   0.8248   0.8352   0.9358   1.0101   1.0861   1.1817   1.3887
     1.5545   1.7305   1.7818   1.8328   1.9097   2.0056   2.0989   2.1807
     2.2628   2.3546   2.4456   2.4832   2.5597   2.6531   2.7055   2.7581
     2.8444   2.9373   3.0608   3.0766   3.1317   3.1937   3.2664   3.3856
     3.4817   3.7210   3.8267   3.9630   3.9930   4.0903   4.2269   4.3417
     4.4456   4.4543   4.5334   4.5536   4.5967   4.7678   4.8181   4.8527
     4.9055   4.9419   5.0703   5.1676   5.1770   5.2465   5.2818   5.3458
     5.4068   5.4512   5.4829   5.5548   5.6092   5.6719   5.7361   5.8525
     5.9092   5.9510   5.9709   6.0163   6.0850   6.1721   6.2505   6.3248
     6.3896   6.4202   6.4993   6.5155   6.5811   6.6475   6.6928   6.7646
     6.8222   6.8782   6.9388   6.9816   7.0938   7.1063   7.1682   7.2212
     7.3220   7.3772   7.4128   7.4550   7.5945   7.6497   7.6727   7.7227
     7.7419   7.9131   7.9879   8.0138   8.0896   8.2004   8.2700   8.3125
     8.3492   8.4470

     the Fermi energy is     6.7933 ev

!    total energy              =    -501.45739722 Ry
     estimated scf accuracy    <       0.00000016 Ry
     smearing contrib. (-TS)   =      -0.15266478 Ry
     internal energy E=F+TS    =    -501.30473244 Ry

     The total energy is F=E-TS. E is the sum of the following terms:
     one-electron contribution =     175.80532223 Ry
     hartree contribution      =      27.16360958 Ry
     xc contribution           =    -150.40133932 Ry
     ewald contribution        =    -553.87232493 Ry

     convergence has been achieved in  20 iterations

     Forces acting on atoms (cartesian axes, Ry/au):

     atom    1 type  1   force =    -0.05145167   -0.00979455    0.02102081
     atom    2 type  1   force =     0.03134560   -0.00325597    0.01774853
     atom    3 type  1   force =     0.03741065    0.01534575   -0.00580029
     atom    4 type  1   force =     0.00948498    0.04315406    0.00641961
     atom    5 type  1   force =     0.01147754   -0.03960101   -0.00468667
     atom    6 type  1   force =    -0.01459321    0.01921345   -0.00335180
     atom    7 type  1   force =     0.00725112    0.01743391    0.00721744
     atom    8 type  1   force =    -0.02565203    0.02336210    0.02576088
     atom    9 type  1   force =     0.00284054    0.01362118    0.02425954
     atom   10 type  1   force =     0.01122508    0.01873515    0.02743127
     atom   11 type  1   force =    -0.00984648   -0.07170159    0.00987771
     atom   12 type  1   force =    -0.01023726   -0.03211129   -0.00085495
     atom   13 type  1   force =     0.00329382    0.00086050   -0.00845315
     atom   14 type  1   force =    -0.00091341    0.02118235    0.02535548
     atom   15 type  1   force =    -0.04177404   -0.00950743    0.03307708
     atom   16 type  1   force =     0.06043952   -0.01900184   -0.03433280
     atom   17 type  1   force =     0.01143232   -0.00951219   -0.03378836
     atom   18 type  1   force =    -0.00408704    0.00291839   -0.02258925
     atom   19 type  1   force =    -0.01338980   -0.03209794   -0.02200634
     atom   20 type  1   force =     0.00353664    0.04354625    0.00622825
     atom   21 type  1   force =    -0.05363190   -0.01854693    0.00518694
     atom   22 type  1   force =     0.02148356   -0.01048045   -0.01133585
     atom   23 type  1   force =    -0.02596150    0.02542118    0.00287445
     atom   24 type  1   force =     0.01762537    0.01363667   -0.04489570
     atom   25 type  1   force =     0.01125319   -0.00730430    0.01532294
     atom   26 type  1   force =    -0.02389351   -0.02158092   -0.01508124
     atom   27 type  1   force =     0.00126806   -0.02000511   -0.02383133
     atom   28 type  1   force =    -0.01221361    0.03859791   -0.00943916
     atom   29 type  1   force =    -0.00384792   -0.00451953   -0.02307981
     atom   30 type  1   force =     0.01996384    0.03076939    0.09334726
     atom   31 type  1   force =    -0.02746231   -0.00218353   -0.01342795
     atom   32 type  1   force =     0.02206844   -0.01204022    0.01118705
     atom   33 type  1   force =     0.01699561    0.01276167    0.00343898
     atom   34 type  1   force =    -0.03439298   -0.00974860    0.02411567
     atom   35 type  1   force =    -0.05425582   -0.01110845    0.06886422
     atom   36 type  1   force =     0.06499174    0.03709310   -0.04696391
     atom   37 type  1   force =    -0.00699042   -0.00151674    0.01723376
     atom   38 type  1   force =    -0.00186535    0.00987073    0.00028236
     atom   39 type  1   force =     0.02339657   -0.01700487   -0.07561795
     atom   40 type  1   force =    -0.05649474   -0.01319170    0.05277029
     atom   41 type  1   force =     0.01607799    0.02569229    0.01524924
     atom   42 type  1   force =     0.01986545    0.00032006   -0.01338270
     atom   43 type  1   force =    -0.01395373   -0.02046946    0.00666889
     atom   44 type  1   force =     0.00144690    0.01368333   -0.04200484
     atom   45 type  1   force =     0.01394232    0.00120647   -0.01578771
     atom   46 type  1   force =     0.02207783   -0.01061844   -0.01051614
     atom   47 type  1   force =    -0.04632099   -0.00376294   -0.02919689
     atom   48 type  1   force =    -0.04296269    0.03548501    0.01139931
     atom   49 type  1   force =     0.03948232   -0.00875406   -0.03418888
     atom   50 type  1   force =     0.00216099    0.03341012    0.00456464
     atom   51 type  1   force =     0.01047990   -0.00163567   -0.01947509
     atom   52 type  1   force =     0.01921021    0.04645834   -0.03117008
     atom   53 type  1   force =     0.00341342    0.00778224   -0.01972725
     atom   54 type  1   force =    -0.00042335    0.02777021   -0.00260777
     atom   55 type  1   force =    -0.04546377   -0.02194257   -0.08488399
     atom   56 type  1   force =    -0.01012502   -0.00223501   -0.00504843
     atom   57 type  1   force =     0.01034921   -0.01541436    0.03124261
     atom   58 type  1   force =    -0.04715838   -0.00047127   -0.01897749
     atom   59 type  1   force =    -0.00101993   -0.02590398    0.05798730
     atom   60 type  1   force =    -0.00439401   -0.01939213    0.03327613
     atom   61 type  1   force =     0.04744566    0.01197288    0.02522544
     atom   62 type  1   force =     0.02554099   -0.04428551    0.05703808
     atom   63 type  1   force =    -0.00399617   -0.01543746    0.00727178
     atom   64 type  1   force =     0.06849566   -0.02516667   -0.02244016

     Total force =     0.383310     Total SCF correction =     0.000752


     Computing stress (Cartesian axis) and pressure

          total   stress  (Ry/bohr**3)                   (kbar)     P=      -36.33
  -0.00018785  -0.00001072   0.00002042          -27.63       -1.58        3.00
  -0.00001072  -0.00042152   0.00005342           -1.58      -62.01        7.86
   0.00002042   0.00005342  -0.00013154            3.00        7.86      -19.35

 
     init_run     :      0.95s CPU      4.30s WALL (       1 calls)
     electrons    :      1.90s CPU      2.06s WALL (       1 calls)
     forces       :      0.03s CPU      0.04s WALL (       1 calls)
     stress       :      0.14s CPU      0.15s WALL (       1 calls)

     Called by init_run:
     wfcinit      :      0.45s CPU      3.64s WALL (       1 calls)
                                        3.64s GPU  (       1 calls)
     potinit      :      0.03s CPU      0.12s WALL (       1 calls)
     hinit0       :      0.45s CPU      0.47s WALL (       1 calls)

     Called by electrons:
     c_bands      :      1.23s CPU      1.32s WALL (      21 calls)
     sum_band     :      0.34s CPU      0.38s WALL (      21 calls)
     v_of_rho     :      0.13s CPU      0.23s WALL (      21 calls)
     mix_rho      :      0.16s CPU      0.17s WALL (      21 calls)

     Called by c_bands:
     init_us_2    :      0.05s CPU      0.06s WALL (      43 calls)
     init_us_2:gp :      0.05s CPU      0.06s WALL (      43 calls)
     regterg      :      1.09s CPU      1.17s WALL (      21 calls)

     Called by *egterg:
     rdiaghg      :      0.48s CPU      1.18s WALL (     108 calls)
                                        1.16s GPU  (     108 calls)
     h_psi        :      0.88s CPU      3.44s WALL (     110 calls)
                                        3.44s GPU  (     110 calls)
     g_psi        :      0.00s CPU      0.00s WALL (      88 calls)
                                        0.00s GPU  (      88 calls)

     Called by h_psi:
     h_psi:calbec :      0.43s CPU      2.91s WALL (     110 calls)
                                        2.91s GPU  (     110 calls)
     vloc_psi     :      0.38s CPU      0.47s WALL (     110 calls)
                                        0.46s GPU  (     110 calls)
     add_vuspsi   :      0.04s CPU      0.06s WALL (     110 calls)
                                        0.05s GPU  (     110 calls)

     General routines
     calbec       :      0.44s CPU      2.91s WALL (     115 calls)
     fft          :      0.55s CPU      0.67s WALL (     175 calls)
                                        0.12s GPU  (     111 calls)
     ffts         :      0.03s CPU      0.04s WALL (      21 calls)
     fftw         :      0.47s CPU      0.63s WALL (    2241 calls)
                                        0.55s GPU  (    2241 calls)
 
     Parallel routines
 
     PWSCF        :      3.06s CPU      6.61s WALL

 
   This run was terminated on:  10:54:23  10May2023            

=------------------------------------------------------------------------------=
   JOB DONE.
=------------------------------------------------------------------------------=
