An instance of this daemon is already running
An instance of this daemon is already running

     Program PWSCF v.7.1 starts on 10May2023 at 10:54:25 

     This program is part of the open-source Quantum ESPRESSO suite
     for quantum simulation of materials; please cite
         "P. Giannozzi et al., J. Phys.:Condens. Matter 21 395502 (2009);
         "P. Giannozzi et al., J. Phys.:Condens. Matter 29 465901 (2017);
         "P. Giannozzi et al., J. Chem. Phys. 152 154105 (2020);
          URL http://www.quantum-espresso.org", 
     in publications or presentations arising from this work. More details at
     http://www.quantum-espresso.org/quote

     Parallel version (MPI & OpenMP), running on       4 processor cores
     Number of MPI processes:                 4
     Threads/MPI process:                     1

     MPI processes distributed on     1 nodes
     153128 MiB available memory on the printing compute node when the environment starts
 
     Reading input from pw-si-93.in
Warning: card &CELL ignored
Warning: card / ignored

     Current dimensions of program PWSCF are:
     Max number of different atomic species (ntypx) = 10
     Max number of k-points (npk) =  40000
     Max angular momentum in pseudopotentials (lmaxx) =  4

     IMPORTANT: XC functional enforced from input :
     Exchange-correlation= PBE
                           (   1   4   3   4   0   0   0)
     Any further DFT definition will be discarded
     Please, verify this is what you really want


     gamma-point specific algorithms are used
 
     K-points division:     npool     =       2
     R & G space division:  proc/nbgrp/npool/nimage =       2
     Subspace diagonalization in iterative solution of the eigenvalue problem:
     a serial algorithm will be used

     Message from routine divide_et_impera:
     suboptimal parallelization: some nodes have no k-points
 
     Parallelization info
     --------------------
     sticks:   dense  smooth     PW     G-vecs:    dense   smooth      PW
     Min        1953    1953    519                91863    91863   12442
     Max        1956    1956    522                91868    91868   12443
     Sum        3909    3909   1041               183731   183731   24885
 
     Using Slab Decomposition
 


     bravais-lattice index     =            0
     lattice parameter (alat)  =      20.2293  a.u.
     unit-cell volume          =    8278.3401 (a.u.)^3
     number of atoms/cell      =           64
     number of atomic types    =            1
     number of electrons       =       256.00
     number of Kohn-Sham states=          154
     kinetic-energy cutoff     =      30.0000  Ry
     charge density cutoff     =     120.0000  Ry
     scf convergence threshold =      1.0E-06
     mixing beta               =       0.5000
     number of iterations used =            8  plain     mixing
     Exchange-correlation= PBE
                           (   1   4   3   4   0   0   0)

     GPU acceleration is ACTIVE.
     GPU-aware MPI enabled

     Message from routine print_cuda_info:
     High GPU oversubscription detected. Are you sure this is what you want?

     celldm(1)=  20.229311  celldm(2)=   0.000000  celldm(3)=   0.000000
     celldm(4)=   0.000000  celldm(5)=   0.000000  celldm(6)=   0.000000

     crystal axes: (cart. coord. in units of alat)
               a(1) = (   1.000000   0.000000   0.000000 )  
               a(2) = (   0.000000   1.000000   0.000000 )  
               a(3) = (   0.000000   0.000000   1.000000 )  

     reciprocal axes: (cart. coord. in units 2 pi/alat)
               b(1) = (  1.000000  0.000000  0.000000 )  
               b(2) = (  0.000000  1.000000  0.000000 )  
               b(3) = (  0.000000  0.000000  1.000000 )  


     PseudoPot. # 1 for Si read from file:
     /home/ppiaggi/pseudos/Si_ONCV_PBE_sr.upf
     MD5 check sum: 8553c464762ac42b85b1eed164b4d029
     Pseudo is Norm-conserving, Zval =  4.0
     Generated using ONCVPSP code by D. R. Hamann
     Using radial grid of 1510 points,  4 beta functions with: 
                l(1) =   0
                l(2) =   0
                l(3) =   1
                l(4) =   1

     atomic species   valence    mass     pseudopotential
        Si             4.00    28.08500     Si( 1.00)

     No symmetry found



   Cartesian axes

     site n.     atom                  positions (alat units)
         1           Si  tau(   1) = (   0.6141870   0.9336010   0.2696550  )
         2           Si  tau(   2) = (   0.9644180   0.3378150   0.1985640  )
         3           Si  tau(   3) = (   0.9299890   0.7993250   0.0587173  )
         4           Si  tau(   4) = (   0.4333800   0.7843670   0.3393000  )
         5           Si  tau(   5) = (   0.4924860   0.5396530   0.2512480  )
         6           Si  tau(   6) = (   0.4387850   0.2388040   0.5626970  )
         7           Si  tau(   7) = (   0.2535530   0.9107960   0.0599529  )
         8           Si  tau(   8) = (   0.4496290   0.0296315   0.1133810  )
         9           Si  tau(   9) = (   0.0577369   0.5193520   0.2270030  )
        10           Si  tau(  10) = (   0.4963020   0.7833090   0.6170330  )
        11           Si  tau(  11) = (   0.2485750   0.6554860   0.4081700  )
        12           Si  tau(  12) = (   0.9304420   0.0292328   0.7873050  )
        13           Si  tau(  13) = (   0.9134620   0.7396300   0.5538020  )
        14           Si  tau(  14) = (   0.6216240   0.4735040   0.6235970  )
        15           Si  tau(  15) = (   0.3498720   0.9558950   0.5003640  )
        16           Si  tau(  16) = (   0.3296000   0.6106430   0.6304820  )
        17           Si  tau(  17) = (   0.2539130   0.8214270   0.7451160  )
        18           Si  tau(  18) = (   0.7424620   0.6719060   0.6921300  )
        19           Si  tau(  19) = (   0.7026900   0.0748639   0.0793353  )
        20           Si  tau(  20) = (   0.0854551   0.8720790   0.8848200  )
        21           Si  tau(  21) = (   0.0523843   0.7625070   0.2758480  )
        22           Si  tau(  22) = (   0.8137110   0.3733660   0.5026740  )
        23           Si  tau(  23) = (   0.0858794   0.0895381   0.6184690  )
        24           Si  tau(  24) = (   0.6985450   0.8736880   0.9513030  )
        25           Si  tau(  25) = (   0.5979930   0.6105390   0.4361030  )
        26           Si  tau(  26) = (   0.8166980   0.5717610   0.1156180  )
        27           Si  tau(  27) = (   0.2630810   0.2944700   0.4213280  )
        28           Si  tau(  28) = (   0.1777600   0.5691470   0.0168960  )
        29           Si  tau(  29) = (   0.4298250   0.4206840   0.7090040  )
        30           Si  tau(  30) = (   0.7675900   0.9345090   0.7068010  )
        31           Si  tau(  31) = (   0.8983320   0.1643350   0.9734400  )
        32           Si  tau(  32) = (   0.9247730   0.9864580   0.1917740  )
        33           Si  tau(  33) = (   0.8342140   0.8294980   0.3418870  )
        34           Si  tau(  34) = (   0.4810500   0.6229050   0.0127198  )
        35           Si  tau(  35) = (   0.5635070   0.3121840   0.2127810  )
        36           Si  tau(  36) = (   0.6289050   0.2546960   0.4239260  )
        37           Si  tau(  37) = (   0.8213050   0.5643150   0.3774590  )
        38           Si  tau(  38) = (   0.2626840   0.1900200   0.7477530  )
        39           Si  tau(  39) = (   0.1391200   0.3664680   0.8303250  )
        40           Si  tau(  40) = (   0.7420690   0.3569290   0.0661399  )
        41           Si  tau(  41) = (   0.1027390   0.6422230   0.8295960  )
        42           Si  tau(  42) = (   0.0835147   0.5832970   0.5956950  )
        43           Si  tau(  43) = (   0.8989570   0.3657310   0.8613510  )
        44           Si  tau(  44) = (   0.1406450   0.0464217   0.1683520  )
        45           Si  tau(  45) = (   0.9481990   0.2035320   0.3751870  )
        46           Si  tau(  46) = (   0.1406350   0.8540050   0.5395690  )
        47           Si  tau(  47) = (   0.5331560   0.7672340   0.8349690  )
        48           Si  tau(  48) = (   0.8776450   0.6114470   0.8859950  )
        49           Si  tau(  49) = (   0.8772100   0.0107950   0.4685340  )
        50           Si  tau(  50) = (   0.5557140   0.0187712   0.6949320  )
        51           Si  tau(  51) = (   0.6276800   0.4564110   0.8943050  )
        52           Si  tau(  52) = (   0.0836695   0.3447650   0.5837750  )
        53           Si  tau(  53) = (   0.3772280   0.4073110   0.9428230  )
        54           Si  tau(  54) = (   0.1737270   0.1053820   0.3858090  )
        55           Si  tau(  55) = (   0.5281540   0.1756830   0.9550060  )
        56           Si  tau(  56) = (   0.2717040   0.4381430   0.2526950  )
        57           Si  tau(  57) = (   0.6451670   0.0282676   0.4616390  )
        58           Si  tau(  58) = (   0.1029090   0.2461700   0.0633183  )
        59           Si  tau(  59) = (   0.3780000   0.0165492   0.8557990  )
        60           Si  tau(  60) = (   0.6440060   0.2091980   0.7442770  )
        61           Si  tau(  61) = (   0.6519490   0.7556330   0.1185130  )
        62           Si  tau(  62) = (   0.2844880   0.7253150   0.1592370  )
        63           Si  tau(  63) = (   0.3345650   0.2604400   0.1251330  )
        64           Si  tau(  64) = (   0.8625760   0.2568610   0.6864630  )

     number of k points=     1  Fermi-Dirac smearing, width (Ry)=  0.0100
                       cart. coord. in units 2pi/alat
        k(    1) = (   0.0000000   0.0000000   0.0000000), wk =   2.0000000

     Dense  grid:    91866 G-vectors     FFT dimensions: (  72,  72,  72)

     Estimated max dynamical RAM per process >     147.26 MB

     Estimated total dynamical RAM >     566.62 MB

     Initial potential from superposition of free atoms

     starting charge     255.9608, renormalised to     256.0000
     Starting wfcs are  256 randomized atomic wfcs

     total cpu time spent up to now is        4.4 secs

     Self-consistent Calculation

     iteration #  1     ecut=    30.00 Ry     beta= 0.50
     Davidson diagonalization with overlap
     ethr =  1.00E-02,  avg # of iterations =  3.0

     Threshold (ethr) on eigenvalues was too large:
     Diagonalizing with lowered threshold

     Davidson diagonalization with overlap
     ethr =  3.79E-04,  avg # of iterations =  4.0

     total cpu time spent up to now is        4.6 secs

     total energy              =    -501.31938384 Ry
     estimated scf accuracy    <       1.14180575 Ry

     iteration #  2     ecut=    30.00 Ry     beta= 0.50
     Davidson diagonalization with overlap
     ethr =  4.46E-04,  avg # of iterations =  3.0

     total cpu time spent up to now is        4.7 secs

     total energy              =    -500.98456424 Ry
     estimated scf accuracy    <       3.41911009 Ry

     iteration #  3     ecut=    30.00 Ry     beta= 0.50
     Davidson diagonalization with overlap
     ethr =  4.46E-04,  avg # of iterations =  4.0

     total cpu time spent up to now is        4.9 secs

     total energy              =    -501.31650767 Ry
     estimated scf accuracy    <       2.23011058 Ry

     iteration #  4     ecut=    30.00 Ry     beta= 0.50
     Davidson diagonalization with overlap
     ethr =  4.46E-04,  avg # of iterations =  3.0

     total cpu time spent up to now is        5.0 secs

     total energy              =    -501.46660481 Ry
     estimated scf accuracy    <       0.56947096 Ry

     iteration #  5     ecut=    30.00 Ry     beta= 0.50
     Davidson diagonalization with overlap
     ethr =  2.22E-04,  avg # of iterations =  2.0

     total cpu time spent up to now is        5.1 secs

     total energy              =    -501.51116419 Ry
     estimated scf accuracy    <       0.14403373 Ry

     iteration #  6     ecut=    30.00 Ry     beta= 0.50
     Davidson diagonalization with overlap
     ethr =  5.63E-05,  avg # of iterations =  3.0

     total cpu time spent up to now is        5.2 secs

     total energy              =    -501.52536794 Ry
     estimated scf accuracy    <       0.18129314 Ry

     iteration #  7     ecut=    30.00 Ry     beta= 0.50
     Davidson diagonalization with overlap
     ethr =  5.63E-05,  avg # of iterations =  2.0

     total cpu time spent up to now is        5.2 secs

     total energy              =    -501.53834633 Ry
     estimated scf accuracy    <       0.01482378 Ry

     iteration #  8     ecut=    30.00 Ry     beta= 0.50
     Davidson diagonalization with overlap
     ethr =  5.79E-06,  avg # of iterations = 15.0

     total cpu time spent up to now is        5.4 secs

     total energy              =    -501.53967275 Ry
     estimated scf accuracy    <       0.02617231 Ry

     iteration #  9     ecut=    30.00 Ry     beta= 0.50
     Davidson diagonalization with overlap
     ethr =  5.79E-06,  avg # of iterations =  2.0

     total cpu time spent up to now is        5.5 secs

     total energy              =    -501.54166385 Ry
     estimated scf accuracy    <       0.00247339 Ry

     iteration # 10     ecut=    30.00 Ry     beta= 0.50
     Davidson diagonalization with overlap
     ethr =  9.66E-07,  avg # of iterations =  3.0

     total cpu time spent up to now is        5.6 secs

     total energy              =    -501.54189764 Ry
     estimated scf accuracy    <       0.00150458 Ry

     iteration # 11     ecut=    30.00 Ry     beta= 0.50
     Davidson diagonalization with overlap
     ethr =  5.88E-07,  avg # of iterations =  2.0

     total cpu time spent up to now is        5.7 secs

     total energy              =    -501.54200487 Ry
     estimated scf accuracy    <       0.00061773 Ry

     iteration # 12     ecut=    30.00 Ry     beta= 0.50
     Davidson diagonalization with overlap
     ethr =  2.41E-07,  avg # of iterations =  2.0

     total cpu time spent up to now is        5.8 secs

     total energy              =    -501.54207427 Ry
     estimated scf accuracy    <       0.00019556 Ry

     iteration # 13     ecut=    30.00 Ry     beta= 0.50
     Davidson diagonalization with overlap
     ethr =  7.64E-08,  avg # of iterations =  2.0

     total cpu time spent up to now is        5.9 secs

     total energy              =    -501.54208818 Ry
     estimated scf accuracy    <       0.00003391 Ry

     iteration # 14     ecut=    30.00 Ry     beta= 0.50
     Davidson diagonalization with overlap
     ethr =  1.32E-08,  avg # of iterations =  4.0

     total cpu time spent up to now is        6.0 secs

     total energy              =    -501.54209157 Ry
     estimated scf accuracy    <       0.00005149 Ry

     iteration # 15     ecut=    30.00 Ry     beta= 0.50
     Davidson diagonalization with overlap
     ethr =  1.32E-08,  avg # of iterations =  2.0

     total cpu time spent up to now is        6.0 secs

     total energy              =    -501.54209414 Ry
     estimated scf accuracy    <       0.00001313 Ry

     iteration # 16     ecut=    30.00 Ry     beta= 0.50
     Davidson diagonalization with overlap
     ethr =  5.13E-09,  avg # of iterations =  3.0

     total cpu time spent up to now is        6.1 secs

     total energy              =    -501.54209537 Ry
     estimated scf accuracy    <       0.00001923 Ry

     iteration # 17     ecut=    30.00 Ry     beta= 0.50
     Davidson diagonalization with overlap
     ethr =  5.13E-09,  avg # of iterations =  2.0

     total cpu time spent up to now is        6.2 secs

     total energy              =    -501.54209638 Ry
     estimated scf accuracy    <       0.00000212 Ry

     iteration # 18     ecut=    30.00 Ry     beta= 0.50
     Davidson diagonalization with overlap
     ethr =  8.29E-10,  avg # of iterations =  4.0

     total cpu time spent up to now is        6.3 secs

     total energy              =    -501.54209667 Ry
     estimated scf accuracy    <       0.00000125 Ry

     iteration # 19     ecut=    30.00 Ry     beta= 0.50
     Davidson diagonalization with overlap
     ethr =  4.87E-10,  avg # of iterations =  2.0

     total cpu time spent up to now is        6.4 secs

     End of self-consistent calculation

          k = 0.0000 0.0000 0.0000 ( 11492 PWs)   bands (ev):

    -5.3916  -4.4430  -4.3658  -4.3034  -4.2803  -4.0502  -4.0260  -3.4863
    -3.3733  -3.3253  -3.2882  -3.2619  -3.0862  -3.0368  -2.9249  -2.8961
    -2.7472  -2.5967  -2.5238  -2.3339  -2.1392  -2.0331  -1.9682  -1.8860
    -1.8392  -1.5286  -1.3192  -1.0184  -0.8987  -0.7947  -0.6858  -0.5896
    -0.4366  -0.3280  -0.2131  -0.1333  -0.1114   0.1251   0.1574   0.2037
     0.2492   0.3299   0.3496   0.4900   0.5182   0.5688   0.6767   0.7456
     0.8733   0.9026   0.9749   1.0446   1.3008   1.3567   1.4344   1.5208
     1.6066   1.6983   1.8235   1.9154   2.0296   2.1039   2.2469   2.3295
     2.4201   2.5202   2.5471   2.5839   2.6386   2.7517   2.8404   2.9382
     3.0108   3.0699   3.1265   3.1902   3.3150   3.3627   3.4510   3.6043
     3.6850   4.0038   4.2165   4.2567   4.2939   4.3682   4.5123   4.5185
     4.5896   4.6140   4.7216   4.8161   4.8544   4.8795   4.9445   5.0566
     5.1041   5.1322   5.1677   5.2353   5.2871   5.3777   5.4308   5.4767
     5.5504   5.6207   5.6655   5.7251   5.7530   5.7898   5.8675   5.9517
     6.0069   6.0206   6.1243   6.1389   6.1980   6.2567   6.3506   6.4318
     6.4698   6.5549   6.6043   6.6353   6.6633   6.7926   6.8426   6.9295
     7.0010   7.0654   7.0937   7.1218   7.1927   7.2368   7.2582   7.3417
     7.4331   7.4687   7.5446   7.5961   7.6677   7.7571   7.7853   7.8962
     7.9507   8.0074   8.1500   8.1709   8.2272   8.2436   8.2913   8.3818
     8.4334   8.5325

     the Fermi energy is     6.9350 ev

!    total energy              =    -501.54209614 Ry
     estimated scf accuracy    <       0.00000082 Ry
     smearing contrib. (-TS)   =      -0.14922914 Ry
     internal energy E=F+TS    =    -501.39286701 Ry

     The total energy is F=E-TS. E is the sum of the following terms:
     one-electron contribution =     186.66628632 Ry
     hartree contribution      =      23.17511909 Ry
     xc contribution           =    -150.38554852 Ry
     ewald contribution        =    -560.84872389 Ry

     convergence has been achieved in  19 iterations

     Forces acting on atoms (cartesian axes, Ry/au):

     atom    1 type  1   force =    -0.02673718   -0.03507997   -0.03716430
     atom    2 type  1   force =    -0.06058784   -0.04426127    0.00030746
     atom    3 type  1   force =     0.00015322   -0.00986999   -0.01610091
     atom    4 type  1   force =     0.00216832    0.02084748    0.01011737
     atom    5 type  1   force =    -0.02885308   -0.03023435   -0.02522056
     atom    6 type  1   force =    -0.01500884    0.00129559    0.01856547
     atom    7 type  1   force =     0.02910306    0.00507717   -0.07292029
     atom    8 type  1   force =    -0.02399720    0.01968767   -0.01187192
     atom    9 type  1   force =     0.03069197    0.08896973   -0.01459866
     atom   10 type  1   force =    -0.02330315    0.00769309   -0.02487514
     atom   11 type  1   force =    -0.00573103    0.01722563    0.02158922
     atom   12 type  1   force =     0.07719687    0.04372899    0.03073911
     atom   13 type  1   force =    -0.00009708    0.00425686   -0.02460289
     atom   14 type  1   force =     0.04635273    0.02820402   -0.01937126
     atom   15 type  1   force =     0.01246146   -0.02466315   -0.00971615
     atom   16 type  1   force =    -0.01369526    0.02359038   -0.00031646
     atom   17 type  1   force =     0.02533695   -0.00392184   -0.03742821
     atom   18 type  1   force =    -0.00803399    0.00380451    0.04483953
     atom   19 type  1   force =     0.02622803   -0.01382256   -0.01171875
     atom   20 type  1   force =    -0.01165084   -0.00632980    0.03951864
     atom   21 type  1   force =     0.00502840   -0.02511279   -0.01987355
     atom   22 type  1   force =    -0.03379971   -0.02496622   -0.00472504
     atom   23 type  1   force =    -0.02007457   -0.00060813   -0.00066664
     atom   24 type  1   force =     0.02661511    0.03760532   -0.04084159
     atom   25 type  1   force =    -0.00731116    0.01143104    0.01098927
     atom   26 type  1   force =    -0.00132316    0.02810134    0.00820108
     atom   27 type  1   force =    -0.00208630    0.03791910    0.04381940
     atom   28 type  1   force =     0.02987915   -0.02945038    0.04523070
     atom   29 type  1   force =    -0.01968286   -0.00269622    0.02331354
     atom   30 type  1   force =    -0.05213450   -0.05199496   -0.02250151
     atom   31 type  1   force =     0.00763020    0.01056442   -0.00693707
     atom   32 type  1   force =    -0.01119658   -0.00611075    0.00022015
     atom   33 type  1   force =     0.01460797   -0.00744705   -0.01004247
     atom   34 type  1   force =     0.00192455   -0.02133069    0.02212547
     atom   35 type  1   force =    -0.00798445    0.01682469   -0.01130323
     atom   36 type  1   force =     0.00093687   -0.01106690    0.00477222
     atom   37 type  1   force =    -0.01174031    0.02924728   -0.00301888
     atom   38 type  1   force =     0.00125808   -0.01406234   -0.01973351
     atom   39 type  1   force =    -0.00046164   -0.00769059    0.01577666
     atom   40 type  1   force =     0.00317274   -0.00093575    0.01622235
     atom   41 type  1   force =    -0.04364559    0.00507441   -0.03133033
     atom   42 type  1   force =     0.01946408   -0.00980843    0.02249916
     atom   43 type  1   force =     0.00575212    0.03099288    0.04317544
     atom   44 type  1   force =    -0.03548491    0.05205191    0.05940655
     atom   45 type  1   force =     0.03319186    0.00198723   -0.00292750
     atom   46 type  1   force =     0.01214441   -0.00960407    0.00651846
     atom   47 type  1   force =     0.01087602    0.00771697    0.01836381
     atom   48 type  1   force =     0.00564077   -0.00535374   -0.01193071
     atom   49 type  1   force =    -0.01528680    0.00060614    0.02748343
     atom   50 type  1   force =    -0.02397209   -0.03858413   -0.02964077
     atom   51 type  1   force =    -0.00941832   -0.00015139    0.00321615
     atom   52 type  1   force =     0.00848905   -0.00449855   -0.00343313
     atom   53 type  1   force =     0.00101185    0.01691186   -0.00998190
     atom   54 type  1   force =    -0.02461067   -0.02501183   -0.01798497
     atom   55 type  1   force =    -0.00399179   -0.00660293   -0.01065435
     atom   56 type  1   force =     0.02074184    0.02493709    0.02595984
     atom   57 type  1   force =     0.01406115    0.02781695    0.02490125
     atom   58 type  1   force =    -0.00066555   -0.03489288   -0.04920955
     atom   59 type  1   force =     0.00887815   -0.01905593   -0.00300573
     atom   60 type  1   force =     0.00518042    0.02682271    0.01731865
     atom   61 type  1   force =    -0.00141026   -0.04068450    0.03283548
     atom   62 type  1   force =     0.01217468   -0.02401594    0.00580292
     atom   63 type  1   force =     0.04761216   -0.01039881   -0.00423422
     atom   64 type  1   force =    -0.00198753   -0.03067364   -0.02394663

     Total force =     0.343002     Total SCF correction =     0.001801


     Computing stress (Cartesian axis) and pressure

          total   stress  (Ry/bohr**3)                   (kbar)     P=      -39.34
  -0.00028470   0.00006882   0.00001729          -41.88       10.12        2.54
   0.00006882  -0.00025847  -0.00003100           10.12      -38.02       -4.56
   0.00001729  -0.00003100  -0.00025916            2.54       -4.56      -38.12

 
     init_run     :      0.92s CPU      4.37s WALL (       1 calls)
     electrons    :      1.72s CPU      1.95s WALL (       1 calls)
     forces       :      0.03s CPU      0.03s WALL (       1 calls)
     stress       :      0.14s CPU      0.14s WALL (       1 calls)

     Called by init_run:
     wfcinit      :      0.42s CPU      3.66s WALL (       1 calls)
                                        3.66s GPU  (       1 calls)
     potinit      :      0.03s CPU      0.14s WALL (       1 calls)
     hinit0       :      0.45s CPU      0.48s WALL (       1 calls)

     Called by electrons:
     c_bands      :      1.10s CPU      1.18s WALL (      20 calls)
     sum_band     :      0.32s CPU      0.37s WALL (      20 calls)
     v_of_rho     :      0.13s CPU      0.25s WALL (      20 calls)
     mix_rho      :      0.14s CPU      0.22s WALL (      20 calls)

     Called by c_bands:
     init_us_2    :      0.05s CPU      0.06s WALL (      41 calls)
     init_us_2:gp :      0.05s CPU      0.05s WALL (      41 calls)
     regterg      :      0.96s CPU      1.04s WALL (      20 calls)

     Called by *egterg:
     rdiaghg      :      0.40s CPU      1.10s WALL (      86 calls)
                                        1.09s GPU  (      86 calls)
     h_psi        :      0.82s CPU      3.40s WALL (      88 calls)
                                        3.39s GPU  (      88 calls)
     g_psi        :      0.00s CPU      0.00s WALL (      67 calls)
                                        0.00s GPU  (      67 calls)

     Called by h_psi:
     h_psi:calbec :      0.40s CPU      2.92s WALL (      88 calls)
                                        2.92s GPU  (      88 calls)
     vloc_psi     :      0.37s CPU      0.42s WALL (      88 calls)
                                        0.42s GPU  (      88 calls)
     add_vuspsi   :      0.03s CPU      0.05s WALL (      88 calls)
                                        0.05s GPU  (      88 calls)

     General routines
     calbec       :      0.41s CPU      2.92s WALL (      93 calls)
     fft          :      0.55s CPU      0.69s WALL (     167 calls)
                                        0.14s GPU  (     106 calls)
     ffts         :      0.03s CPU      0.03s WALL (      20 calls)
     fftw         :      0.45s CPU      0.58s WALL (    2100 calls)
                                        0.51s GPU  (    2100 calls)
 
     Parallel routines
 
     PWSCF        :      2.85s CPU      6.57s WALL

 
   This run was terminated on:  10:54:31  10May2023            

=------------------------------------------------------------------------------=
   JOB DONE.
=------------------------------------------------------------------------------=
