An instance of this daemon is already running
An instance of this daemon is already running

     Program PWSCF v.7.1 starts on 10May2023 at 10:50:22 

     This program is part of the open-source Quantum ESPRESSO suite
     for quantum simulation of materials; please cite
         "P. Giannozzi et al., J. Phys.:Condens. Matter 21 395502 (2009);
         "P. Giannozzi et al., J. Phys.:Condens. Matter 29 465901 (2017);
         "P. Giannozzi et al., J. Chem. Phys. 152 154105 (2020);
          URL http://www.quantum-espresso.org", 
     in publications or presentations arising from this work. More details at
     http://www.quantum-espresso.org/quote

     Parallel version (MPI & OpenMP), running on       4 processor cores
     Number of MPI processes:                 4
     Threads/MPI process:                     1

     MPI processes distributed on     1 nodes
     153159 MiB available memory on the printing compute node when the environment starts
 
     Reading input from pw-si-66.in
Warning: card &CELL ignored
Warning: card / ignored

     Current dimensions of program PWSCF are:
     Max number of different atomic species (ntypx) = 10
     Max number of k-points (npk) =  40000
     Max angular momentum in pseudopotentials (lmaxx) =  4

     IMPORTANT: XC functional enforced from input :
     Exchange-correlation= PBE
                           (   1   4   3   4   0   0   0)
     Any further DFT definition will be discarded
     Please, verify this is what you really want


     gamma-point specific algorithms are used
 
     K-points division:     npool     =       2
     R & G space division:  proc/nbgrp/npool/nimage =       2
     Subspace diagonalization in iterative solution of the eigenvalue problem:
     a serial algorithm will be used

     Message from routine divide_et_impera:
     suboptimal parallelization: some nodes have no k-points
 
     Parallelization info
     --------------------
     sticks:   dense  smooth     PW     G-vecs:    dense   smooth      PW
     Min        1933    1933    515                90543    90543   12286
     Max        1936    1936    518                90548    90548   12287
     Sum        3869    3869   1033               181091   181091   24573
 
     Using Slab Decomposition
 


     bravais-lattice index     =            0
     lattice parameter (alat)  =      20.1336  a.u.
     unit-cell volume          =    8161.3452 (a.u.)^3
     number of atoms/cell      =           64
     number of atomic types    =            1
     number of electrons       =       256.00
     number of Kohn-Sham states=          154
     kinetic-energy cutoff     =      30.0000  Ry
     charge density cutoff     =     120.0000  Ry
     scf convergence threshold =      1.0E-06
     mixing beta               =       0.5000
     number of iterations used =            8  plain     mixing
     Exchange-correlation= PBE
                           (   1   4   3   4   0   0   0)

     GPU acceleration is ACTIVE.
     GPU-aware MPI enabled

     Message from routine print_cuda_info:
     High GPU oversubscription detected. Are you sure this is what you want?

     celldm(1)=  20.133560  celldm(2)=   0.000000  celldm(3)=   0.000000
     celldm(4)=   0.000000  celldm(5)=   0.000000  celldm(6)=   0.000000

     crystal axes: (cart. coord. in units of alat)
               a(1) = (   1.000000   0.000000   0.000000 )  
               a(2) = (   0.000000   1.000000   0.000000 )  
               a(3) = (   0.000000   0.000000   1.000000 )  

     reciprocal axes: (cart. coord. in units 2 pi/alat)
               b(1) = (  1.000000  0.000000  0.000000 )  
               b(2) = (  0.000000  1.000000  0.000000 )  
               b(3) = (  0.000000  0.000000  1.000000 )  


     PseudoPot. # 1 for Si read from file:
     /home/ppiaggi/pseudos/Si_ONCV_PBE_sr.upf
     MD5 check sum: 8553c464762ac42b85b1eed164b4d029
     Pseudo is Norm-conserving, Zval =  4.0
     Generated using ONCVPSP code by D. R. Hamann
     Using radial grid of 1510 points,  4 beta functions with: 
                l(1) =   0
                l(2) =   0
                l(3) =   1
                l(4) =   1

     atomic species   valence    mass     pseudopotential
        Si             4.00    28.08500     Si( 1.00)

     No symmetry found



   Cartesian axes

     site n.     atom                  positions (alat units)
         1           Si  tau(   1) = (   0.4791200   0.0643345   0.1104980  )
         2           Si  tau(   2) = (   0.5457960   0.5432770   0.3469540  )
         3           Si  tau(   3) = (   0.1652380   0.1868700   0.6723020  )
         4           Si  tau(   4) = (   0.6106990   0.2827180   0.7296250  )
         5           Si  tau(   5) = (   0.8079160   0.9422520   0.2597460  )
         6           Si  tau(   6) = (   0.2520170   0.4575670   0.4711190  )
         7           Si  tau(   7) = (   0.3350780   0.5456900   0.2890270  )
         8           Si  tau(   8) = (   0.7837140   0.6380340   0.4640920  )
         9           Si  tau(   9) = (   0.4888320   0.8581960   0.7666350  )
        10           Si  tau(  10) = (   0.2437010   0.2509500   0.4322840  )
        11           Si  tau(  11) = (   0.3341590   0.7771390   0.2932420  )
        12           Si  tau(  12) = (   0.0718087   0.3678750   0.7806760  )
        13           Si  tau(  13) = (   0.3017930   0.4721700   0.6828400  )
        14           Si  tau(  14) = (   0.1986350   0.6544090   0.8014470  )
        15           Si  tau(  15) = (   0.9726030   0.1307450   0.5681500  )
        16           Si  tau(  16) = (   0.0405661   0.1948020   0.3486520  )
        17           Si  tau(  17) = (   0.2690600   0.8475420   0.0743853  )
        18           Si  tau(  18) = (   0.8537220   0.6977570   0.9602120  )
        19           Si  tau(  19) = (   0.8275390   0.1590000   0.2659460  )
        20           Si  tau(  20) = (   0.7952200   0.5660670   0.7247070  )
        21           Si  tau(  21) = (   0.6575820   0.2118030   0.9259780  )
        22           Si  tau(  22) = (   0.5084380   0.3768670   0.4957860  )
        23           Si  tau(  23) = (   0.3997060   0.0472387   0.5515360  )
        24           Si  tau(  24) = (   0.8586770   0.3730020   0.4972990  )
        25           Si  tau(  25) = (   0.3527280   0.8100400   0.5361080  )
        26           Si  tau(  26) = (   0.9327550   0.8516800   0.0776221  )
        27           Si  tau(  27) = (   0.6640570   0.8746610   0.4538960  )
        28           Si  tau(  28) = (   0.3001130   0.3045500   0.9669940  )
        29           Si  tau(  29) = (   0.8335320   0.5238080   0.2512630  )
        30           Si  tau(  30) = (   0.0533188   0.4821060   0.4489970  )
        31           Si  tau(  31) = (   0.5048080   0.5064720   0.9611990  )
        32           Si  tau(  32) = (   0.5080980   0.2827830   0.0803547  )
        33           Si  tau(  33) = (   0.5581570   0.5017030   0.7134230  )
        34           Si  tau(  34) = (   0.3576210   0.0292180   0.8859340  )
        35           Si  tau(  35) = (   0.3817690   0.2300150   0.7783550  )
        36           Si  tau(  36) = (   0.6591250   0.5850680   0.1106560  )
        37           Si  tau(  37) = (   0.0046867   0.6450110   0.3119660  )
        38           Si  tau(  38) = (   0.0434904   0.5586010   0.9493200  )
        39           Si  tau(  39) = (   0.1173300   0.8233070   0.6444030  )
        40           Si  tau(  40) = (   0.1524500   0.1727730   0.0502054  )
        41           Si  tau(  41) = (   0.6649730   0.8277730   0.0991961  )
        42           Si  tau(  42) = (   0.4717590   0.2010810   0.3738690  )
        43           Si  tau(  43) = (   0.6330270   0.0236148   0.6219730  )
        44           Si  tau(  44) = (   0.8400090   0.2300420   0.0474285  )
        45           Si  tau(  45) = (   0.9932740   0.0524603   0.9562640  )
        46           Si  tau(  46) = (   0.0637660   0.3693380   0.1806160  )
        47           Si  tau(  47) = (   0.7057470   0.1965250   0.4832040  )
        48           Si  tau(  48) = (   0.7265570   0.7745650   0.7705850  )
        49           Si  tau(  49) = (   0.8322670   0.0400739   0.7546850  )
        50           Si  tau(  50) = (   0.8767090   0.8794400   0.6103530  )
        51           Si  tau(  51) = (   0.9783320   0.8702710   0.3848470  )
        52           Si  tau(  52) = (   0.8874530   0.4356320   0.0494759  )
        53           Si  tau(  53) = (   0.6679580   0.3421400   0.2636150  )
        54           Si  tau(  54) = (   0.3758400   0.7130770   0.9277800  )
        55           Si  tau(  55) = (   0.1614890   0.9685780   0.4039470  )
        56           Si  tau(  56) = (   0.1430990   0.9934470   0.8126880  )
        57           Si  tau(  57) = (   0.6578680   0.9771330   0.9334770  )
        58           Si  tau(  58) = (   0.2567010   0.5012420   0.0872413  )
        59           Si  tau(  59) = (   0.8445970   0.3058680   0.7340480  )
        60           Si  tau(  60) = (   0.5516480   0.7105690   0.5350680  )
        61           Si  tau(  61) = (   0.5031750   0.9272290   0.3073820  )
        62           Si  tau(  62) = (   0.2509720   0.0376897   0.1746930  )
        63           Si  tau(  63) = (   0.1058600   0.7120960   0.1085400  )
        64           Si  tau(  64) = (   0.0134892   0.5409340   0.6630820  )

     number of k points=     1  Fermi-Dirac smearing, width (Ry)=  0.0100
                       cart. coord. in units 2pi/alat
        k(    1) = (   0.0000000   0.0000000   0.0000000), wk =   2.0000000

     Dense  grid:    90546 G-vectors     FFT dimensions: (  72,  72,  72)

     Estimated max dynamical RAM per process >     145.40 MB

     Estimated total dynamical RAM >     559.50 MB

     Initial potential from superposition of free atoms

     starting charge     255.9608, renormalised to     256.0000
     Starting wfcs are  256 randomized atomic wfcs

     total cpu time spent up to now is        4.4 secs

     Self-consistent Calculation

     iteration #  1     ecut=    30.00 Ry     beta= 0.50
     Davidson diagonalization with overlap
     ethr =  1.00E-02,  avg # of iterations =  3.0

     Threshold (ethr) on eigenvalues was too large:
     Diagonalizing with lowered threshold

     Davidson diagonalization with overlap
     ethr =  4.49E-04,  avg # of iterations =  4.0

     total cpu time spent up to now is        4.6 secs

     total energy              =    -501.23501715 Ry
     estimated scf accuracy    <       1.37919109 Ry

     iteration #  2     ecut=    30.00 Ry     beta= 0.50
     Davidson diagonalization with overlap
     ethr =  5.39E-04,  avg # of iterations =  4.0

     total cpu time spent up to now is        4.7 secs

     total energy              =    -500.83464637 Ry
     estimated scf accuracy    <       4.25453880 Ry

     iteration #  3     ecut=    30.00 Ry     beta= 0.50
     Davidson diagonalization with overlap
     ethr =  5.39E-04,  avg # of iterations =  4.0

     total cpu time spent up to now is        4.8 secs

     total energy              =    -501.24081196 Ry
     estimated scf accuracy    <       3.02914369 Ry

     iteration #  4     ecut=    30.00 Ry     beta= 0.50
     Davidson diagonalization with overlap
     ethr =  5.39E-04,  avg # of iterations =  2.0

     total cpu time spent up to now is        4.9 secs

     total energy              =    -501.45177490 Ry
     estimated scf accuracy    <       0.52258149 Ry

     iteration #  5     ecut=    30.00 Ry     beta= 0.50
     Davidson diagonalization with overlap
     ethr =  2.04E-04,  avg # of iterations =  2.0

     total cpu time spent up to now is        5.0 secs

     total energy              =    -501.48305003 Ry
     estimated scf accuracy    <       0.33774273 Ry

     iteration #  6     ecut=    30.00 Ry     beta= 0.50
     Davidson diagonalization with overlap
     ethr =  1.32E-04,  avg # of iterations =  2.0

     total cpu time spent up to now is        5.0 secs

     total energy              =    -501.51452687 Ry
     estimated scf accuracy    <       0.16599719 Ry

     iteration #  7     ecut=    30.00 Ry     beta= 0.50
     Davidson diagonalization with overlap
     ethr =  6.48E-05,  avg # of iterations =  1.0

     total cpu time spent up to now is        5.1 secs

     total energy              =    -501.52974211 Ry
     estimated scf accuracy    <       0.00600222 Ry

     iteration #  8     ecut=    30.00 Ry     beta= 0.50
     Davidson diagonalization with overlap
     ethr =  2.34E-06,  avg # of iterations = 12.0

     total cpu time spent up to now is        5.3 secs

     total energy              =    -501.53061148 Ry
     estimated scf accuracy    <       0.01024195 Ry

     iteration #  9     ecut=    30.00 Ry     beta= 0.50
     Davidson diagonalization with overlap
     ethr =  2.34E-06,  avg # of iterations =  3.0

     total cpu time spent up to now is        5.4 secs

     total energy              =    -501.53159741 Ry
     estimated scf accuracy    <       0.00512390 Ry

     iteration # 10     ecut=    30.00 Ry     beta= 0.50
     Davidson diagonalization with overlap
     ethr =  2.00E-06,  avg # of iterations =  2.0

     total cpu time spent up to now is        5.5 secs

     total energy              =    -501.53193689 Ry
     estimated scf accuracy    <       0.00073110 Ry

     iteration # 11     ecut=    30.00 Ry     beta= 0.50
     Davidson diagonalization with overlap
     ethr =  2.86E-07,  avg # of iterations =  2.0

     total cpu time spent up to now is        5.6 secs

     total energy              =    -501.53198999 Ry
     estimated scf accuracy    <       0.00039729 Ry

     iteration # 12     ecut=    30.00 Ry     beta= 0.50
     Davidson diagonalization with overlap
     ethr =  1.55E-07,  avg # of iterations =  3.0

     total cpu time spent up to now is        5.7 secs

     total energy              =    -501.53202669 Ry
     estimated scf accuracy    <       0.00053165 Ry

     iteration # 13     ecut=    30.00 Ry     beta= 0.50
     Davidson diagonalization with overlap
     ethr =  1.55E-07,  avg # of iterations =  2.0

     total cpu time spent up to now is        5.7 secs

     total energy              =    -501.53206030 Ry
     estimated scf accuracy    <       0.00008007 Ry

     iteration # 14     ecut=    30.00 Ry     beta= 0.50
     Davidson diagonalization with overlap
     ethr =  3.13E-08,  avg # of iterations =  2.0

     total cpu time spent up to now is        5.8 secs

     total energy              =    -501.53206853 Ry
     estimated scf accuracy    <       0.00002381 Ry

     iteration # 15     ecut=    30.00 Ry     beta= 0.50
     Davidson diagonalization with overlap
     ethr =  9.30E-09,  avg # of iterations =  2.0

     total cpu time spent up to now is        5.9 secs

     total energy              =    -501.53206885 Ry
     estimated scf accuracy    <       0.00001165 Ry

     iteration # 16     ecut=    30.00 Ry     beta= 0.50
     Davidson diagonalization with overlap
     ethr =  4.55E-09,  avg # of iterations =  3.0

     total cpu time spent up to now is        6.0 secs

     total energy              =    -501.53207024 Ry
     estimated scf accuracy    <       0.00001138 Ry

     iteration # 17     ecut=    30.00 Ry     beta= 0.50
     Davidson diagonalization with overlap
     ethr =  4.44E-09,  avg # of iterations =  1.0

     total cpu time spent up to now is        6.1 secs

     End of self-consistent calculation

          k = 0.0000 0.0000 0.0000 ( 11372 PWs)   bands (ev):

    -5.4433  -4.5252  -4.4901  -4.3171  -4.2315  -4.1507  -3.9894  -3.4817
    -3.4021  -3.3357  -3.1860  -3.1791  -3.0658  -2.9418  -2.8927  -2.8601
    -2.7792  -2.6882  -2.6165  -2.2228  -2.0716  -1.9745  -1.8357  -1.7771
    -1.6606  -1.5475  -1.2703  -0.9908  -0.8197  -0.7510  -0.6956  -0.5351
    -0.4961  -0.3403  -0.1800  -0.0658  -0.0014   0.1333   0.2178   0.2570
     0.3098   0.3435   0.4364   0.4860   0.5640   0.7131   0.7958   0.8267
     1.0094   1.0635   1.1027   1.2268   1.2933   1.4716   1.5511   1.7002
     1.8414   1.8858   1.9364   2.1123   2.1769   2.2522   2.3464   2.3992
     2.4768   2.6213   2.6862   2.7232   2.7471   2.8602   2.9380   2.9706
     3.0217   3.1076   3.1658   3.2012   3.2541   3.3850   3.4860   3.5976
     3.7135   4.1196   4.1869   4.2820   4.4061   4.4550   4.5053   4.6520
     4.7107   4.7500   4.7693   4.8698   4.9149   4.9722   5.0663   5.0909
     5.1420   5.2038   5.2664   5.3533   5.4126   5.5101   5.5379   5.5416
     5.6062   5.6823   5.7187   5.8038   5.8708   5.9092   6.0223   6.0602
     6.1562   6.2661   6.3273   6.3395   6.3710   6.4501   6.4918   6.5891
     6.5995   6.7243   6.7597   6.7937   6.8610   6.8945   6.9895   7.0018
     7.0234   7.1225   7.2057   7.2640   7.2980   7.3952   7.4292   7.5135
     7.6259   7.6326   7.6916   7.8029   7.8364   7.8659   8.0222   8.0345
     8.1342   8.1742   8.2467   8.3458   8.3770   8.4457   8.4771   8.6103
     8.6587   8.7111

     the Fermi energy is     7.0501 ev

!    total energy              =    -501.53207042 Ry
     estimated scf accuracy    <       0.00000088 Ry
     smearing contrib. (-TS)   =      -0.15368406 Ry
     internal energy E=F+TS    =    -501.37838635 Ry

     The total energy is F=E-TS. E is the sum of the following terms:
     one-electron contribution =     184.28303075 Ry
     hartree contribution      =      25.66803728 Ry
     xc contribution           =    -151.27451024 Ry
     ewald contribution        =    -560.05494414 Ry

     convergence has been achieved in  17 iterations

     Forces acting on atoms (cartesian axes, Ry/au):

     atom    1 type  1   force =    -0.02481039   -0.02261543    0.01372837
     atom    2 type  1   force =     0.03630773    0.01420313    0.00120204
     atom    3 type  1   force =     0.03288467    0.00024719   -0.01174049
     atom    4 type  1   force =    -0.00666445   -0.01330931   -0.03716502
     atom    5 type  1   force =    -0.01130206   -0.03244742   -0.00935029
     atom    6 type  1   force =     0.08546630    0.01582221    0.02402571
     atom    7 type  1   force =     0.00737808    0.04014842   -0.01409257
     atom    8 type  1   force =    -0.02113086   -0.00650295    0.01859489
     atom    9 type  1   force =     0.02124456    0.00007556    0.01907698
     atom   10 type  1   force =     0.00625420   -0.06955956    0.02906876
     atom   11 type  1   force =    -0.01303194   -0.00448828    0.00308412
     atom   12 type  1   force =    -0.00656999   -0.00956530    0.02716887
     atom   13 type  1   force =     0.02564209    0.00792719    0.02552279
     atom   14 type  1   force =    -0.01045868   -0.00426382   -0.03478269
     atom   15 type  1   force =    -0.00398670    0.01166863   -0.01210115
     atom   16 type  1   force =    -0.00582990   -0.01089178   -0.00719321
     atom   17 type  1   force =     0.02095209   -0.01769511    0.00245918
     atom   18 type  1   force =    -0.05300755   -0.02210601   -0.05274043
     atom   19 type  1   force =    -0.01066898    0.01697844   -0.01546281
     atom   20 type  1   force =    -0.01795814    0.00391410   -0.03756806
     atom   21 type  1   force =    -0.00368098   -0.04532327    0.03395326
     atom   22 type  1   force =     0.01536452    0.00527964    0.02747311
     atom   23 type  1   force =     0.00966278    0.00394841   -0.01177615
     atom   24 type  1   force =     0.00451085    0.01388844    0.01935635
     atom   25 type  1   force =    -0.02772730    0.03447378    0.00379012
     atom   26 type  1   force =     0.01250890    0.07578920    0.02252735
     atom   27 type  1   force =     0.04175577    0.02051537   -0.00363090
     atom   28 type  1   force =     0.02627616    0.03989726    0.01882215
     atom   29 type  1   force =    -0.05093768   -0.02344125   -0.00318132
     atom   30 type  1   force =    -0.10243894    0.00494039    0.01448835
     atom   31 type  1   force =    -0.00645196    0.01961881   -0.01587914
     atom   32 type  1   force =     0.00124913    0.02452646    0.00337054
     atom   33 type  1   force =    -0.01787266    0.00171013    0.00314923
     atom   34 type  1   force =     0.02328500   -0.00724679    0.01425409
     atom   35 type  1   force =    -0.01083678   -0.00055624   -0.02666489
     atom   36 type  1   force =     0.03048857    0.05587533    0.01395442
     atom   37 type  1   force =     0.00650892    0.06929281   -0.02639153
     atom   38 type  1   force =     0.02448023    0.00825203   -0.01923821
     atom   39 type  1   force =     0.01224534   -0.00661234    0.02956257
     atom   40 type  1   force =    -0.04511647    0.04566861    0.00727368
     atom   41 type  1   force =     0.01799893   -0.00782065    0.02927129
     atom   42 type  1   force =    -0.01173822   -0.04273346   -0.01024919
     atom   43 type  1   force =    -0.00154661    0.00865336   -0.00633464
     atom   44 type  1   force =     0.00914671   -0.06107495    0.00398447
     atom   45 type  1   force =    -0.05195394   -0.01023086    0.01523384
     atom   46 type  1   force =     0.02578565   -0.03839962   -0.00651758
     atom   47 type  1   force =    -0.01682059    0.01637182   -0.00894294
     atom   48 type  1   force =    -0.00066192    0.01555074    0.01453318
     atom   49 type  1   force =    -0.02344886    0.02131673    0.02395411
     atom   50 type  1   force =     0.01707071   -0.02133994   -0.03054827
     atom   51 type  1   force =    -0.05718018   -0.06222327    0.01468096
     atom   52 type  1   force =     0.01685643    0.02375652    0.02273831
     atom   53 type  1   force =    -0.01444792    0.00549551   -0.00055964
     atom   54 type  1   force =     0.01709531   -0.00751775   -0.01616875
     atom   55 type  1   force =     0.06200009    0.03758788   -0.01752659
     atom   56 type  1   force =     0.02977678   -0.00321460   -0.04667346
     atom   57 type  1   force =    -0.01619475    0.00231437   -0.03094715
     atom   58 type  1   force =    -0.02590482   -0.01540846   -0.01538420
     atom   59 type  1   force =     0.01347336   -0.00242718   -0.02953119
     atom   60 type  1   force =     0.01098882   -0.06576203    0.00064405
     atom   61 type  1   force =    -0.00073782    0.01318610   -0.03121910
     atom   62 type  1   force =     0.03758717   -0.02273975    0.05829526
     atom   63 type  1   force =    -0.02564785   -0.03541840    0.04374715
     atom   64 type  1   force =    -0.00547990    0.01404123   -0.01342795

     Total force =     0.378014     Total SCF correction =     0.001722


     Computing stress (Cartesian axis) and pressure

          total   stress  (Ry/bohr**3)                   (kbar)     P=      -19.97
  -0.00009332   0.00005281   0.00002602          -13.73        7.77        3.83
   0.00005281  -0.00008874   0.00000567            7.77      -13.05        0.83
   0.00002602   0.00000567  -0.00022518            3.83        0.83      -33.12

 
     init_run     :      0.95s CPU      4.34s WALL (       1 calls)
     electrons    :      1.51s CPU      1.70s WALL (       1 calls)
     forces       :      0.03s CPU      0.03s WALL (       1 calls)
     stress       :      0.14s CPU      0.14s WALL (       1 calls)

     Called by init_run:
     wfcinit      :      0.44s CPU      3.68s WALL (       1 calls)
                                        3.68s GPU  (       1 calls)
     potinit      :      0.04s CPU      0.12s WALL (       1 calls)
     hinit0       :      0.46s CPU      0.48s WALL (       1 calls)

     Called by electrons:
     c_bands      :      0.97s CPU      1.08s WALL (      18 calls)
     sum_band     :      0.27s CPU      0.33s WALL (      18 calls)
     v_of_rho     :      0.12s CPU      0.21s WALL (      18 calls)
     mix_rho      :      0.13s CPU      0.14s WALL (      18 calls)

     Called by c_bands:
     init_us_2    :      0.04s CPU      0.05s WALL (      37 calls)
     init_us_2:gp :      0.04s CPU      0.05s WALL (      37 calls)
     regterg      :      0.83s CPU      0.94s WALL (      18 calls)

     Called by *egterg:
     rdiaghg      :      0.34s CPU      1.05s WALL (      71 calls)
                                        1.03s GPU  (      71 calls)
     h_psi        :      0.78s CPU      3.39s WALL (      73 calls)
                                        3.39s GPU  (      73 calls)
     g_psi        :      0.00s CPU      0.00s WALL (      54 calls)
                                        0.00s GPU  (      54 calls)

     Called by h_psi:
     h_psi:calbec :      0.41s CPU      2.95s WALL (      73 calls)
                                        2.95s GPU  (      73 calls)
     vloc_psi     :      0.33s CPU      0.40s WALL (      73 calls)
                                        0.40s GPU  (      73 calls)
     add_vuspsi   :      0.03s CPU      0.04s WALL (      73 calls)
                                        0.04s GPU  (      73 calls)

     General routines
     calbec       :      0.42s CPU      2.95s WALL (      78 calls)
     fft          :      0.54s CPU      0.65s WALL (     151 calls)
                                        0.12s GPU  (      96 calls)
     ffts         :      0.02s CPU      0.03s WALL (      18 calls)
     fftw         :      0.40s CPU      0.54s WALL (    1880 calls)
                                        0.48s GPU  (    1880 calls)
 
     Parallel routines
 
     PWSCF        :      2.66s CPU      6.33s WALL

 
   This run was terminated on:  10:50:28  10May2023            

=------------------------------------------------------------------------------=
   JOB DONE.
=------------------------------------------------------------------------------=
