An instance of this daemon is already running
An instance of this daemon is already running

     Program PWSCF v.7.1 starts on 10May2023 at 10:50:49 

     This program is part of the open-source Quantum ESPRESSO suite
     for quantum simulation of materials; please cite
         "P. Giannozzi et al., J. Phys.:Condens. Matter 21 395502 (2009);
         "P. Giannozzi et al., J. Phys.:Condens. Matter 29 465901 (2017);
         "P. Giannozzi et al., J. Chem. Phys. 152 154105 (2020);
          URL http://www.quantum-espresso.org", 
     in publications or presentations arising from this work. More details at
     http://www.quantum-espresso.org/quote

     Parallel version (MPI & OpenMP), running on       4 processor cores
     Number of MPI processes:                 4
     Threads/MPI process:                     1

     MPI processes distributed on     1 nodes
     153165 MiB available memory on the printing compute node when the environment starts
 
     Reading input from pw-si-69.in
Warning: card &CELL ignored
Warning: card / ignored

     Current dimensions of program PWSCF are:
     Max number of different atomic species (ntypx) = 10
     Max number of k-points (npk) =  40000
     Max angular momentum in pseudopotentials (lmaxx) =  4

     IMPORTANT: XC functional enforced from input :
     Exchange-correlation= PBE
                           (   1   4   3   4   0   0   0)
     Any further DFT definition will be discarded
     Please, verify this is what you really want


     gamma-point specific algorithms are used
 
     K-points division:     npool     =       2
     R & G space division:  proc/nbgrp/npool/nimage =       2
     Subspace diagonalization in iterative solution of the eigenvalue problem:
     a serial algorithm will be used

     Message from routine divide_et_impera:
     suboptimal parallelization: some nodes have no k-points
 
     Parallelization info
     --------------------
     sticks:   dense  smooth     PW     G-vecs:    dense   smooth      PW
     Min        1942    1942    516                90833    90833   12416
     Max        1943    1943    517                90834    90834   12421
     Sum        3885    3885   1033               181667   181667   24837
 
     Using Slab Decomposition
 


     bravais-lattice index     =            0
     lattice parameter (alat)  =      20.1545  a.u.
     unit-cell volume          =    8186.8553 (a.u.)^3
     number of atoms/cell      =           64
     number of atomic types    =            1
     number of electrons       =       256.00
     number of Kohn-Sham states=          154
     kinetic-energy cutoff     =      30.0000  Ry
     charge density cutoff     =     120.0000  Ry
     scf convergence threshold =      1.0E-06
     mixing beta               =       0.5000
     number of iterations used =            8  plain     mixing
     Exchange-correlation= PBE
                           (   1   4   3   4   0   0   0)

     GPU acceleration is ACTIVE.
     GPU-aware MPI enabled

     Message from routine print_cuda_info:
     High GPU oversubscription detected. Are you sure this is what you want?

     celldm(1)=  20.154516  celldm(2)=   0.000000  celldm(3)=   0.000000
     celldm(4)=   0.000000  celldm(5)=   0.000000  celldm(6)=   0.000000

     crystal axes: (cart. coord. in units of alat)
               a(1) = (   1.000000   0.000000   0.000000 )  
               a(2) = (   0.000000   1.000000   0.000000 )  
               a(3) = (   0.000000   0.000000   1.000000 )  

     reciprocal axes: (cart. coord. in units 2 pi/alat)
               b(1) = (  1.000000  0.000000  0.000000 )  
               b(2) = (  0.000000  1.000000  0.000000 )  
               b(3) = (  0.000000  0.000000  1.000000 )  


     PseudoPot. # 1 for Si read from file:
     /home/ppiaggi/pseudos/Si_ONCV_PBE_sr.upf
     MD5 check sum: 8553c464762ac42b85b1eed164b4d029
     Pseudo is Norm-conserving, Zval =  4.0
     Generated using ONCVPSP code by D. R. Hamann
     Using radial grid of 1510 points,  4 beta functions with: 
                l(1) =   0
                l(2) =   0
                l(3) =   1
                l(4) =   1

     atomic species   valence    mass     pseudopotential
        Si             4.00    28.08500     Si( 1.00)

     No symmetry found



   Cartesian axes

     site n.     atom                  positions (alat units)
         1           Si  tau(   1) = (   0.5656350   0.6223430   0.7087640  )
         2           Si  tau(   2) = (   0.5632740   0.2922700   0.2001780  )
         3           Si  tau(   3) = (   0.5587860   0.8450540   0.8092190  )
         4           Si  tau(   4) = (   0.3096510   0.0900501   0.4774050  )
         5           Si  tau(   5) = (   0.8547340   0.2003860   0.0579707  )
         6           Si  tau(   6) = (   0.2661460   0.7085020   0.6640400  )
         7           Si  tau(   7) = (   0.3457450   0.8943040   0.6995520  )
         8           Si  tau(   8) = (   0.8920660   0.5661950   0.8635850  )
         9           Si  tau(   9) = (   0.7030140   0.5539240   0.0371509  )
        10           Si  tau(  10) = (   0.6844490   0.3128380   0.7113540  )
        11           Si  tau(  11) = (   0.4290040   0.3089970   0.4231640  )
        12           Si  tau(  12) = (   0.6550630   0.9869370   0.5772670  )
        13           Si  tau(  13) = (   0.3127250   0.7528030   0.2736360  )
        14           Si  tau(  14) = (   0.5098640   0.8524590   0.2173120  )
        15           Si  tau(  15) = (   0.3516350   0.6242390   0.8958690  )
        16           Si  tau(  16) = (   0.7357700   0.7678410   0.4930010  )
        17           Si  tau(  17) = (   0.3488400   0.9471960   0.0388747  )
        18           Si  tau(  18) = (   0.5786420   0.6226730   0.3713290  )
        19           Si  tau(  19) = (   0.4473750   0.4191840   0.7627220  )
        20           Si  tau(  20) = (   0.0932774   0.0044105   0.3660610  )
        21           Si  tau(  21) = (   0.2086040   0.8262760   0.9138630  )
        22           Si  tau(  22) = (   0.6268420   0.3599060   0.9484690  )
        23           Si  tau(  23) = (   0.1611990   0.4740950   0.2041730  )
        24           Si  tau(  24) = (   0.9518860   0.6124530   0.3991250  )
        25           Si  tau(  25) = (   0.1427430   0.8656700   0.1901020  )
        26           Si  tau(  26) = (   0.1457340   0.7889840   0.4876830  )
        27           Si  tau(  27) = (   0.1570360   0.2459780   0.1300710  )
        28           Si  tau(  28) = (   0.8063610   0.3945030   0.1975310  )
        29           Si  tau(  29) = (   0.5171840   0.6940800   0.0257188  )
        30           Si  tau(  30) = (   0.4412170   0.6801290   0.5310600  )
        31           Si  tau(  31) = (   0.7419320   0.4552100   0.4289670  )
        32           Si  tau(  32) = (   0.9250930   0.3114000   0.4673090  )
        33           Si  tau(  33) = (   0.2681740   0.3478780   0.6413300  )
        34           Si  tau(  34) = (   0.9536570   0.7709790   0.9735840  )
        35           Si  tau(  35) = (   0.6433190   0.2729880   0.5036860  )
        36           Si  tau(  36) = (   0.9324170   0.2161340   0.8365240  )
        37           Si  tau(  37) = (   0.0456794   0.0047020   0.6047130  )
        38           Si  tau(  38) = (   0.1123890   0.4844340   0.4792400  )
        39           Si  tau(  39) = (   0.4218460   0.1036870   0.8585270  )
        40           Si  tau(  40) = (   0.9873480   0.1758040   0.2935190  )
        41           Si  tau(  41) = (   0.0085275   0.6370150   0.1713460  )
        42           Si  tau(  42) = (   0.3135570   0.5045720   0.3975810  )
        43           Si  tau(  43) = (   0.5561200   0.0654010   0.2256980  )
        44           Si  tau(  44) = (   0.2408590   0.1150250   0.7083540  )
        45           Si  tau(  45) = (   0.3263150   0.1162940   0.2380060  )
        46           Si  tau(  46) = (   0.0630699   0.5725090   0.6807460  )
        47           Si  tau(  47) = (   0.7618100   0.5425860   0.6686890  )
        48           Si  tau(  48) = (   0.1004150   0.3946200   0.8243800  )
        49           Si  tau(  49) = (   0.4468790   0.9102490   0.4490000  )
        50           Si  tau(  50) = (   0.9599630   0.9864270   0.0678014  )
        51           Si  tau(  51) = (   0.7380240   0.0955324   0.3685560  )
        52           Si  tau(  52) = (   0.2798670   0.4339000   0.9901690  )
        53           Si  tau(  53) = (   0.8354350   0.8707140   0.7850270  )
        54           Si  tau(  54) = (   0.4874850   0.5201650   0.2135470  )
        55           Si  tau(  55) = (   0.7206330   0.8387670   0.0175753  )
        56           Si  tau(  56) = (   0.8847570   0.1463390   0.6262560  )
        57           Si  tau(  57) = (   0.9718630   0.4204410   0.0265276  )
        58           Si  tau(  58) = (   0.6749410   0.0569386   0.0173675  )
        59           Si  tau(  59) = (   0.8417490   0.9155190   0.2899290  )
        60           Si  tau(  60) = (   0.7661950   0.7050030   0.2252040  )
        61           Si  tau(  61) = (   0.6654480   0.0973647   0.7893160  )
        62           Si  tau(  62) = (   0.0620716   0.0078212   0.8559350  )
        63           Si  tau(  63) = (   0.4017560   0.2745340   0.0086813  )
        64           Si  tau(  64) = (   0.9281340   0.7732870   0.6085540  )

     number of k points=     1  Fermi-Dirac smearing, width (Ry)=  0.0100
                       cart. coord. in units 2pi/alat
        k(    1) = (   0.0000000   0.0000000   0.0000000), wk =   2.0000000

     Dense  grid:    90834 G-vectors     FFT dimensions: (  72,  72,  72)

     Estimated max dynamical RAM per process >     145.81 MB

     Estimated total dynamical RAM >     561.08 MB

     Initial potential from superposition of free atoms

     starting charge     255.9608, renormalised to     256.0000
     Starting wfcs are  256 randomized atomic wfcs

     total cpu time spent up to now is        4.5 secs

     Self-consistent Calculation

     iteration #  1     ecut=    30.00 Ry     beta= 0.50
     Davidson diagonalization with overlap
     ethr =  1.00E-02,  avg # of iterations =  3.0

     Threshold (ethr) on eigenvalues was too large:
     Diagonalizing with lowered threshold

     Davidson diagonalization with overlap
     ethr =  3.18E-04,  avg # of iterations =  4.0

     total cpu time spent up to now is        4.7 secs

     total energy              =    -501.29469259 Ry
     estimated scf accuracy    <       0.98270988 Ry

     iteration #  2     ecut=    30.00 Ry     beta= 0.50
     Davidson diagonalization with overlap
     ethr =  3.84E-04,  avg # of iterations =  3.0

     total cpu time spent up to now is        4.9 secs

     total energy              =    -501.09267233 Ry
     estimated scf accuracy    <       1.71728443 Ry

     iteration #  3     ecut=    30.00 Ry     beta= 0.50
     Davidson diagonalization with overlap
     ethr =  3.84E-04,  avg # of iterations =  3.0

     total cpu time spent up to now is        5.0 secs

     total energy              =    -501.19105649 Ry
     estimated scf accuracy    <       2.88305162 Ry

     iteration #  4     ecut=    30.00 Ry     beta= 0.50
     Davidson diagonalization with overlap
     ethr =  3.84E-04,  avg # of iterations =  2.0

     total cpu time spent up to now is        5.0 secs

     total energy              =    -501.38547511 Ry
     estimated scf accuracy    <       0.41628808 Ry

     iteration #  5     ecut=    30.00 Ry     beta= 0.50
     Davidson diagonalization with overlap
     ethr =  1.63E-04,  avg # of iterations =  2.0

     total cpu time spent up to now is        5.1 secs

     total energy              =    -501.40916283 Ry
     estimated scf accuracy    <       0.32350788 Ry

     iteration #  6     ecut=    30.00 Ry     beta= 0.50
     Davidson diagonalization with overlap
     ethr =  1.26E-04,  avg # of iterations =  2.0

     total cpu time spent up to now is        5.2 secs

     total energy              =    -501.43657803 Ry
     estimated scf accuracy    <       0.10793039 Ry

     iteration #  7     ecut=    30.00 Ry     beta= 0.50
     Davidson diagonalization with overlap
     ethr =  4.22E-05,  avg # of iterations =  2.0

     total cpu time spent up to now is        5.3 secs

     total energy              =    -501.44716530 Ry
     estimated scf accuracy    <       0.00975513 Ry

     iteration #  8     ecut=    30.00 Ry     beta= 0.50
     Davidson diagonalization with overlap
     ethr =  3.81E-06,  avg # of iterations = 11.0

     total cpu time spent up to now is        5.4 secs

     total energy              =    -501.44828700 Ry
     estimated scf accuracy    <       0.00688778 Ry

     iteration #  9     ecut=    30.00 Ry     beta= 0.50
     Davidson diagonalization with overlap
     ethr =  2.69E-06,  avg # of iterations =  2.0

     total cpu time spent up to now is        5.5 secs

     total energy              =    -501.44900545 Ry
     estimated scf accuracy    <       0.00464689 Ry

     iteration # 10     ecut=    30.00 Ry     beta= 0.50
     Davidson diagonalization with overlap
     ethr =  1.82E-06,  avg # of iterations =  2.0

     total cpu time spent up to now is        5.6 secs

     total energy              =    -501.44934219 Ry
     estimated scf accuracy    <       0.00060175 Ry

     iteration # 11     ecut=    30.00 Ry     beta= 0.50
     Davidson diagonalization with overlap
     ethr =  2.35E-07,  avg # of iterations =  2.0

     total cpu time spent up to now is        5.7 secs

     total energy              =    -501.44940035 Ry
     estimated scf accuracy    <       0.00037317 Ry

     iteration # 12     ecut=    30.00 Ry     beta= 0.50
     Davidson diagonalization with overlap
     ethr =  1.46E-07,  avg # of iterations =  2.0

     total cpu time spent up to now is        5.8 secs

     total energy              =    -501.44942875 Ry
     estimated scf accuracy    <       0.00029213 Ry

     iteration # 13     ecut=    30.00 Ry     beta= 0.50
     Davidson diagonalization with overlap
     ethr =  1.14E-07,  avg # of iterations =  2.0

     total cpu time spent up to now is        5.9 secs

     total energy              =    -501.44944812 Ry
     estimated scf accuracy    <       0.00018277 Ry

     iteration # 14     ecut=    30.00 Ry     beta= 0.50
     Davidson diagonalization with overlap
     ethr =  7.14E-08,  avg # of iterations =  1.0

     total cpu time spent up to now is        6.0 secs

     total energy              =    -501.44945987 Ry
     estimated scf accuracy    <       0.00001074 Ry

     iteration # 15     ecut=    30.00 Ry     beta= 0.50
     Davidson diagonalization with overlap
     ethr =  4.20E-09,  avg # of iterations =  4.0

     total cpu time spent up to now is        6.1 secs

     total energy              =    -501.44946054 Ry
     estimated scf accuracy    <       0.00001708 Ry

     iteration # 16     ecut=    30.00 Ry     beta= 0.50
     Davidson diagonalization with overlap
     ethr =  4.20E-09,  avg # of iterations =  3.0

     total cpu time spent up to now is        6.2 secs

     total energy              =    -501.44946177 Ry
     estimated scf accuracy    <       0.00001671 Ry

     iteration # 17     ecut=    30.00 Ry     beta= 0.50
     Davidson diagonalization with overlap
     ethr =  4.20E-09,  avg # of iterations =  2.0

     total cpu time spent up to now is        6.3 secs

     total energy              =    -501.44946276 Ry
     estimated scf accuracy    <       0.00000161 Ry

     iteration # 18     ecut=    30.00 Ry     beta= 0.50
     Davidson diagonalization with overlap
     ethr =  6.29E-10,  avg # of iterations =  3.0

     total cpu time spent up to now is        6.3 secs

     total energy              =    -501.44946290 Ry
     estimated scf accuracy    <       0.00000224 Ry

     iteration # 19     ecut=    30.00 Ry     beta= 0.50
     Davidson diagonalization with overlap
     ethr =  6.29E-10,  avg # of iterations =  2.0

     total cpu time spent up to now is        6.4 secs

     End of self-consistent calculation

          k = 0.0000 0.0000 0.0000 ( 11372 PWs)   bands (ev):

    -5.3499  -4.4165  -4.2693  -4.2379  -4.1069  -4.0884  -3.9880  -3.3546
    -3.2590  -3.1989  -3.1223  -3.0710  -3.0294  -2.9437  -2.8597  -2.8066
    -2.7598  -2.5945  -2.4817  -2.1712  -2.1221  -1.9243  -1.8495  -1.7453
    -1.6018  -1.3925  -1.2249  -0.9288  -0.7914  -0.7437  -0.5357  -0.4337
    -0.2805  -0.1407  -0.1012  -0.0342   0.0341   0.1607   0.2244   0.2473
     0.3637   0.4085   0.4598   0.5306   0.6511   0.6786   0.7775   0.8879
     0.8962   0.9582   1.1208   1.2280   1.2884   1.4482   1.5360   1.5448
     1.6615   1.7349   1.9019   1.9710   2.1065   2.2055   2.2968   2.4182
     2.5838   2.6193   2.7712   2.8073   2.8837   2.9182   2.9988   3.1017
     3.1147   3.1432   3.1977   3.2314   3.2987   3.4248   3.4743   3.7438
     3.8282   4.0248   4.1107   4.2934   4.3818   4.4408   4.4905   4.5872
     4.6868   4.7488   4.8681   4.9444   4.9811   5.0303   5.1353   5.1848
     5.2269   5.3141   5.3532   5.3851   5.4219   5.5012   5.6188   5.7427
     5.7655   5.8026   5.8931   5.9259   6.0216   6.0390   6.0805   6.0890
     6.1876   6.2209   6.2632   6.3128   6.3228   6.4103   6.4844   6.5296
     6.6357   6.6871   6.7564   6.7883   6.8360   6.8673   6.9174   6.9473
     6.9904   7.0846   7.1656   7.2098   7.2950   7.3180   7.4727   7.5026
     7.5310   7.6695   7.6893   7.7287   7.8396   7.9407   7.9904   8.0381
     8.0592   8.1021   8.1947   8.2189   8.3135   8.3342   8.4426   8.5076
     8.5506   8.6445

     the Fermi energy is     7.0152 ev

!    total energy              =    -501.44946296 Ry
     estimated scf accuracy    <       0.00000011 Ry
     smearing contrib. (-TS)   =      -0.15572721 Ry
     internal energy E=F+TS    =    -501.29373575 Ry

     The total energy is F=E-TS. E is the sum of the following terms:
     one-electron contribution =     189.34027603 Ry
     hartree contribution      =      22.98046526 Ry
     xc contribution           =    -150.50509393 Ry
     ewald contribution        =    -563.10938311 Ry

     convergence has been achieved in  19 iterations

     Forces acting on atoms (cartesian axes, Ry/au):

     atom    1 type  1   force =    -0.03980613    0.02144564    0.00288115
     atom    2 type  1   force =    -0.01911122    0.02862050    0.00297061
     atom    3 type  1   force =     0.00099345   -0.01518621   -0.01242847
     atom    4 type  1   force =    -0.02240622    0.00605560   -0.02196967
     atom    5 type  1   force =    -0.00790496   -0.00968062    0.00036153
     atom    6 type  1   force =    -0.05630419   -0.08010326    0.00548194
     atom    7 type  1   force =     0.03571456    0.06651206    0.02208655
     atom    8 type  1   force =    -0.01741551    0.01400830    0.02238481
     atom    9 type  1   force =     0.02445904    0.00618090    0.00428253
     atom   10 type  1   force =    -0.01120199    0.02186466    0.05903098
     atom   11 type  1   force =    -0.00819769   -0.03280857   -0.00366996
     atom   12 type  1   force =    -0.00121732   -0.02605828   -0.00860084
     atom   13 type  1   force =     0.01393202   -0.02254097    0.04222327
     atom   14 type  1   force =    -0.02563847   -0.04608692   -0.02288757
     atom   15 type  1   force =    -0.01096998    0.00713596   -0.02589190
     atom   16 type  1   force =     0.01328548    0.02033001   -0.01392983
     atom   17 type  1   force =     0.00358160    0.02493695    0.02832320
     atom   18 type  1   force =     0.08003189    0.02455381    0.01809607
     atom   19 type  1   force =     0.04874142    0.01712396    0.02415846
     atom   20 type  1   force =     0.03783231   -0.04190856    0.03879636
     atom   21 type  1   force =    -0.01621019   -0.00636988   -0.00364370
     atom   22 type  1   force =    -0.03516657   -0.00996653   -0.02265198
     atom   23 type  1   force =     0.02585629   -0.01751125   -0.02383000
     atom   24 type  1   force =    -0.02130399    0.02234964   -0.01893314
     atom   25 type  1   force =    -0.02793581    0.00728850   -0.01454819
     atom   26 type  1   force =    -0.02354964    0.01429539   -0.00990562
     atom   27 type  1   force =    -0.01696200    0.01517595    0.02661334
     atom   28 type  1   force =    -0.02554006   -0.00247445   -0.01401669
     atom   29 type  1   force =     0.02135334    0.00355142    0.02501456
     atom   30 type  1   force =    -0.01659438   -0.00328484    0.01309456
     atom   31 type  1   force =     0.04426787    0.02203310   -0.00467743
     atom   32 type  1   force =     0.01713222    0.00221471   -0.01374340
     atom   33 type  1   force =    -0.00934220   -0.03010429    0.00522462
     atom   34 type  1   force =     0.00567162   -0.01757606   -0.01191233
     atom   35 type  1   force =    -0.01879297   -0.03138347   -0.04271888
     atom   36 type  1   force =     0.03306933   -0.00124632    0.00142200
     atom   37 type  1   force =     0.03199957   -0.04447081   -0.00211768
     atom   38 type  1   force =    -0.02578553   -0.03398743    0.03216302
     atom   39 type  1   force =     0.00748808   -0.00545158    0.03439275
     atom   40 type  1   force =    -0.01987073    0.05829640   -0.03351217
     atom   41 type  1   force =     0.00172261    0.02515706    0.00375921
     atom   42 type  1   force =     0.01505008    0.02575201   -0.03970044
     atom   43 type  1   force =     0.02083935    0.03520919   -0.00753877
     atom   44 type  1   force =    -0.00793242   -0.00758175   -0.00598280
     atom   45 type  1   force =    -0.01265889    0.01073782   -0.02183283
     atom   46 type  1   force =     0.01562656    0.03783200   -0.00259516
     atom   47 type  1   force =     0.01965345   -0.02036017    0.00198653
     atom   48 type  1   force =     0.00987720   -0.01390102    0.01105772
     atom   49 type  1   force =     0.01970867   -0.00386355    0.02646605
     atom   50 type  1   force =    -0.01160758   -0.00908154    0.02335548
     atom   51 type  1   force =    -0.02614260    0.02025393    0.02732469
     atom   52 type  1   force =    -0.09194717    0.07398568   -0.01058655
     atom   53 type  1   force =     0.00392140    0.02397302    0.00970862
     atom   54 type  1   force =    -0.03876521   -0.03576262   -0.05947014
     atom   55 type  1   force =     0.00729964   -0.02432503   -0.01170631
     atom   56 type  1   force =    -0.04562461    0.02462075   -0.01270460
     atom   57 type  1   force =     0.00995222    0.00999538    0.01415804
     atom   58 type  1   force =     0.01543977    0.01465642   -0.00399025
     atom   59 type  1   force =     0.03047887   -0.01314650   -0.00042750
     atom   60 type  1   force =    -0.00224233    0.00374892   -0.00175667
     atom   61 type  1   force =    -0.01529224   -0.00994989    0.00134566
     atom   62 type  1   force =    -0.00502131    0.00772412   -0.01747162
     atom   63 type  1   force =     0.08464834   -0.07572664    0.00506919
     atom   64 type  1   force =     0.03483387   -0.02572072   -0.01188044

     Total force =     0.372045     Total SCF correction =     0.000672


     Computing stress (Cartesian axis) and pressure

          total   stress  (Ry/bohr**3)                   (kbar)     P=      -38.65
  -0.00029836  -0.00004480   0.00003369          -43.89       -6.59        4.96
  -0.00004480  -0.00019620   0.00000813           -6.59      -28.86        1.20
   0.00003369   0.00000813  -0.00029359            4.96        1.20      -43.19

 
     init_run     :      0.97s CPU      4.47s WALL (       1 calls)
     electrons    :      1.67s CPU      1.89s WALL (       1 calls)
     forces       :      0.03s CPU      0.03s WALL (       1 calls)
     stress       :      0.14s CPU      0.14s WALL (       1 calls)

     Called by init_run:
     wfcinit      :      0.46s CPU      3.79s WALL (       1 calls)
                                        3.79s GPU  (       1 calls)
     potinit      :      0.04s CPU      0.15s WALL (       1 calls)
     hinit0       :      0.45s CPU      0.47s WALL (       1 calls)

     Called by electrons:
     c_bands      :      1.06s CPU      1.21s WALL (      20 calls)
     sum_band     :      0.32s CPU      0.37s WALL (      20 calls)
     v_of_rho     :      0.13s CPU      0.25s WALL (      20 calls)
     mix_rho      :      0.14s CPU      0.15s WALL (      20 calls)

     Called by c_bands:
     init_us_2    :      0.05s CPU      0.06s WALL (      41 calls)
     init_us_2:gp :      0.05s CPU      0.05s WALL (      41 calls)
     regterg      :      0.90s CPU      1.04s WALL (      20 calls)

     Called by *egterg:
     rdiaghg      :      0.37s CPU      1.02s WALL (      76 calls)
                                        1.01s GPU  (      76 calls)
     h_psi        :      0.85s CPU      3.59s WALL (      78 calls)
                                        3.59s GPU  (      78 calls)
     g_psi        :      0.00s CPU      0.00s WALL (      57 calls)
                                        0.00s GPU  (      57 calls)

     Called by h_psi:
     h_psi:calbec :      0.45s CPU      3.12s WALL (      78 calls)
                                        3.12s GPU  (      78 calls)
     vloc_psi     :      0.35s CPU      0.41s WALL (      78 calls)
                                        0.41s GPU  (      78 calls)
     add_vuspsi   :      0.03s CPU      0.04s WALL (      78 calls)
                                        0.04s GPU  (      78 calls)

     General routines
     calbec       :      0.45s CPU      3.13s WALL (      83 calls)
     fft          :      0.55s CPU      0.68s WALL (     167 calls)
                                        0.14s GPU  (     106 calls)
     ffts         :      0.03s CPU      0.03s WALL (      20 calls)
     fftw         :      0.44s CPU      0.57s WALL (    2078 calls)
                                        0.50s GPU  (    2078 calls)
 
     Parallel routines
 
     PWSCF        :      2.84s CPU      6.60s WALL

 
   This run was terminated on:  10:50:56  10May2023            

=------------------------------------------------------------------------------=
   JOB DONE.
=------------------------------------------------------------------------------=
