An instance of this daemon is already running
An instance of this daemon is already running

     Program PWSCF v.7.1 starts on 10May2023 at 10:41: 5 

     This program is part of the open-source Quantum ESPRESSO suite
     for quantum simulation of materials; please cite
         "P. Giannozzi et al., J. Phys.:Condens. Matter 21 395502 (2009);
         "P. Giannozzi et al., J. Phys.:Condens. Matter 29 465901 (2017);
         "P. Giannozzi et al., J. Chem. Phys. 152 154105 (2020);
          URL http://www.quantum-espresso.org", 
     in publications or presentations arising from this work. More details at
     http://www.quantum-espresso.org/quote

     Parallel version (MPI & OpenMP), running on       4 processor cores
     Number of MPI processes:                 4
     Threads/MPI process:                     1

     MPI processes distributed on     1 nodes
     153225 MiB available memory on the printing compute node when the environment starts
 
     Reading input from pw-si-3.in
Warning: card &CELL ignored
Warning: card / ignored

     Current dimensions of program PWSCF are:
     Max number of different atomic species (ntypx) = 10
     Max number of k-points (npk) =  40000
     Max angular momentum in pseudopotentials (lmaxx) =  4

     IMPORTANT: XC functional enforced from input :
     Exchange-correlation= PBE
                           (   1   4   3   4   0   0   0)
     Any further DFT definition will be discarded
     Please, verify this is what you really want


     gamma-point specific algorithms are used
 
     K-points division:     npool     =       2
     R & G space division:  proc/nbgrp/npool/nimage =       2
     Subspace diagonalization in iterative solution of the eigenvalue problem:
     a serial algorithm will be used

     Message from routine divide_et_impera:
     suboptimal parallelization: some nodes have no k-points
 
     Parallelization info
     --------------------
     sticks:   dense  smooth     PW     G-vecs:    dense   smooth      PW
     Min        1945    1945    516                91383    91383   12416
     Max        1948    1948    517                91388    91388   12421
     Sum        3893    3893   1033               182771   182771   24837
 
     Using Slab Decomposition
 


     bravais-lattice index     =            0
     lattice parameter (alat)  =      20.1971  a.u.
     unit-cell volume          =    8238.9125 (a.u.)^3
     number of atoms/cell      =           64
     number of atomic types    =            1
     number of electrons       =       256.00
     number of Kohn-Sham states=          154
     kinetic-energy cutoff     =      30.0000  Ry
     charge density cutoff     =     120.0000  Ry
     scf convergence threshold =      1.0E-06
     mixing beta               =       0.5000
     number of iterations used =            8  plain     mixing
     Exchange-correlation= PBE
                           (   1   4   3   4   0   0   0)

     GPU acceleration is ACTIVE.
     GPU-aware MPI enabled

     Message from routine print_cuda_info:
     High GPU oversubscription detected. Are you sure this is what you want?

     celldm(1)=  20.197144  celldm(2)=   0.000000  celldm(3)=   0.000000
     celldm(4)=   0.000000  celldm(5)=   0.000000  celldm(6)=   0.000000

     crystal axes: (cart. coord. in units of alat)
               a(1) = (   1.000000   0.000000   0.000000 )  
               a(2) = (   0.000000   1.000000   0.000000 )  
               a(3) = (   0.000000   0.000000   1.000000 )  

     reciprocal axes: (cart. coord. in units 2 pi/alat)
               b(1) = (  1.000000  0.000000  0.000000 )  
               b(2) = (  0.000000  1.000000  0.000000 )  
               b(3) = (  0.000000  0.000000  1.000000 )  


     PseudoPot. # 1 for Si read from file:
     /home/ppiaggi/pseudos/Si_ONCV_PBE_sr.upf
     MD5 check sum: 8553c464762ac42b85b1eed164b4d029
     Pseudo is Norm-conserving, Zval =  4.0
     Generated using ONCVPSP code by D. R. Hamann
     Using radial grid of 1510 points,  4 beta functions with: 
                l(1) =   0
                l(2) =   0
                l(3) =   1
                l(4) =   1

     atomic species   valence    mass     pseudopotential
        Si             4.00    28.08500     Si( 1.00)

     No symmetry found



   Cartesian axes

     site n.     atom                  positions (alat units)
         1           Si  tau(   1) = (   0.2627230   0.9842840   0.6485060  )
         2           Si  tau(   2) = (   0.9975120   0.3587070   0.0827856  )
         3           Si  tau(   3) = (   0.5542540   0.0778845   0.9796410  )
         4           Si  tau(   4) = (   0.0183582   0.7381670   0.0770861  )
         5           Si  tau(   5) = (   0.3749070   0.9615460   0.4244210  )
         6           Si  tau(   6) = (   0.8011530   0.6494050   0.1998650  )
         7           Si  tau(   7) = (   0.7220520   0.4238070   0.2858050  )
         8           Si  tau(   8) = (   0.0033268   0.9242750   0.9205090  )
         9           Si  tau(   9) = (   0.6683870   0.3545050   0.8296190  )
        10           Si  tau(  10) = (   0.8370790   0.4655050   0.6967470  )
        11           Si  tau(  11) = (   0.4890750   0.2229320   0.7679820  )
        12           Si  tau(  12) = (   0.0056143   0.2947830   0.8217210  )
        13           Si  tau(  13) = (   0.8402640   0.1907210   0.3895850  )
        14           Si  tau(  14) = (   0.0218368   0.6099470   0.3637110  )
        15           Si  tau(  15) = (   0.0986538   0.9285040   0.4986510  )
        16           Si  tau(  16) = (   0.2772500   0.8096160   0.7851290  )
        17           Si  tau(  17) = (   0.3874140   0.4485350   0.5837260  )
        18           Si  tau(  18) = (   0.0745055   0.3858610   0.5961480  )
        19           Si  tau(  19) = (   0.0655247   0.6257210   0.6063070  )
        20           Si  tau(  20) = (   0.7130240   0.4556830   0.0361680  )
        21           Si  tau(  21) = (   0.2431650   0.7287910   0.4094780  )
        22           Si  tau(  22) = (   0.7311500   0.8665770   0.3949670  )
        23           Si  tau(  23) = (   0.1581020   0.3151400   0.3904750  )
        24           Si  tau(  24) = (   0.4910530   0.5145490   0.7911990  )
        25           Si  tau(  25) = (   0.5547350   0.7158420   0.6541890  )
        26           Si  tau(  26) = (   0.7941320   0.6372430   0.4700430  )
        27           Si  tau(  27) = (   0.2519100   0.3244760   0.7873290  )
        28           Si  tau(  28) = (   0.1587990   0.1001360   0.8180760  )
        29           Si  tau(  29) = (   0.9437580   0.1478830   0.0426306  )
        30           Si  tau(  30) = (   0.4885080   0.1005750   0.5883510  )
        31           Si  tau(  31) = (   0.5411720   0.5695340   0.3112740  )
        32           Si  tau(  32) = (   0.1278830   0.5821320   0.8339490  )
        33           Si  tau(  33) = (   0.8244070   0.1737780   0.7248260  )
        34           Si  tau(  34) = (   0.6955670   0.9599000   0.1699560  )
        35           Si  tau(  35) = (   0.3944060   0.3707480   0.3707960  )
        36           Si  tau(  36) = (   0.2180840   0.5254470   0.2471830  )
        37           Si  tau(  37) = (   0.9265060   0.5574240   0.9485980  )
        38           Si  tau(  38) = (   0.1743670   0.0435972   0.0879726  )
        39           Si  tau(  39) = (   0.2008040   0.3917410   0.0596241  )
        40           Si  tau(  40) = (   0.2433390   0.8022630   0.0576543  )
        41           Si  tau(  41) = (   0.1600120   0.0893573   0.3120040  )
        42           Si  tau(  42) = (   0.5697600   0.6451900   0.9801990  )
        43           Si  tau(  43) = (   0.5329010   0.7651690   0.4492100  )
        44           Si  tau(  44) = (   0.7737260   0.0066064   0.8823450  )
        45           Si  tau(  45) = (   0.3011230   0.5302400   0.9070730  )
        46           Si  tau(  46) = (   0.4777680   0.8506420   0.2129450  )
        47           Si  tau(  47) = (   0.7256240   0.2368530   0.1353840  )
        48           Si  tau(  48) = (   0.6777620   0.2360040   0.5423430  )
        49           Si  tau(  49) = (   0.2988300   0.6633270   0.6087200  )
        50           Si  tau(  50) = (   0.5483620   0.2290660   0.3334880  )
        51           Si  tau(  51) = (   0.9999280   0.1149180   0.5873860  )
        52           Si  tau(  52) = (   0.9569070   0.4058570   0.3059710  )
        53           Si  tau(  53) = (   0.6122000   0.9251540   0.6971570  )
        54           Si  tau(  54) = (   0.5075800   0.8783170   0.8907960  )
        55           Si  tau(  55) = (   0.7667420   0.6904740   0.7649480  )
        56           Si  tau(  56) = (   0.3876680   0.6571440   0.1006880  )
        57           Si  tau(  57) = (   0.9104210   0.0615415   0.2428250  )
        58           Si  tau(  58) = (   0.7988340   0.9533980   0.5868630  )
        59           Si  tau(  59) = (   0.6419880   0.4670700   0.5115050  )
        60           Si  tau(  60) = (   0.9711320   0.8339440   0.2931380  )
        61           Si  tau(  61) = (   0.9419750   0.8135970   0.7038790  )
        62           Si  tau(  62) = (   0.4074380   0.0681440   0.2130150  )
        63           Si  tau(  63) = (   0.3420180   0.2135610   0.0098467  )
        64           Si  tau(  64) = (   0.7467660   0.7851770   0.9934860  )

     number of k points=     1  Fermi-Dirac smearing, width (Ry)=  0.0100
                       cart. coord. in units 2pi/alat
        k(    1) = (   0.0000000   0.0000000   0.0000000), wk =   2.0000000

     Dense  grid:    91386 G-vectors     FFT dimensions: (  72,  72,  72)

     Estimated max dynamical RAM per process >     146.63 MB

     Estimated total dynamical RAM >     564.22 MB

     Initial potential from superposition of free atoms

     starting charge     255.9608, renormalised to     256.0000
     Starting wfcs are  256 randomized atomic wfcs

     total cpu time spent up to now is        4.4 secs

     Self-consistent Calculation

     iteration #  1     ecut=    30.00 Ry     beta= 0.50
     Davidson diagonalization with overlap
     ethr =  1.00E-02,  avg # of iterations =  3.0

     Threshold (ethr) on eigenvalues was too large:
     Diagonalizing with lowered threshold

     Davidson diagonalization with overlap
     ethr =  3.79E-04,  avg # of iterations =  4.0

     total cpu time spent up to now is        4.6 secs

     total energy              =    -501.17353218 Ry
     estimated scf accuracy    <       1.17211671 Ry

     iteration #  2     ecut=    30.00 Ry     beta= 0.50
     Davidson diagonalization with overlap
     ethr =  4.58E-04,  avg # of iterations =  5.0

     total cpu time spent up to now is        4.7 secs

     total energy              =    -500.84253697 Ry
     estimated scf accuracy    <       3.83565897 Ry

     iteration #  3     ecut=    30.00 Ry     beta= 0.50
     Davidson diagonalization with overlap
     ethr =  4.58E-04,  avg # of iterations =  4.0

     total cpu time spent up to now is        4.8 secs

     total energy              =    -501.19586312 Ry
     estimated scf accuracy    <       2.37331376 Ry

     iteration #  4     ecut=    30.00 Ry     beta= 0.50
     Davidson diagonalization with overlap
     ethr =  4.58E-04,  avg # of iterations =  2.0

     total cpu time spent up to now is        4.8 secs

     total energy              =    -501.37316996 Ry
     estimated scf accuracy    <       0.49598003 Ry

     iteration #  5     ecut=    30.00 Ry     beta= 0.50
     Davidson diagonalization with overlap
     ethr =  1.94E-04,  avg # of iterations =  2.0

     total cpu time spent up to now is        4.9 secs

     total energy              =    -501.40636913 Ry
     estimated scf accuracy    <       0.17330343 Ry

     iteration #  6     ecut=    30.00 Ry     beta= 0.50
     Davidson diagonalization with overlap
     ethr =  6.77E-05,  avg # of iterations =  2.0

     total cpu time spent up to now is        5.0 secs

     total energy              =    -501.42253849 Ry
     estimated scf accuracy    <       0.18976188 Ry

     iteration #  7     ecut=    30.00 Ry     beta= 0.50
     Davidson diagonalization with overlap
     ethr =  6.77E-05,  avg # of iterations =  1.0

     total cpu time spent up to now is        5.1 secs

     total energy              =    -501.43662834 Ry
     estimated scf accuracy    <       0.01067928 Ry

     iteration #  8     ecut=    30.00 Ry     beta= 0.50
     Davidson diagonalization with overlap
     ethr =  4.17E-06,  avg # of iterations = 11.0

     total cpu time spent up to now is        5.2 secs

     total energy              =    -501.43804361 Ry
     estimated scf accuracy    <       0.01537202 Ry

     iteration #  9     ecut=    30.00 Ry     beta= 0.50
     Davidson diagonalization with overlap
     ethr =  4.17E-06,  avg # of iterations =  2.0

     total cpu time spent up to now is        5.3 secs

     total energy              =    -501.43936357 Ry
     estimated scf accuracy    <       0.00433959 Ry

     iteration # 10     ecut=    30.00 Ry     beta= 0.50
     Davidson diagonalization with overlap
     ethr =  1.70E-06,  avg # of iterations =  2.0

     total cpu time spent up to now is        5.4 secs

     total energy              =    -501.43975115 Ry
     estimated scf accuracy    <       0.00056042 Ry

     iteration # 11     ecut=    30.00 Ry     beta= 0.50
     Davidson diagonalization with overlap
     ethr =  2.19E-07,  avg # of iterations =  3.0

     total cpu time spent up to now is        5.5 secs

     total energy              =    -501.43980128 Ry
     estimated scf accuracy    <       0.00016733 Ry

     iteration # 12     ecut=    30.00 Ry     beta= 0.50
     Davidson diagonalization with overlap
     ethr =  6.54E-08,  avg # of iterations =  5.0

     total cpu time spent up to now is        5.6 secs

     total energy              =    -501.43980231 Ry
     estimated scf accuracy    <       0.00060496 Ry

     iteration # 13     ecut=    30.00 Ry     beta= 0.50
     Davidson diagonalization with overlap
     ethr =  6.54E-08,  avg # of iterations =  3.0

     total cpu time spent up to now is        5.7 secs

     total energy              =    -501.43984255 Ry
     estimated scf accuracy    <       0.00003508 Ry

     iteration # 14     ecut=    30.00 Ry     beta= 0.50
     Davidson diagonalization with overlap
     ethr =  1.37E-08,  avg # of iterations =  3.0

     total cpu time spent up to now is        5.8 secs

     total energy              =    -501.43984564 Ry
     estimated scf accuracy    <       0.00002772 Ry

     iteration # 15     ecut=    30.00 Ry     beta= 0.50
     Davidson diagonalization with overlap
     ethr =  1.08E-08,  avg # of iterations =  2.0

     total cpu time spent up to now is        5.9 secs

     total energy              =    -501.43984685 Ry
     estimated scf accuracy    <       0.00000957 Ry

     iteration # 16     ecut=    30.00 Ry     beta= 0.50
     Davidson diagonalization with overlap
     ethr =  3.74E-09,  avg # of iterations =  3.0

     total cpu time spent up to now is        6.0 secs

     total energy              =    -501.43984815 Ry
     estimated scf accuracy    <       0.00000972 Ry

     iteration # 17     ecut=    30.00 Ry     beta= 0.50
     Davidson diagonalization with overlap
     ethr =  3.74E-09,  avg # of iterations =  1.0

     total cpu time spent up to now is        6.1 secs

     End of self-consistent calculation

          k = 0.0000 0.0000 0.0000 ( 11444 PWs)   bands (ev):

    -5.3804  -4.5069  -4.4350  -4.2543  -4.0742  -4.0698  -3.9324  -3.3778
    -3.3292  -3.2616  -3.1987  -3.0440  -3.0089  -2.9788  -2.8975  -2.8270
    -2.7233  -2.5755  -2.4219  -2.1219  -2.0497  -1.9177  -1.8842  -1.8058
    -1.6639  -1.6235  -1.3954  -0.9079  -0.8482  -0.7806  -0.6219  -0.5228
    -0.4427  -0.1384  -0.0893  -0.0462  -0.0120   0.0377   0.1539   0.2321
     0.3781   0.4270   0.4871   0.5267   0.5752   0.7292   0.8313   0.8582
     0.9974   1.0700   1.1418   1.1670   1.2581   1.3283   1.4377   1.5891
     1.6163   1.7286   1.8970   1.9406   1.9956   2.1603   2.2550   2.3388
     2.4537   2.5268   2.6180   2.7267   2.7802   2.8283   2.8831   3.0290
     3.0797   3.0937   3.1667   3.2007   3.3003   3.3996   3.5107   3.5855
     3.8680   4.0379   4.1201   4.2484   4.3421   4.4123   4.5174   4.5638
     4.6614   4.7019   4.7297   4.8513   4.9428   4.9883   5.0098   5.1553
     5.2254   5.2722   5.3182   5.3424   5.4484   5.4780   5.5333   5.6036
     5.6123   5.6940   5.7382   5.8428   5.9002   5.9468   5.9994   6.0519
     6.0869   6.1307   6.1577   6.2431   6.2899   6.3749   6.4344   6.4990
     6.5447   6.5871   6.6511   6.7178   6.8077   6.9148   6.9416   6.9698
     6.9939   7.0989   7.1891   7.2372   7.2994   7.3163   7.3395   7.4338
     7.5290   7.6336   7.6906   7.7844   7.7898   7.8716   7.9150   7.9451
     8.0193   8.0355   8.1838   8.1909   8.2611   8.3103   8.3867   8.4526
     8.5133   8.5809

     the Fermi energy is     7.0106 ev

!    total energy              =    -501.43984831 Ry
     estimated scf accuracy    <       0.00000057 Ry
     smearing contrib. (-TS)   =      -0.14791120 Ry
     internal energy E=F+TS    =    -501.29193711 Ry

     The total energy is F=E-TS. E is the sum of the following terms:
     one-electron contribution =     185.62580262 Ry
     hartree contribution      =      24.27009971 Ry
     xc contribution           =    -150.26074233 Ry
     ewald contribution        =    -560.92709712 Ry

     convergence has been achieved in  17 iterations

     Forces acting on atoms (cartesian axes, Ry/au):

     atom    1 type  1   force =     0.01775639    0.00135041    0.00251945
     atom    2 type  1   force =    -0.06746665    0.03092812   -0.00189941
     atom    3 type  1   force =     0.02226531    0.02146463    0.00588180
     atom    4 type  1   force =    -0.00432122    0.02521769    0.00645537
     atom    5 type  1   force =    -0.00152618   -0.00547606   -0.00240963
     atom    6 type  1   force =     0.01113307   -0.00435459   -0.00479987
     atom    7 type  1   force =     0.00090179    0.00785073   -0.00920458
     atom    8 type  1   force =    -0.01703808    0.01030236   -0.02847501
     atom    9 type  1   force =    -0.00475080    0.01387609   -0.00746109
     atom   10 type  1   force =    -0.00403381    0.01218299    0.00223305
     atom   11 type  1   force =    -0.01638429    0.01545186    0.05197981
     atom   12 type  1   force =     0.00405922   -0.00661665   -0.01664774
     atom   13 type  1   force =     0.01794200    0.05141202    0.05819887
     atom   14 type  1   force =    -0.01427427    0.03158465    0.01799672
     atom   15 type  1   force =     0.00527105   -0.00725377   -0.03458999
     atom   16 type  1   force =     0.02800318   -0.00253197    0.00827041
     atom   17 type  1   force =     0.01937323    0.00900921    0.01984480
     atom   18 type  1   force =    -0.00635334    0.00079187    0.02135838
     atom   19 type  1   force =     0.01416312   -0.00268061    0.00936358
     atom   20 type  1   force =     0.00694858    0.02670485   -0.00465910
     atom   21 type  1   force =    -0.01325008    0.01934780   -0.00970635
     atom   22 type  1   force =     0.01633375   -0.01902315   -0.03889316
     atom   23 type  1   force =     0.02034703   -0.01255341   -0.00276596
     atom   24 type  1   force =     0.02168739    0.02085914   -0.01188396
     atom   25 type  1   force =     0.01248461   -0.04867954    0.04839666
     atom   26 type  1   force =    -0.00396316   -0.00261999   -0.00799593
     atom   27 type  1   force =     0.02272396    0.00310504   -0.00475269
     atom   28 type  1   force =    -0.02260926    0.00791544    0.00639239
     atom   29 type  1   force =    -0.02194127   -0.01443161   -0.01530382
     atom   30 type  1   force =     0.00031821   -0.04057198   -0.01738356
     atom   31 type  1   force =    -0.00141603   -0.00540219    0.00884438
     atom   32 type  1   force =    -0.13140282    0.04770590   -0.07629095
     atom   33 type  1   force =    -0.02076409   -0.00018575    0.00216585
     atom   34 type  1   force =    -0.01720180   -0.03478997    0.01616074
     atom   35 type  1   force =    -0.05264192    0.06331415    0.02804178
     atom   36 type  1   force =     0.02047237   -0.00214047    0.00300904
     atom   37 type  1   force =    -0.00246892   -0.02654441    0.00622255
     atom   38 type  1   force =     0.02912321   -0.00662126   -0.01884352
     atom   39 type  1   force =     0.07841639    0.02399206   -0.00470677
     atom   40 type  1   force =    -0.06245186    0.06152558   -0.02560972
     atom   41 type  1   force =     0.01584111   -0.00538000    0.03158678
     atom   42 type  1   force =     0.01546366   -0.00450877   -0.02595385
     atom   43 type  1   force =    -0.01826262    0.01156301   -0.06463502
     atom   44 type  1   force =    -0.00112485    0.01595265    0.01610525
     atom   45 type  1   force =     0.09609486   -0.06674695    0.06175753
     atom   46 type  1   force =     0.00957671    0.02381205    0.00182637
     atom   47 type  1   force =    -0.00068246   -0.00088649    0.01294160
     atom   48 type  1   force =     0.00301835   -0.00231864   -0.00299096
     atom   49 type  1   force =     0.01101665   -0.01497724    0.01561318
     atom   50 type  1   force =     0.02089246   -0.04470928   -0.01572535
     atom   51 type  1   force =    -0.03367804    0.01431408   -0.02039245
     atom   52 type  1   force =    -0.00783321   -0.02842540   -0.01560397
     atom   53 type  1   force =    -0.02318290    0.02911562    0.01165143
     atom   54 type  1   force =    -0.00792941   -0.03378675   -0.00644619
     atom   55 type  1   force =     0.00299884   -0.02415646    0.01401992
     atom   56 type  1   force =     0.03365095   -0.03901934    0.05234633
     atom   57 type  1   force =     0.00240733   -0.05751177   -0.03772354
     atom   58 type  1   force =     0.05647085    0.00759193    0.00859160
     atom   59 type  1   force =    -0.01088489    0.00119713   -0.00254148
     atom   60 type  1   force =    -0.01097776   -0.01907439   -0.00755704
     atom   61 type  1   force =     0.00880748    0.00814392   -0.00667235
     atom   62 type  1   force =    -0.01541382    0.00513474    0.00451116
     atom   63 type  1   force =    -0.01933626   -0.04311551   -0.00150579
     atom   64 type  1   force =    -0.01039703    0.00437666   -0.00225599

     Total force =     0.379542     Total SCF correction =     0.001502


     Computing stress (Cartesian axis) and pressure

          total   stress  (Ry/bohr**3)                   (kbar)     P=      -43.18
  -0.00026620  -0.00005141  -0.00002947          -39.16       -7.56       -4.34
  -0.00005141  -0.00031555   0.00000688           -7.56      -46.42        1.01
  -0.00002947   0.00000688  -0.00029895           -4.34        1.01      -43.98

 
     init_run     :      0.97s CPU      4.31s WALL (       1 calls)
     electrons    :      1.53s CPU      1.70s WALL (       1 calls)
     forces       :      0.03s CPU      0.03s WALL (       1 calls)
     stress       :      0.14s CPU      0.14s WALL (       1 calls)

     Called by init_run:
     wfcinit      :      0.45s CPU      3.64s WALL (       1 calls)
                                        3.64s GPU  (       1 calls)
     potinit      :      0.04s CPU      0.13s WALL (       1 calls)
     hinit0       :      0.46s CPU      0.48s WALL (       1 calls)

     Called by electrons:
     c_bands      :      1.00s CPU      1.08s WALL (      18 calls)
     sum_band     :      0.27s CPU      0.33s WALL (      18 calls)
     v_of_rho     :      0.12s CPU      0.22s WALL (      18 calls)
     mix_rho      :      0.12s CPU      0.13s WALL (      18 calls)

     Called by c_bands:
     init_us_2    :      0.05s CPU      0.05s WALL (      37 calls)
     init_us_2:gp :      0.04s CPU      0.05s WALL (      37 calls)
     regterg      :      0.87s CPU      0.94s WALL (      18 calls)

     Called by *egterg:
     rdiaghg      :      0.38s CPU      1.00s WALL (      75 calls)
                                        0.99s GPU  (      75 calls)
     h_psi        :      0.80s CPU      3.39s WALL (      77 calls)
                                        3.39s GPU  (      77 calls)
     g_psi        :      0.00s CPU      0.00s WALL (      58 calls)
                                        0.00s GPU  (      58 calls)

     Called by h_psi:
     h_psi:calbec :      0.42s CPU      2.95s WALL (      77 calls)
                                        2.95s GPU  (      77 calls)
     vloc_psi     :      0.34s CPU      0.39s WALL (      77 calls)
                                        0.38s GPU  (      77 calls)
     add_vuspsi   :      0.03s CPU      0.04s WALL (      77 calls)
                                        0.04s GPU  (      77 calls)

     General routines
     calbec       :      0.43s CPU      2.96s WALL (      82 calls)
     fft          :      0.54s CPU      0.66s WALL (     151 calls)
                                        0.12s GPU  (      96 calls)
     ffts         :      0.02s CPU      0.03s WALL (      18 calls)
     fftw         :      0.40s CPU      0.52s WALL (    1890 calls)
                                        0.46s GPU  (    1890 calls)
 
     Parallel routines
 
     PWSCF        :      2.71s CPU      6.25s WALL

 
   This run was terminated on:  10:41:11  10May2023            

=------------------------------------------------------------------------------=
   JOB DONE.
=------------------------------------------------------------------------------=
