An instance of this daemon is already running
An instance of this daemon is already running

     Program PWSCF v.7.1 starts on 10May2023 at 10:40:46 

     This program is part of the open-source Quantum ESPRESSO suite
     for quantum simulation of materials; please cite
         "P. Giannozzi et al., J. Phys.:Condens. Matter 21 395502 (2009);
         "P. Giannozzi et al., J. Phys.:Condens. Matter 29 465901 (2017);
         "P. Giannozzi et al., J. Chem. Phys. 152 154105 (2020);
          URL http://www.quantum-espresso.org", 
     in publications or presentations arising from this work. More details at
     http://www.quantum-espresso.org/quote

     Parallel version (MPI & OpenMP), running on       4 processor cores
     Number of MPI processes:                 4
     Threads/MPI process:                     1

     MPI processes distributed on     1 nodes
     153228 MiB available memory on the printing compute node when the environment starts
 
     Reading input from pw-si-1.in
Warning: card &CELL ignored
Warning: card / ignored

     Current dimensions of program PWSCF are:
     Max number of different atomic species (ntypx) = 10
     Max number of k-points (npk) =  40000
     Max angular momentum in pseudopotentials (lmaxx) =  4

     IMPORTANT: XC functional enforced from input :
     Exchange-correlation= PBE
                           (   1   4   3   4   0   0   0)
     Any further DFT definition will be discarded
     Please, verify this is what you really want


     gamma-point specific algorithms are used
 
     K-points division:     npool     =       2
     R & G space division:  proc/nbgrp/npool/nimage =       2
     Subspace diagonalization in iterative solution of the eigenvalue problem:
     a serial algorithm will be used

     Message from routine divide_et_impera:
     suboptimal parallelization: some nodes have no k-points
 
     Parallelization info
     --------------------
     sticks:   dense  smooth     PW     G-vecs:    dense   smooth      PW
     Min        1934    1934    515                90353    90353   12286
     Max        1935    1935    518                90354    90354   12287
     Sum        3869    3869   1033               180707   180707   24573
 
     Using Slab Decomposition
 


     bravais-lattice index     =            0
     lattice parameter (alat)  =      20.1145  a.u.
     unit-cell volume          =    8138.1878 (a.u.)^3
     number of atoms/cell      =           64
     number of atomic types    =            1
     number of electrons       =       256.00
     number of Kohn-Sham states=          154
     kinetic-energy cutoff     =      30.0000  Ry
     charge density cutoff     =     120.0000  Ry
     scf convergence threshold =      1.0E-06
     mixing beta               =       0.5000
     number of iterations used =            8  plain     mixing
     Exchange-correlation= PBE
                           (   1   4   3   4   0   0   0)

     GPU acceleration is ACTIVE.
     GPU-aware MPI enabled

     Message from routine print_cuda_info:
     High GPU oversubscription detected. Are you sure this is what you want?

     celldm(1)=  20.114500  celldm(2)=   0.000000  celldm(3)=   0.000000
     celldm(4)=   0.000000  celldm(5)=   0.000000  celldm(6)=   0.000000

     crystal axes: (cart. coord. in units of alat)
               a(1) = (   1.000000   0.000000   0.000000 )  
               a(2) = (   0.000000   1.000000   0.000000 )  
               a(3) = (   0.000000   0.000000   1.000000 )  

     reciprocal axes: (cart. coord. in units 2 pi/alat)
               b(1) = (  1.000000  0.000000  0.000000 )  
               b(2) = (  0.000000  1.000000  0.000000 )  
               b(3) = (  0.000000  0.000000  1.000000 )  


     PseudoPot. # 1 for Si read from file:
     /home/ppiaggi/pseudos/Si_ONCV_PBE_sr.upf
     MD5 check sum: 8553c464762ac42b85b1eed164b4d029
     Pseudo is Norm-conserving, Zval =  4.0
     Generated using ONCVPSP code by D. R. Hamann
     Using radial grid of 1510 points,  4 beta functions with: 
                l(1) =   0
                l(2) =   0
                l(3) =   1
                l(4) =   1

     atomic species   valence    mass     pseudopotential
        Si             4.00    28.08500     Si( 1.00)

     No symmetry found



   Cartesian axes

     site n.     atom                  positions (alat units)
         1           Si  tau(   1) = (   0.6170370   0.9928910   0.4192930  )
         2           Si  tau(   2) = (   0.9711670   0.0254929   0.5767520  )
         3           Si  tau(   3) = (   0.5640480   0.7903510   0.4441550  )
         4           Si  tau(   4) = (   0.6256450   0.4144400   0.1581040  )
         5           Si  tau(   5) = (   0.0508385   0.5952290   0.7866960  )
         6           Si  tau(   6) = (   0.9133750   0.6049400   0.5785900  )
         7           Si  tau(   7) = (   0.4139800   0.3527160   0.1377990  )
         8           Si  tau(   8) = (   0.7656290   0.7467030   0.5729800  )
         9           Si  tau(   9) = (   0.5340200   0.5001950   0.8036130  )
        10           Si  tau(  10) = (   0.8529060   0.6060140   0.1042250  )
        11           Si  tau(  11) = (   0.7233410   0.6699460   0.9152230  )
        12           Si  tau(  12) = (   0.0655512   0.2003720   0.4305350  )
        13           Si  tau(  13) = (   0.8209990   0.0126839   0.7867830  )
        14           Si  tau(  14) = (   0.1663640   0.9336160   0.3233530  )
        15           Si  tau(  15) = (   0.4293560   0.6942560   0.2718970  )
        16           Si  tau(  16) = (   0.2679930   0.4373780   0.6708950  )
        17           Si  tau(  17) = (   0.7416820   0.8011790   0.2092490  )
        18           Si  tau(  18) = (   0.2220390   0.7981500   0.6769260  )
        19           Si  tau(  19) = (   0.3203070   0.1754590   0.4522060  )
        20           Si  tau(  20) = (   0.7139140   0.1754840   0.1983550  )
        21           Si  tau(  21) = (   0.4886280   0.1334440   0.2701200  )
        22           Si  tau(  22) = (   0.8383050   0.4947540   0.8226580  )
        23           Si  tau(  23) = (   0.4516140   0.0542646   0.5833880  )
        24           Si  tau(  24) = (   0.5424570   0.6418500   0.0743322  )
        25           Si  tau(  25) = (   0.0291762   0.0528251   0.8570390  )
        26           Si  tau(  26) = (   0.9558620   0.0359196   0.2406730  )
        27           Si  tau(  27) = (   0.1730860   0.8799300   0.8821460  )
        28           Si  tau(  28) = (   0.8486350   0.2218120   0.3908810  )
        29           Si  tau(  29) = (   0.0501533   0.3272930   0.6507830  )
        30           Si  tau(  30) = (   0.1307850   0.6259350   0.1275620  )
        31           Si  tau(  31) = (   0.1842880   0.1818290   0.0783881  )
        32           Si  tau(  32) = (   0.7407200   0.1217900   0.5975280  )
        33           Si  tau(  33) = (   0.3643360   0.8796740   0.0332148  )
        34           Si  tau(  34) = (   0.5414170   0.2077220   0.7182700  )
        35           Si  tau(  35) = (   0.5808290   0.9538130   0.1290460  )
        36           Si  tau(  36) = (   0.6898620   0.1042180   0.9393250  )
        37           Si  tau(  37) = (   0.9687490   0.6976190   0.3345720  )
        38           Si  tau(  38) = (   0.8630130   0.9006690   0.4179290  )
        39           Si  tau(  39) = (   0.2193590   0.7244010   0.3178780  )
        40           Si  tau(  40) = (   0.0074815   0.7364670   0.9561900  )
        41           Si  tau(  41) = (   0.3562480   0.1910950   0.8884190  )
        42           Si  tau(  42) = (   0.3050130   0.6553880   0.0160124  )
        43           Si  tau(  43) = (   0.8412540   0.4527900   0.3310410  )
        44           Si  tau(  44) = (   0.6538820   0.3226400   0.9104120  )
        45           Si  tau(  45) = (   0.1307990   0.3956910   0.1371900  )
        46           Si  tau(  46) = (   0.4718130   0.9743270   0.8636060  )
        47           Si  tau(  47) = (   0.6823000   0.8406850   0.7769390  )
        48           Si  tau(  48) = (   0.2767970   0.4056410   0.9277950  )
        49           Si  tau(  49) = (   0.3401830   0.6346440   0.7838800  )
        50           Si  tau(  50) = (   0.8665940   0.9120210   0.0301310  )
        51           Si  tau(  51) = (   0.4184430   0.3715310   0.5281900  )
        52           Si  tau(  52) = (   0.0676051   0.4552890   0.3904820  )
        53           Si  tau(  53) = (   0.6277370   0.5628210   0.3566340  )
        54           Si  tau(  54) = (   0.6092290   0.4866900   0.5904880  )
        55           Si  tau(  55) = (   0.8126250   0.3982210   0.6129750  )
        56           Si  tau(  56) = (   0.1619410   0.6343900   0.5153690  )
        57           Si  tau(  57) = (   0.1882790   0.1322930   0.7272810  )
        58           Si  tau(  58) = (   0.4710540   0.8248740   0.6427770  )
        59           Si  tau(  59) = (   0.3346400   0.4464730   0.3209990  )
        60           Si  tau(  60) = (   0.8752200   0.3622310   0.0659868  )
        61           Si  tau(  61) = (   0.2860260   0.0283981   0.1809430  )
        62           Si  tau(  62) = (   0.9531420   0.1384690   0.0453553  )
        63           Si  tau(  63) = (   0.2016620   0.9674190   0.5530610  )
        64           Si  tau(  64) = (   0.0507919   0.3611710   0.8823790  )

     number of k points=     1  Fermi-Dirac smearing, width (Ry)=  0.0100
                       cart. coord. in units 2pi/alat
        k(    1) = (   0.0000000   0.0000000   0.0000000), wk =   2.0000000

     Dense  grid:    90354 G-vectors     FFT dimensions: (  72,  72,  72)

     Estimated max dynamical RAM per process >     145.05 MB

     Estimated total dynamical RAM >     558.14 MB

     Initial potential from superposition of free atoms

     starting charge     255.9608, renormalised to     256.0000
     Starting wfcs are  256 randomized atomic wfcs

     total cpu time spent up to now is        4.3 secs

     Self-consistent Calculation

     iteration #  1     ecut=    30.00 Ry     beta= 0.50
     Davidson diagonalization with overlap
     ethr =  1.00E-02,  avg # of iterations =  3.0

     Threshold (ethr) on eigenvalues was too large:
     Diagonalizing with lowered threshold

     Davidson diagonalization with overlap
     ethr =  4.03E-04,  avg # of iterations =  5.0

     total cpu time spent up to now is        4.5 secs

     total energy              =    -501.29406744 Ry
     estimated scf accuracy    <       1.21400203 Ry

     iteration #  2     ecut=    30.00 Ry     beta= 0.50
     Davidson diagonalization with overlap
     ethr =  4.74E-04,  avg # of iterations =  5.0

     total cpu time spent up to now is        4.6 secs

     total energy              =    -500.63345491 Ry
     estimated scf accuracy    <       8.78465729 Ry

     iteration #  3     ecut=    30.00 Ry     beta= 0.50
     Davidson diagonalization with overlap
     ethr =  4.74E-04,  avg # of iterations =  4.0

     total cpu time spent up to now is        4.7 secs

     total energy              =    -501.39584415 Ry
     estimated scf accuracy    <       1.55460820 Ry

     iteration #  4     ecut=    30.00 Ry     beta= 0.50
     Davidson diagonalization with overlap
     ethr =  4.74E-04,  avg # of iterations =  2.0

     total cpu time spent up to now is        4.8 secs

     total energy              =    -501.45773925 Ry
     estimated scf accuracy    <       0.73927139 Ry

     iteration #  5     ecut=    30.00 Ry     beta= 0.50
     Davidson diagonalization with overlap
     ethr =  2.89E-04,  avg # of iterations =  2.0

     total cpu time spent up to now is        4.9 secs

     total energy              =    -501.50515038 Ry
     estimated scf accuracy    <       0.47852073 Ry

     iteration #  6     ecut=    30.00 Ry     beta= 0.50
     Davidson diagonalization with overlap
     ethr =  1.87E-04,  avg # of iterations =  2.0

     total cpu time spent up to now is        5.0 secs

     total energy              =    -501.54735606 Ry
     estimated scf accuracy    <       0.04608885 Ry

     iteration #  7     ecut=    30.00 Ry     beta= 0.50
     Davidson diagonalization with overlap
     ethr =  1.80E-05,  avg # of iterations =  4.0

     total cpu time spent up to now is        5.1 secs

     total energy              =    -501.55163574 Ry
     estimated scf accuracy    <       0.06202889 Ry

     iteration #  8     ecut=    30.00 Ry     beta= 0.50
     Davidson diagonalization with overlap
     ethr =  1.80E-05,  avg # of iterations =  2.0

     total cpu time spent up to now is        5.1 secs

     total energy              =    -501.55711022 Ry
     estimated scf accuracy    <       0.00953121 Ry

     iteration #  9     ecut=    30.00 Ry     beta= 0.50
     Davidson diagonalization with overlap
     ethr =  3.72E-06,  avg # of iterations =  9.0

     total cpu time spent up to now is        5.3 secs

     total energy              =    -501.55820495 Ry
     estimated scf accuracy    <       0.00195259 Ry

     iteration # 10     ecut=    30.00 Ry     beta= 0.50
     Davidson diagonalization with overlap
     ethr =  7.63E-07,  avg # of iterations =  9.0

     total cpu time spent up to now is        5.4 secs

     total energy              =    -501.55832866 Ry
     estimated scf accuracy    <       0.00152779 Ry

     iteration # 11     ecut=    30.00 Ry     beta= 0.50
     Davidson diagonalization with overlap
     ethr =  5.97E-07,  avg # of iterations =  2.0

     total cpu time spent up to now is        5.5 secs

     total energy              =    -501.55844574 Ry
     estimated scf accuracy    <       0.00063196 Ry

     iteration # 12     ecut=    30.00 Ry     beta= 0.50
     Davidson diagonalization with overlap
     ethr =  2.47E-07,  avg # of iterations =  2.0

     total cpu time spent up to now is        5.5 secs

     total energy              =    -501.55849724 Ry
     estimated scf accuracy    <       0.00032822 Ry

     iteration # 13     ecut=    30.00 Ry     beta= 0.50
     Davidson diagonalization with overlap
     ethr =  1.28E-07,  avg # of iterations =  2.0

     total cpu time spent up to now is        5.6 secs

     total energy              =    -501.55851640 Ry
     estimated scf accuracy    <       0.00022923 Ry

     iteration # 14     ecut=    30.00 Ry     beta= 0.50
     Davidson diagonalization with overlap
     ethr =  8.95E-08,  avg # of iterations =  1.0

     total cpu time spent up to now is        5.7 secs

     total energy              =    -501.55853078 Ry
     estimated scf accuracy    <       0.00002809 Ry

     iteration # 15     ecut=    30.00 Ry     beta= 0.50
     Davidson diagonalization with overlap
     ethr =  1.10E-08,  avg # of iterations =  4.0

     total cpu time spent up to now is        5.8 secs

     total energy              =    -501.55853451 Ry
     estimated scf accuracy    <       0.00003954 Ry

     iteration # 16     ecut=    30.00 Ry     beta= 0.50
     Davidson diagonalization with overlap
     ethr =  1.10E-08,  avg # of iterations =  2.0

     total cpu time spent up to now is        5.9 secs

     total energy              =    -501.55853707 Ry
     estimated scf accuracy    <       0.00000963 Ry

     iteration # 17     ecut=    30.00 Ry     beta= 0.50
     Davidson diagonalization with overlap
     ethr =  3.76E-09,  avg # of iterations =  2.0

     total cpu time spent up to now is        6.0 secs

     total energy              =    -501.55853789 Ry
     estimated scf accuracy    <       0.00000527 Ry

     iteration # 18     ecut=    30.00 Ry     beta= 0.50
     Davidson diagonalization with overlap
     ethr =  2.06E-09,  avg # of iterations =  2.0

     total cpu time spent up to now is        6.0 secs

     End of self-consistent calculation

          k = 0.0000 0.0000 0.0000 ( 11324 PWs)   bands (ev):

    -5.3614  -4.4303  -4.3133  -4.2447  -4.1347  -4.0677  -3.9287  -3.3480
    -3.3246  -3.2637  -3.1583  -3.1203  -3.0386  -2.9806  -2.8465  -2.7521
    -2.7247  -2.5782  -2.4972  -2.0756  -1.9646  -1.9270  -1.8386  -1.7931
    -1.7359  -1.5241  -1.2718  -0.8461  -0.6826  -0.6389  -0.5781  -0.4012
    -0.3414  -0.0762  -0.0484   0.0471   0.1152   0.1663   0.1917   0.2441
     0.3226   0.3976   0.5399   0.5999   0.6744   0.7708   0.7995   0.8802
     0.9736   1.0708   1.1408   1.2610   1.2919   1.3287   1.4557   1.6110
     1.6618   1.7712   1.9511   2.0413   2.2027   2.2817   2.2873   2.4872
     2.5926   2.6229   2.7046   2.7659   2.8256   2.9092   2.9148   3.0267
     3.0868   3.2149   3.2200   3.2862   3.4247   3.4869   3.5912   3.7099
     3.9547   4.1013   4.3190   4.4364   4.4660   4.5212   4.6079   4.6611
     4.7626   4.8153   4.8445   4.9454   5.0066   5.0770   5.1407   5.1807
     5.2412   5.3295   5.4059   5.4493   5.5210   5.5876   5.6186   5.6955
     5.7349   5.7778   5.8155   5.8722   5.8962   5.9785   6.0986   6.1227
     6.1811   6.2771   6.2932   6.3372   6.4216   6.4381   6.4877   6.5126
     6.6625   6.7382   6.8347   6.8774   6.9263   6.9787   7.0142   7.0905
     7.1684   7.2020   7.2898   7.3576   7.4086   7.4878   7.5128   7.5897
     7.6899   7.7274   7.7955   7.9045   7.9623   8.0024   8.1045   8.1226
     8.2073   8.2442   8.2717   8.3675   8.4052   8.4893   8.5278   8.5618
     8.6463   8.6708

     the Fermi energy is     7.1305 ev

!    total energy              =    -501.55853775 Ry
     estimated scf accuracy    <       0.00000084 Ry
     smearing contrib. (-TS)   =      -0.14419383 Ry
     internal energy E=F+TS    =    -501.41434393 Ry

     The total energy is F=E-TS. E is the sum of the following terms:
     one-electron contribution =     189.16921585 Ry
     hartree contribution      =      23.61564056 Ry
     xc contribution           =    -151.01470365 Ry
     ewald contribution        =    -563.18449668 Ry

     convergence has been achieved in  18 iterations

     Forces acting on atoms (cartesian axes, Ry/au):

     atom    1 type  1   force =     0.03224148    0.05946601    0.00562116
     atom    2 type  1   force =     0.01597858    0.01308412   -0.01159866
     atom    3 type  1   force =     0.00591951   -0.07183866   -0.01065952
     atom    4 type  1   force =     0.00595926    0.00844875   -0.02423207
     atom    5 type  1   force =    -0.01624038   -0.01920159   -0.01876739
     atom    6 type  1   force =     0.08434217   -0.06760391    0.00729947
     atom    7 type  1   force =    -0.00195071   -0.02974579   -0.00220057
     atom    8 type  1   force =    -0.08750189    0.07809371   -0.01267682
     atom    9 type  1   force =     0.01001212    0.01579455    0.00835818
     atom   10 type  1   force =    -0.00184391    0.01670162    0.01640309
     atom   11 type  1   force =    -0.03124382   -0.03461530    0.00223425
     atom   12 type  1   force =     0.02621085    0.00610023    0.02851612
     atom   13 type  1   force =     0.00951247    0.00401912   -0.02286100
     atom   14 type  1   force =    -0.06783035    0.00426868    0.04105908
     atom   15 type  1   force =     0.03994388   -0.01835999    0.01553782
     atom   16 type  1   force =    -0.05017634    0.05152777    0.01252979
     atom   17 type  1   force =     0.01185284    0.01826025   -0.00174440
     atom   18 type  1   force =     0.01456368   -0.04425779    0.02162789
     atom   19 type  1   force =     0.00168771    0.00720827   -0.02474768
     atom   20 type  1   force =    -0.00666129    0.02105437    0.00672319
     atom   21 type  1   force =    -0.02210757   -0.00062074    0.00120943
     atom   22 type  1   force =    -0.00241311   -0.02053613   -0.00049225
     atom   23 type  1   force =     0.01181848   -0.04073973    0.00130785
     atom   24 type  1   force =    -0.00801264   -0.02556008    0.00894843
     atom   25 type  1   force =     0.00438397   -0.02098864   -0.01128577
     atom   26 type  1   force =     0.02246234   -0.01813255    0.03233296
     atom   27 type  1   force =    -0.01210502   -0.01176245    0.01595233
     atom   28 type  1   force =    -0.03842902    0.01032074   -0.00035302
     atom   29 type  1   force =     0.03784759   -0.03036708    0.00571234
     atom   30 type  1   force =    -0.04859900   -0.01781095    0.04225851
     atom   31 type  1   force =    -0.02787295    0.03336711   -0.03886671
     atom   32 type  1   force =    -0.00988749    0.01653893   -0.02014095
     atom   33 type  1   force =    -0.01114671   -0.00833213    0.00424633
     atom   34 type  1   force =     0.01738670    0.02161235    0.02070755
     atom   35 type  1   force =     0.00760292    0.00629789   -0.00977692
     atom   36 type  1   force =    -0.02534691   -0.01019814    0.03530178
     atom   37 type  1   force =     0.00167124   -0.00922280    0.00721394
     atom   38 type  1   force =    -0.03372195   -0.02429137   -0.02155502
     atom   39 type  1   force =    -0.02712854   -0.01338094   -0.00999186
     atom   40 type  1   force =     0.01190040    0.02176499    0.01949646
     atom   41 type  1   force =    -0.02130042   -0.01273445   -0.03115024
     atom   42 type  1   force =     0.09644388    0.00850708   -0.05507533
     atom   43 type  1   force =    -0.00431387    0.00336568    0.00230269
     atom   44 type  1   force =    -0.00526774    0.02457459    0.00864881
     atom   45 type  1   force =    -0.01051154    0.02131030    0.00958459
     atom   46 type  1   force =     0.03090644    0.03166166   -0.01738462
     atom   47 type  1   force =    -0.01016534   -0.02443856   -0.03921466
     atom   48 type  1   force =     0.01491044    0.00562160    0.00610350
     atom   49 type  1   force =    -0.00088719   -0.03887068    0.00914106
     atom   50 type  1   force =     0.00126975   -0.00751302    0.01295186
     atom   51 type  1   force =     0.01548412   -0.01654965   -0.01962137
     atom   52 type  1   force =     0.01574581   -0.01215628   -0.00934366
     atom   53 type  1   force =     0.01560201    0.00448019    0.02510554
     atom   54 type  1   force =    -0.01052881   -0.00229427   -0.03160826
     atom   55 type  1   force =     0.01858734   -0.00830085   -0.00193927
     atom   56 type  1   force =    -0.02163416   -0.03879658    0.00959022
     atom   57 type  1   force =     0.00317541    0.03251938   -0.01331531
     atom   58 type  1   force =    -0.01861736    0.03017861    0.03917439
     atom   59 type  1   force =    -0.01215360    0.03123306    0.01519060
     atom   60 type  1   force =     0.00681812   -0.00709495   -0.02355408
     atom   61 type  1   force =     0.07560114   -0.00258208   -0.00605568
     atom   62 type  1   force =     0.01104968    0.02913037    0.01644217
     atom   63 type  1   force =    -0.01465113    0.05519515   -0.02420406
     atom   64 type  1   force =    -0.01864157    0.01719098   -0.00041621

     Total force =     0.366915     Total SCF correction =     0.001743


     Computing stress (Cartesian axis) and pressure

          total   stress  (Ry/bohr**3)                   (kbar)     P=      -28.59
  -0.00019583   0.00000246  -0.00008628          -28.81        0.36      -12.69
   0.00000246  -0.00012797  -0.00003239            0.36      -18.83       -4.77
  -0.00008628  -0.00003239  -0.00025917          -12.69       -4.77      -38.12

 
     init_run     :      1.05s CPU      4.23s WALL (       1 calls)
     electrons    :      1.58s CPU      1.75s WALL (       1 calls)
     forces       :      0.03s CPU      0.03s WALL (       1 calls)
     stress       :      0.14s CPU      0.14s WALL (       1 calls)

     Called by init_run:
     wfcinit      :      0.54s CPU      3.55s WALL (       1 calls)
                                        3.55s GPU  (       1 calls)
     potinit      :      0.04s CPU      0.15s WALL (       1 calls)
     hinit0       :      0.45s CPU      0.47s WALL (       1 calls)

     Called by electrons:
     c_bands      :      1.02s CPU      1.12s WALL (      19 calls)
     sum_band     :      0.29s CPU      0.34s WALL (      19 calls)
     v_of_rho     :      0.13s CPU      0.24s WALL (      19 calls)
     mix_rho      :      0.13s CPU      0.14s WALL (      19 calls)

     Called by c_bands:
     init_us_2    :      0.05s CPU      0.05s WALL (      39 calls)
     init_us_2:gp :      0.05s CPU      0.05s WALL (      39 calls)
     regterg      :      0.88s CPU      0.97s WALL (      19 calls)

     Called by *egterg:
     rdiaghg      :      0.36s CPU      0.99s WALL (      82 calls)
                                        0.98s GPU  (      82 calls)
     h_psi        :      0.91s CPU      3.34s WALL (      84 calls)
                                        3.34s GPU  (      84 calls)
     g_psi        :      0.00s CPU      0.00s WALL (      64 calls)
                                        0.00s GPU  (      64 calls)

     Called by h_psi:
     h_psi:calbec :      0.52s CPU      2.89s WALL (      84 calls)
                                        2.89s GPU  (      84 calls)
     vloc_psi     :      0.34s CPU      0.40s WALL (      84 calls)
                                        0.40s GPU  (      84 calls)
     add_vuspsi   :      0.03s CPU      0.05s WALL (      84 calls)
                                        0.05s GPU  (      84 calls)

     General routines
     calbec       :      0.53s CPU      2.89s WALL (      89 calls)
     fft          :      0.54s CPU      0.68s WALL (     159 calls)
                                        0.14s GPU  (     101 calls)
     ffts         :      0.03s CPU      0.03s WALL (      19 calls)
     fftw         :      0.41s CPU      0.55s WALL (    1997 calls)
                                        0.48s GPU  (    1997 calls)
 
     Parallel routines
 
     PWSCF        :      2.84s CPU      6.23s WALL

 
   This run was terminated on:  10:40:52  10May2023            

=------------------------------------------------------------------------------=
   JOB DONE.
=------------------------------------------------------------------------------=
