An instance of this daemon is already running

     Program PWSCF v.7.1 starts on 10May2023 at 10:45:21 

     This program is part of the open-source Quantum ESPRESSO suite
     for quantum simulation of materials; please cite
         "P. Giannozzi et al., J. Phys.:Condens. Matter 21 395502 (2009);
         "P. Giannozzi et al., J. Phys.:Condens. Matter 29 465901 (2017);
         "P. Giannozzi et al., J. Chem. Phys. 152 154105 (2020);
          URL http://www.quantum-espresso.org", 
     in publications or presentations arising from this work. More details at
     http://www.quantum-espresso.org/quote

     Parallel version (MPI & OpenMP), running on       4 processor cores
     Number of MPI processes:                 4
     Threads/MPI process:                     1

     MPI processes distributed on     1 nodes
     153222 MiB available memory on the printing compute node when the environment starts
 
     Reading input from pw-si-32.in
Warning: card &CELL ignored
Warning: card / ignored

     Current dimensions of program PWSCF are:
     Max number of different atomic species (ntypx) = 10
     Max number of k-points (npk) =  40000
     Max angular momentum in pseudopotentials (lmaxx) =  4

     IMPORTANT: XC functional enforced from input :
     Exchange-correlation= PBE
                           (   1   4   3   4   0   0   0)
     Any further DFT definition will be discarded
     Please, verify this is what you really want


     gamma-point specific algorithms are used
 
     K-points division:     npool     =       2
     R & G space division:  proc/nbgrp/npool/nimage =       2
     Subspace diagonalization in iterative solution of the eigenvalue problem:
     a serial algorithm will be used

     Message from routine divide_et_impera:
     suboptimal parallelization: some nodes have no k-points
 
     Parallelization info
     --------------------
     sticks:   dense  smooth     PW     G-vecs:    dense   smooth      PW
     Min        1946    1946    516                91133    91133   12416
     Max        1947    1947    517                91134    91134   12421
     Sum        3893    3893   1033               182267   182267   24837
 
     Using Slab Decomposition
 


     bravais-lattice index     =            0
     lattice parameter (alat)  =      20.1773  a.u.
     unit-cell volume          =    8214.7077 (a.u.)^3
     number of atoms/cell      =           64
     number of atomic types    =            1
     number of electrons       =       256.00
     number of Kohn-Sham states=          154
     kinetic-energy cutoff     =      30.0000  Ry
     charge density cutoff     =     120.0000  Ry
     scf convergence threshold =      1.0E-06
     mixing beta               =       0.5000
     number of iterations used =            8  plain     mixing
     Exchange-correlation= PBE
                           (   1   4   3   4   0   0   0)

     GPU acceleration is ACTIVE.
     GPU-aware MPI enabled

     Message from routine print_cuda_info:
     High GPU oversubscription detected. Are you sure this is what you want?

     celldm(1)=  20.177346  celldm(2)=   0.000000  celldm(3)=   0.000000
     celldm(4)=   0.000000  celldm(5)=   0.000000  celldm(6)=   0.000000

     crystal axes: (cart. coord. in units of alat)
               a(1) = (   1.000000   0.000000   0.000000 )  
               a(2) = (   0.000000   1.000000   0.000000 )  
               a(3) = (   0.000000   0.000000   1.000000 )  

     reciprocal axes: (cart. coord. in units 2 pi/alat)
               b(1) = (  1.000000  0.000000  0.000000 )  
               b(2) = (  0.000000  1.000000  0.000000 )  
               b(3) = (  0.000000  0.000000  1.000000 )  


     PseudoPot. # 1 for Si read from file:
     /home/ppiaggi/pseudos/Si_ONCV_PBE_sr.upf
     MD5 check sum: 8553c464762ac42b85b1eed164b4d029
     Pseudo is Norm-conserving, Zval =  4.0
     Generated using ONCVPSP code by D. R. Hamann
     Using radial grid of 1510 points,  4 beta functions with: 
                l(1) =   0
                l(2) =   0
                l(3) =   1
                l(4) =   1

     atomic species   valence    mass     pseudopotential
        Si             4.00    28.08500     Si( 1.00)

     No symmetry found



   Cartesian axes

     site n.     atom                  positions (alat units)
         1           Si  tau(   1) = (   0.6231340   0.4049230   0.0462786  )
         2           Si  tau(   2) = (   0.2089530   0.2665480   0.3290010  )
         3           Si  tau(   3) = (   0.0126063   0.5649540   0.0036643  )
         4           Si  tau(   4) = (   0.6873540   0.0079066   0.5362290  )
         5           Si  tau(   5) = (   0.9601930   0.8955200   0.6806990  )
         6           Si  tau(   6) = (   0.8239690   0.8346150   0.9563680  )
         7           Si  tau(   7) = (   0.5920320   0.1550790   0.7753410  )
         8           Si  tau(   8) = (   0.6832730   0.1238810   0.2021770  )
         9           Si  tau(   9) = (   0.9331080   0.9098930   0.1774340  )
        10           Si  tau(  10) = (   0.6492980   0.0274690   0.9736990  )
        11           Si  tau(  11) = (   0.5148730   0.2257080   0.2709480  )
        12           Si  tau(  12) = (   0.6448360   0.8030830   0.4280830  )
        13           Si  tau(  13) = (   0.9022830   0.3089640   0.2004100  )
        14           Si  tau(  14) = (   0.4360270   0.7777300   0.6213360  )
        15           Si  tau(  15) = (   0.1730010   0.0894999   0.0007159  )
        16           Si  tau(  16) = (   0.4286190   0.2796400   0.0697745  )
        17           Si  tau(  17) = (   0.8659660   0.4361390   0.8028630  )
        18           Si  tau(  18) = (   0.5276660   0.6056440   0.3843600  )
        19           Si  tau(  19) = (   0.4124200   0.7396110   0.9875170  )
        20           Si  tau(  20) = (   0.5419180   0.2927870   0.5093860  )
        21           Si  tau(  21) = (   0.3861160   0.0818927   0.9755590  )
        22           Si  tau(  22) = (   0.0662462   0.7952400   0.4814680  )
        23           Si  tau(  23) = (   0.1469450   0.6483240   0.7633580  )
        24           Si  tau(  24) = (   0.0208060   0.2078660   0.5561860  )
        25           Si  tau(  25) = (   0.1983370   0.0686235   0.5834020  )
        26           Si  tau(  26) = (   0.8327740   0.4207240   0.4345970  )
        27           Si  tau(  27) = (   0.9089210   0.6772850   0.7872900  )
        28           Si  tau(  28) = (   0.2758760   0.2551340   0.7776660  )
        29           Si  tau(  29) = (   0.0837294   0.4375240   0.6987190  )
        30           Si  tau(  30) = (   0.7911910   0.6167430   0.5477680  )
        31           Si  tau(  31) = (   0.5771560   0.5089040   0.5806120  )
        32           Si  tau(  32) = (   0.0756814   0.3821030   0.0984968  )
        33           Si  tau(  33) = (   0.1856280   0.6099840   0.4742630  )
        34           Si  tau(  34) = (   0.6235370   0.7280310   0.7221770  )
        35           Si  tau(  35) = (   0.0557382   0.4054560   0.4539410  )
        36           Si  tau(  36) = (   0.8843990   0.7815190   0.3705300  )
        37           Si  tau(  37) = (   0.3526880   0.5550940   0.6360620  )
        38           Si  tau(  38) = (   0.2760350   0.4366370   0.1767800  )
        39           Si  tau(  39) = (   0.8873130   0.1809180   0.7894110  )
        40           Si  tau(  40) = (   0.8550160   0.1294990   0.4116250  )
        41           Si  tau(  41) = (   0.6024040   0.3774580   0.8233480  )
        42           Si  tau(  42) = (   0.3944920   0.4436460   0.8394790  )
        43           Si  tau(  43) = (   0.3185590   0.6260690   0.3173550  )
        44           Si  tau(  44) = (   0.3596190   0.0317268   0.7440480  )
        45           Si  tau(  45) = (   0.2517780   0.8109530   0.2271190  )
        46           Si  tau(  46) = (   0.0380597   0.1122000   0.2088470  )
        47           Si  tau(  47) = (   0.3598070   0.0509738   0.3558050  )
        48           Si  tau(  48) = (   0.4600210   0.0213422   0.5297000  )
        49           Si  tau(  49) = (   0.8724390   0.5868810   0.1902230  )
        50           Si  tau(  50) = (   0.7390710   0.9314960   0.7311440  )
        51           Si  tau(  51) = (   0.2884240   0.5776440   0.9819850  )
        52           Si  tau(  52) = (   0.5885980   0.6402510   0.9359970  )
        53           Si  tau(  53) = (   0.0839112   0.2617770   0.9055810  )
        54           Si  tau(  54) = (   0.7134510   0.7072030   0.0875018  )
        55           Si  tau(  55) = (   0.3248880   0.3149030   0.5472100  )
        56           Si  tau(  56) = (   0.7626450   0.2746390   0.5953750  )
        57           Si  tau(  57) = (   0.6693360   0.4729910   0.2598560  )
        58           Si  tau(  58) = (   0.7834360   0.2359470   0.0039613  )
        59           Si  tau(  59) = (   0.0820108   0.9121710   0.8621800  )
        60           Si  tau(  60) = (   0.1579200   0.9612970   0.3639890  )
        61           Si  tau(  61) = (   0.0963814   0.7831260   0.0578061  )
        62           Si  tau(  62) = (   0.4376790   0.9367950   0.1575340  )
        63           Si  tau(  63) = (   0.6550990   0.8889600   0.2247290  )
        64           Si  tau(  64) = (   0.2865340   0.8213740   0.7909260  )

     number of k points=     1  Fermi-Dirac smearing, width (Ry)=  0.0100
                       cart. coord. in units 2pi/alat
        k(    1) = (   0.0000000   0.0000000   0.0000000), wk =   2.0000000

     Dense  grid:    91134 G-vectors     FFT dimensions: (  72,  72,  72)

     Estimated max dynamical RAM per process >     146.25 MB

     Estimated total dynamical RAM >     562.74 MB

     Initial potential from superposition of free atoms

     starting charge     255.9608, renormalised to     256.0000
     Starting wfcs are  256 randomized atomic wfcs

     total cpu time spent up to now is        4.3 secs

     Self-consistent Calculation

     iteration #  1     ecut=    30.00 Ry     beta= 0.50
     Davidson diagonalization with overlap
     ethr =  1.00E-02,  avg # of iterations =  3.0

     Threshold (ethr) on eigenvalues was too large:
     Diagonalizing with lowered threshold

     Davidson diagonalization with overlap
     ethr =  4.71E-04,  avg # of iterations =  4.0

     total cpu time spent up to now is        4.5 secs

     total energy              =    -501.37176010 Ry
     estimated scf accuracy    <       1.41298817 Ry

     iteration #  2     ecut=    30.00 Ry     beta= 0.50
     Davidson diagonalization with overlap
     ethr =  5.52E-04,  avg # of iterations =  5.0

     total cpu time spent up to now is        4.6 secs

     total energy              =    -500.67897791 Ry
     estimated scf accuracy    <       8.45241831 Ry

     iteration #  3     ecut=    30.00 Ry     beta= 0.50
     Davidson diagonalization with overlap
     ethr =  5.52E-04,  avg # of iterations =  5.0

     total cpu time spent up to now is        4.7 secs

     total energy              =    -501.54271335 Ry
     estimated scf accuracy    <       1.39762668 Ry

     iteration #  4     ecut=    30.00 Ry     beta= 0.50
     Davidson diagonalization with overlap
     ethr =  5.46E-04,  avg # of iterations =  2.0

     total cpu time spent up to now is        4.8 secs

     total energy              =    -501.58912613 Ry
     estimated scf accuracy    <       0.63328208 Ry

     iteration #  5     ecut=    30.00 Ry     beta= 0.50
     Davidson diagonalization with overlap
     ethr =  2.47E-04,  avg # of iterations =  2.0

     total cpu time spent up to now is        4.9 secs

     total energy              =    -501.63735801 Ry
     estimated scf accuracy    <       0.37442923 Ry

     iteration #  6     ecut=    30.00 Ry     beta= 0.50
     Davidson diagonalization with overlap
     ethr =  1.46E-04,  avg # of iterations =  2.0

     total cpu time spent up to now is        5.0 secs

     total energy              =    -501.67408117 Ry
     estimated scf accuracy    <       0.05983368 Ry

     iteration #  7     ecut=    30.00 Ry     beta= 0.50
     Davidson diagonalization with overlap
     ethr =  2.34E-05,  avg # of iterations = 11.0

     total cpu time spent up to now is        5.1 secs

     total energy              =    -501.68157977 Ry
     estimated scf accuracy    <       0.00960510 Ry

     iteration #  8     ecut=    30.00 Ry     beta= 0.50
     Davidson diagonalization with overlap
     ethr =  3.75E-06,  avg # of iterations =  8.0

     total cpu time spent up to now is        5.2 secs

     total energy              =    -501.68195593 Ry
     estimated scf accuracy    <       0.02090045 Ry

     iteration #  9     ecut=    30.00 Ry     beta= 0.50
     Davidson diagonalization with overlap
     ethr =  3.75E-06,  avg # of iterations =  2.0

     total cpu time spent up to now is        5.3 secs

     total energy              =    -501.68369600 Ry
     estimated scf accuracy    <       0.00129540 Ry

     iteration # 10     ecut=    30.00 Ry     beta= 0.50
     Davidson diagonalization with overlap
     ethr =  5.06E-07,  avg # of iterations =  4.0

     total cpu time spent up to now is        5.4 secs

     total energy              =    -501.68379660 Ry
     estimated scf accuracy    <       0.00104972 Ry

     iteration # 11     ecut=    30.00 Ry     beta= 0.50
     Davidson diagonalization with overlap
     ethr =  4.10E-07,  avg # of iterations =  2.0

     total cpu time spent up to now is        5.5 secs

     total energy              =    -501.68386865 Ry
     estimated scf accuracy    <       0.00051312 Ry

     iteration # 12     ecut=    30.00 Ry     beta= 0.50
     Davidson diagonalization with overlap
     ethr =  2.00E-07,  avg # of iterations =  2.0

     total cpu time spent up to now is        5.6 secs

     total energy              =    -501.68392521 Ry
     estimated scf accuracy    <       0.00018310 Ry

     iteration # 13     ecut=    30.00 Ry     beta= 0.50
     Davidson diagonalization with overlap
     ethr =  7.15E-08,  avg # of iterations =  1.0

     total cpu time spent up to now is        5.7 secs

     total energy              =    -501.68393890 Ry
     estimated scf accuracy    <       0.00001983 Ry

     iteration # 14     ecut=    30.00 Ry     beta= 0.50
     Davidson diagonalization with overlap
     ethr =  7.75E-09,  avg # of iterations =  4.0

     total cpu time spent up to now is        5.8 secs

     total energy              =    -501.68394160 Ry
     estimated scf accuracy    <       0.00002267 Ry

     iteration # 15     ecut=    30.00 Ry     beta= 0.50
     Davidson diagonalization with overlap
     ethr =  7.75E-09,  avg # of iterations =  2.0

     total cpu time spent up to now is        5.8 secs

     total energy              =    -501.68394303 Ry
     estimated scf accuracy    <       0.00001168 Ry

     iteration # 16     ecut=    30.00 Ry     beta= 0.50
     Davidson diagonalization with overlap
     ethr =  4.56E-09,  avg # of iterations =  2.0

     total cpu time spent up to now is        5.9 secs

     total energy              =    -501.68394390 Ry
     estimated scf accuracy    <       0.00000380 Ry

     iteration # 17     ecut=    30.00 Ry     beta= 0.50
     Davidson diagonalization with overlap
     ethr =  1.48E-09,  avg # of iterations =  2.0

     total cpu time spent up to now is        6.0 secs

     End of self-consistent calculation

          k = 0.0000 0.0000 0.0000 ( 11444 PWs)   bands (ev):

    -5.3881  -4.3779  -4.3386  -4.3019  -4.2419  -4.2178  -4.0640  -3.5022
    -3.4652  -3.2943  -3.2193  -3.1630  -3.1055  -3.0079  -2.9167  -2.8696
    -2.8139  -2.7889  -2.4011  -2.2197  -2.1584  -2.0503  -1.8943  -1.7807
    -1.7221  -1.5887  -1.5089  -1.1689  -0.9411  -0.7323  -0.6790  -0.5596
    -0.3694  -0.2776  -0.2647  -0.1804  -0.0678   0.0173   0.0982   0.1822
     0.2394   0.3519   0.4260   0.4722   0.6775   0.7181   0.7740   0.8146
     0.9415   1.0566   1.1742   1.2013   1.3027   1.3724   1.4483   1.5874
     1.6609   1.7285   1.7941   1.9743   2.1365   2.1449   2.2721   2.3514
     2.3952   2.5423   2.5773   2.6751   2.7454   2.7803   2.8887   2.9363
     2.9810   3.0625   3.1425   3.2678   3.3322   3.4352   3.5260   3.6374
     3.7241   4.0275   4.1108   4.1863   4.3142   4.3841   4.4458   4.5432
     4.6100   4.6769   4.7577   4.8474   4.8875   4.9312   4.9863   5.0181
     5.1498   5.1890   5.2147   5.2705   5.3580   5.3810   5.4942   5.5137
     5.5332   5.6547   5.6643   5.7175   5.7995   5.8258   5.9414   5.9558
     6.0244   6.0868   6.1481   6.2501   6.2826   6.3471   6.3762   6.4072
     6.5062   6.5894   6.6315   6.6781   6.7075   6.7924   6.8653   6.9391
     7.0153   7.1046   7.1758   7.1905   7.2666   7.3767   7.4643   7.5191
     7.6069   7.6321   7.6841   7.7031   7.8323   7.8556   7.8994   7.9567
     8.1325   8.1480   8.2019   8.2479   8.3182   8.3664   8.4799   8.4906
     8.5653   8.6596

     the Fermi energy is     6.9816 ev

!    total energy              =    -501.68394370 Ry
     estimated scf accuracy    <       0.00000083 Ry
     smearing contrib. (-TS)   =      -0.13215166 Ry
     internal energy E=F+TS    =    -501.55179203 Ry

     The total energy is F=E-TS. E is the sum of the following terms:
     one-electron contribution =     185.44742686 Ry
     hartree contribution      =      24.48703278 Ry
     xc contribution           =    -151.11522491 Ry
     ewald contribution        =    -560.37102677 Ry

     convergence has been achieved in  17 iterations

     Forces acting on atoms (cartesian axes, Ry/au):

     atom    1 type  1   force =     0.00059004   -0.02577976   -0.00404950
     atom    2 type  1   force =    -0.00080645    0.01279442    0.03107535
     atom    3 type  1   force =    -0.01412406    0.06973279   -0.01472641
     atom    4 type  1   force =    -0.00835611   -0.00399518   -0.03427550
     atom    5 type  1   force =     0.01080954   -0.02691199   -0.02413713
     atom    6 type  1   force =     0.02627618    0.04776250   -0.02120171
     atom    7 type  1   force =     0.01226945   -0.02726001   -0.00089096
     atom    8 type  1   force =     0.06915720   -0.05557322   -0.01821946
     atom    9 type  1   force =    -0.00293773   -0.01154264   -0.01194972
     atom   10 type  1   force =     0.01233305    0.02196788   -0.00928422
     atom   11 type  1   force =    -0.04706222    0.02777970    0.05152616
     atom   12 type  1   force =     0.01493125   -0.00246559    0.00457359
     atom   13 type  1   force =    -0.02279358   -0.03737936    0.02038984
     atom   14 type  1   force =    -0.01259682    0.00577858   -0.01078579
     atom   15 type  1   force =    -0.07085226   -0.03265106    0.00072186
     atom   16 type  1   force =     0.00001768    0.04948205    0.02623937
     atom   17 type  1   force =     0.00975255   -0.00722433   -0.01079625
     atom   18 type  1   force =     0.02901479    0.02268559   -0.00323629
     atom   19 type  1   force =    -0.02055932    0.11718769   -0.00865626
     atom   20 type  1   force =     0.01606446   -0.00570373   -0.02051114
     atom   21 type  1   force =     0.04906849   -0.02337647    0.02398731
     atom   22 type  1   force =    -0.01435156    0.03210541    0.05793733
     atom   23 type  1   force =    -0.01849146   -0.04118177    0.01402317
     atom   24 type  1   force =    -0.01230530   -0.02929760    0.01917006
     atom   25 type  1   force =    -0.00983578    0.01935758   -0.01490092
     atom   26 type  1   force =    -0.01488053    0.00928510   -0.04461818
     atom   27 type  1   force =     0.03169009    0.00234306    0.00760185
     atom   28 type  1   force =    -0.00394823    0.00381671   -0.02607904
     atom   29 type  1   force =    -0.00809844   -0.00580661    0.00335681
     atom   30 type  1   force =    -0.02619651    0.02080832    0.03004818
     atom   31 type  1   force =    -0.00550194   -0.00557150    0.00377400
     atom   32 type  1   force =     0.03908277    0.00622176   -0.02809417
     atom   33 type  1   force =    -0.02365835   -0.04679465    0.08253698
     atom   34 type  1   force =     0.02499723   -0.01125486   -0.00567992
     atom   35 type  1   force =     0.01782459    0.01340534   -0.00874991
     atom   36 type  1   force =    -0.04887966   -0.02434774   -0.06018618
     atom   37 type  1   force =    -0.00697654   -0.01352684   -0.01407421
     atom   38 type  1   force =     0.01758149   -0.01017183   -0.02574276
     atom   39 type  1   force =     0.00864630    0.02960968   -0.00504825
     atom   40 type  1   force =    -0.01855356    0.00106920   -0.00464555
     atom   41 type  1   force =     0.02354377    0.02423266   -0.02121189
     atom   42 type  1   force =    -0.01973346   -0.00530582   -0.00820785
     atom   43 type  1   force =     0.03265585   -0.02803139   -0.05174057
     atom   44 type  1   force =     0.00723471    0.03610301    0.00483772
     atom   45 type  1   force =     0.01330098    0.01906235   -0.05601794
     atom   46 type  1   force =     0.02757121   -0.01951755    0.00729432
     atom   47 type  1   force =    -0.01629691    0.04232543   -0.06967192
     atom   48 type  1   force =     0.05156122   -0.03883289    0.08049086
     atom   49 type  1   force =    -0.02748752    0.02698909    0.01930368
     atom   50 type  1   force =     0.01624446   -0.00791968    0.04176602
     atom   51 type  1   force =    -0.07132239   -0.07846156   -0.01133186
     atom   52 type  1   force =     0.00561861   -0.05038496   -0.05519983
     atom   53 type  1   force =     0.00399021   -0.00040277   -0.02450372
     atom   54 type  1   force =     0.03126691    0.02301490    0.07256500
     atom   55 type  1   force =    -0.02976748    0.00966932    0.01157947
     atom   56 type  1   force =    -0.03137658   -0.01662723    0.01999357
     atom   57 type  1   force =     0.02922643    0.00637789    0.01100167
     atom   58 type  1   force =    -0.02084836    0.00524318    0.02565346
     atom   59 type  1   force =     0.05016941    0.00685122    0.06516414
     atom   60 type  1   force =    -0.02982743    0.02336669   -0.00669917
     atom   61 type  1   force =    -0.02384282   -0.01764547    0.00038124
     atom   62 type  1   force =    -0.00301679   -0.02944660   -0.01606150
     atom   63 type  1   force =    -0.02401908    0.00463983   -0.02567439
     atom   64 type  1   force =     0.02681430   -0.00067627    0.03986705

     Total force =     0.420203     Total SCF correction =     0.001678


     Computing stress (Cartesian axis) and pressure

          total   stress  (Ry/bohr**3)                   (kbar)     P=      -24.20
  -0.00004381  -0.00002121  -0.00003550           -6.45       -3.12       -5.22
  -0.00002121  -0.00020663  -0.00007123           -3.12      -30.40      -10.48
  -0.00003550  -0.00007123  -0.00024313           -5.22      -10.48      -35.77

 
     init_run     :      0.90s CPU      4.22s WALL (       1 calls)
     electrons    :      1.55s CPU      1.72s WALL (       1 calls)
     forces       :      0.03s CPU      0.04s WALL (       1 calls)
     stress       :      0.14s CPU      0.14s WALL (       1 calls)

     Called by init_run:
     wfcinit      :      0.40s CPU      3.55s WALL (       1 calls)
                                        3.55s GPU  (       1 calls)
     potinit      :      0.03s CPU      0.12s WALL (       1 calls)
     hinit0       :      0.45s CPU      0.48s WALL (       1 calls)

     Called by electrons:
     c_bands      :      0.99s CPU      1.10s WALL (      18 calls)
     sum_band     :      0.30s CPU      0.33s WALL (      18 calls)
     v_of_rho     :      0.11s CPU      0.21s WALL (      18 calls)
     mix_rho      :      0.13s CPU      0.14s WALL (      18 calls)

     Called by c_bands:
     init_us_2    :      0.05s CPU      0.05s WALL (      37 calls)
     init_us_2:gp :      0.04s CPU      0.05s WALL (      37 calls)
     regterg      :      0.86s CPU      0.96s WALL (      18 calls)

     Called by *egterg:
     rdiaghg      :      0.36s CPU      1.01s WALL (      80 calls)
                                        0.99s GPU  (      80 calls)
     h_psi        :      0.76s CPU      3.28s WALL (      82 calls)
                                        3.28s GPU  (      82 calls)
     g_psi        :      0.00s CPU      0.00s WALL (      63 calls)
                                        0.00s GPU  (      63 calls)

     Called by h_psi:
     h_psi:calbec :      0.39s CPU      2.85s WALL (      82 calls)
                                        2.85s GPU  (      82 calls)
     vloc_psi     :      0.32s CPU      0.38s WALL (      82 calls)
                                        0.38s GPU  (      82 calls)
     add_vuspsi   :      0.03s CPU      0.05s WALL (      82 calls)
                                        0.04s GPU  (      82 calls)

     General routines
     calbec       :      0.39s CPU      2.85s WALL (      87 calls)
     fft          :      0.55s CPU      0.67s WALL (     151 calls)
                                        0.11s GPU  (      96 calls)
     ffts         :      0.03s CPU      0.03s WALL (      18 calls)
     fftw         :      0.40s CPU      0.52s WALL (    1892 calls)
                                        0.46s GPU  (    1892 calls)
 
     Parallel routines
 
     PWSCF        :      2.66s CPU      6.19s WALL

 
   This run was terminated on:  10:45:28  10May2023            

=------------------------------------------------------------------------------=
   JOB DONE.
=------------------------------------------------------------------------------=
