An instance of this daemon is already running
An instance of this daemon is already running

     Program PWSCF v.7.1 starts on 10May2023 at 10:47:43 

     This program is part of the open-source Quantum ESPRESSO suite
     for quantum simulation of materials; please cite
         "P. Giannozzi et al., J. Phys.:Condens. Matter 21 395502 (2009);
         "P. Giannozzi et al., J. Phys.:Condens. Matter 29 465901 (2017);
         "P. Giannozzi et al., J. Chem. Phys. 152 154105 (2020);
          URL http://www.quantum-espresso.org", 
     in publications or presentations arising from this work. More details at
     http://www.quantum-espresso.org/quote

     Parallel version (MPI & OpenMP), running on       4 processor cores
     Number of MPI processes:                 4
     Threads/MPI process:                     1

     MPI processes distributed on     1 nodes
     153195 MiB available memory on the printing compute node when the environment starts
 
     Reading input from pw-si-48.in
Warning: card &CELL ignored
Warning: card / ignored

     Current dimensions of program PWSCF are:
     Max number of different atomic species (ntypx) = 10
     Max number of k-points (npk) =  40000
     Max angular momentum in pseudopotentials (lmaxx) =  4

     IMPORTANT: XC functional enforced from input :
     Exchange-correlation= PBE
                           (   1   4   3   4   0   0   0)
     Any further DFT definition will be discarded
     Please, verify this is what you really want


     gamma-point specific algorithms are used
 
     K-points division:     npool     =       2
     R & G space division:  proc/nbgrp/npool/nimage =       2
     Subspace diagonalization in iterative solution of the eigenvalue problem:
     a serial algorithm will be used

     Message from routine divide_et_impera:
     suboptimal parallelization: some nodes have no k-points
 
     Parallelization info
     --------------------
     sticks:   dense  smooth     PW     G-vecs:    dense   smooth      PW
     Min        1916    1916    502                89532    89532   12150
     Max        1917    1917    503                89537    89537   12153
     Sum        3833    3833   1005               179069   179069   24303
 
     Using Slab Decomposition
 


     bravais-lattice index     =            0
     lattice parameter (alat)  =      20.0609  a.u.
     unit-cell volume          =    8073.2780 (a.u.)^3
     number of atoms/cell      =           64
     number of atomic types    =            1
     number of electrons       =       256.00
     number of Kohn-Sham states=          154
     kinetic-energy cutoff     =      30.0000  Ry
     charge density cutoff     =     120.0000  Ry
     scf convergence threshold =      1.0E-06
     mixing beta               =       0.5000
     number of iterations used =            8  plain     mixing
     Exchange-correlation= PBE
                           (   1   4   3   4   0   0   0)

     GPU acceleration is ACTIVE.
     GPU-aware MPI enabled

     Message from routine print_cuda_info:
     High GPU oversubscription detected. Are you sure this is what you want?

     celldm(1)=  20.060879  celldm(2)=   0.000000  celldm(3)=   0.000000
     celldm(4)=   0.000000  celldm(5)=   0.000000  celldm(6)=   0.000000

     crystal axes: (cart. coord. in units of alat)
               a(1) = (   1.000000   0.000000   0.000000 )  
               a(2) = (   0.000000   1.000000   0.000000 )  
               a(3) = (   0.000000   0.000000   1.000000 )  

     reciprocal axes: (cart. coord. in units 2 pi/alat)
               b(1) = (  1.000000  0.000000  0.000000 )  
               b(2) = (  0.000000  1.000000  0.000000 )  
               b(3) = (  0.000000  0.000000  1.000000 )  


     PseudoPot. # 1 for Si read from file:
     /home/ppiaggi/pseudos/Si_ONCV_PBE_sr.upf
     MD5 check sum: 8553c464762ac42b85b1eed164b4d029
     Pseudo is Norm-conserving, Zval =  4.0
     Generated using ONCVPSP code by D. R. Hamann
     Using radial grid of 1510 points,  4 beta functions with: 
                l(1) =   0
                l(2) =   0
                l(3) =   1
                l(4) =   1

     atomic species   valence    mass     pseudopotential
        Si             4.00    28.08500     Si( 1.00)

     No symmetry found



   Cartesian axes

     site n.     atom                  positions (alat units)
         1           Si  tau(   1) = (   0.8252210   0.9545150   0.9510790  )
         2           Si  tau(   2) = (   0.9051790   0.7392160   0.8513800  )
         3           Si  tau(   3) = (   0.6289690   0.2498360   0.9480420  )
         4           Si  tau(   4) = (   0.1405490   0.0017715   0.3141860  )
         5           Si  tau(   5) = (   0.0583009   0.1591880   0.1455310  )
         6           Si  tau(   6) = (   0.7666620   0.4915220   0.9141310  )
         7           Si  tau(   7) = (   0.6705850   0.2663660   0.3703110  )
         8           Si  tau(   8) = (   0.5934700   0.5041580   0.2146630  )
         9           Si  tau(   9) = (   0.5062940   0.4829370   0.9015050  )
        10           Si  tau(  10) = (   0.6558400   0.0425908   0.4267620  )
        11           Si  tau(  11) = (   0.4401560   0.9852920   0.9048540  )
        12           Si  tau(  12) = (   0.0457142   0.9292340   0.5682880  )
        13           Si  tau(  13) = (   0.0521822   0.7674480   0.2673990  )
        14           Si  tau(  14) = (   0.8870290   0.0385482   0.7446220  )
        15           Si  tau(  15) = (   0.5020950   0.0441719   0.2316350  )
        16           Si  tau(  16) = (   0.2794230   0.5096870   0.6304780  )
        17           Si  tau(  17) = (   0.0583435   0.4853210   0.1187320  )
        18           Si  tau(  18) = (   0.2115230   0.2075340   0.6604870  )
        19           Si  tau(  19) = (   0.6092520   0.3791370   0.6609260  )
        20           Si  tau(  20) = (   0.6213290   0.6712430   0.0774879  )
        21           Si  tau(  21) = (   0.2041350   0.7812670   0.9477380  )
        22           Si  tau(  22) = (   0.8252340   0.2056830   0.1546590  )
        23           Si  tau(  23) = (   0.5259030   0.6568560   0.7319500  )
        24           Si  tau(  24) = (   0.4461540   0.3841970   0.4507300  )
        25           Si  tau(  25) = (   0.1382980   0.4552040   0.4488920  )
        26           Si  tau(  26) = (   0.7737110   0.5804660   0.7105680  )
        27           Si  tau(  27) = (   0.3651030   0.1931300   0.3659690  )
        28           Si  tau(  28) = (   0.1920620   0.3379860   0.2653050  )
        29           Si  tau(  29) = (   0.8692240   0.4506700   0.3887640  )
        30           Si  tau(  30) = (   0.4346450   0.7887420   0.4792290  )
        31           Si  tau(  31) = (   0.6048770   0.1068170   0.7629930  )
        32           Si  tau(  32) = (   0.8074800   0.2349050   0.6393880  )
        33           Si  tau(  33) = (   0.4431540   0.8246260   0.0628364  )
        34           Si  tau(  34) = (   0.9067030   0.6902250   0.0664418  )
        35           Si  tau(  35) = (   0.8205330   0.4382330   0.1534660  )
        36           Si  tau(  36) = (   0.0365410   0.7134070   0.6498170  )
        37           Si  tau(  37) = (   0.3418610   0.8847020   0.2814140  )
        38           Si  tau(  38) = (   0.0453181   0.9462090   0.0461385  )
        39           Si  tau(  39) = (   0.3714940   0.2007510   0.9570470  )
        40           Si  tau(  40) = (   0.5159860   0.0048616   0.5689110  )
        41           Si  tau(  41) = (   0.0210684   0.6354320   0.4322670  )
        42           Si  tau(  42) = (   0.8676980   0.2543060   0.8711450  )
        43           Si  tau(  43) = (   0.3806080   0.5811070   0.3702210  )
        44           Si  tau(  44) = (   0.3132640   0.7280900   0.6829220  )
        45           Si  tau(  45) = (   0.2673850   0.0326551   0.5334590  )
        46           Si  tau(  46) = (   0.6680650   0.5267350   0.4693000  )
        47           Si  tau(  47) = (   0.3787620   0.2987160   0.7694690  )
        48           Si  tau(  48) = (   0.6586150   0.8706030   0.7667370  )
        49           Si  tau(  49) = (   0.0368521   0.2897950   0.5422710  )
        50           Si  tau(  50) = (   0.2637010   0.9239310   0.7818190  )
        51           Si  tau(  51) = (   0.9224760   0.1683660   0.3862750  )
        52           Si  tau(  52) = (   0.3347060   0.4294490   0.0998928  )
        53           Si  tau(  53) = (   0.1545720   0.2156380   0.9512990  )
        54           Si  tau(  54) = (   0.7472140   0.8016970   0.2061850  )
        55           Si  tau(  55) = (   0.2653450   0.6556560   0.1656190  )
        56           Si  tau(  56) = (   0.8011750   0.8242600   0.5733730  )
        57           Si  tau(  57) = (   0.6399780   0.7419550   0.4143520  )
        58           Si  tau(  58) = (   0.7056230   0.0164284   0.1425500  )
        59           Si  tau(  59) = (   0.5379600   0.2924500   0.1543470  )
        60           Si  tau(  60) = (   0.8986690   0.8977610   0.3637990  )
        61           Si  tau(  61) = (   0.9722640   0.4486900   0.6903920  )
        62           Si  tau(  62) = (   0.0842486   0.4167540   0.9008690  )
        63           Si  tau(  63) = (   0.1020880   0.0630020   0.8237820  )
        64           Si  tau(  64) = (   0.2833580   0.5567880   0.8907950  )

     number of k points=     1  Fermi-Dirac smearing, width (Ry)=  0.0100
                       cart. coord. in units 2pi/alat
        k(    1) = (   0.0000000   0.0000000   0.0000000), wk =   2.0000000

     Dense  grid:    89535 G-vectors     FFT dimensions: (  72,  72,  72)

     Estimated max dynamical RAM per process >     144.00 MB

     Estimated total dynamical RAM >     554.14 MB

     Initial potential from superposition of free atoms

     starting charge     255.9608, renormalised to     256.0000
     Starting wfcs are  256 randomized atomic wfcs

     total cpu time spent up to now is        4.2 secs

     Self-consistent Calculation

     iteration #  1     ecut=    30.00 Ry     beta= 0.50
     Davidson diagonalization with overlap
     ethr =  1.00E-02,  avg # of iterations =  3.0

     Threshold (ethr) on eigenvalues was too large:
     Diagonalizing with lowered threshold

     Davidson diagonalization with overlap
     ethr =  4.04E-04,  avg # of iterations =  5.0

     total cpu time spent up to now is        4.5 secs

     total energy              =    -501.18098240 Ry
     estimated scf accuracy    <       1.25208345 Ry

     iteration #  2     ecut=    30.00 Ry     beta= 0.50
     Davidson diagonalization with overlap
     ethr =  4.89E-04,  avg # of iterations =  3.0

     total cpu time spent up to now is        4.6 secs

     total energy              =    -500.81350840 Ry
     estimated scf accuracy    <       4.34410507 Ry

     iteration #  3     ecut=    30.00 Ry     beta= 0.50
     Davidson diagonalization with overlap
     ethr =  4.89E-04,  avg # of iterations =  4.0

     total cpu time spent up to now is        4.7 secs

     total energy              =    -501.23111505 Ry
     estimated scf accuracy    <       2.17008168 Ry

     iteration #  4     ecut=    30.00 Ry     beta= 0.50
     Davidson diagonalization with overlap
     ethr =  4.89E-04,  avg # of iterations =  2.0

     total cpu time spent up to now is        4.8 secs

     total energy              =    -501.39745067 Ry
     estimated scf accuracy    <       0.61995056 Ry

     iteration #  5     ecut=    30.00 Ry     beta= 0.50
     Davidson diagonalization with overlap
     ethr =  2.42E-04,  avg # of iterations =  2.0

     total cpu time spent up to now is        4.9 secs

     total energy              =    -501.42211281 Ry
     estimated scf accuracy    <       0.39632200 Ry

     iteration #  6     ecut=    30.00 Ry     beta= 0.50
     Davidson diagonalization with overlap
     ethr =  1.55E-04,  avg # of iterations =  2.0

     total cpu time spent up to now is        4.9 secs

     total energy              =    -501.46097231 Ry
     estimated scf accuracy    <       0.10533484 Ry

     iteration #  7     ecut=    30.00 Ry     beta= 0.50
     Davidson diagonalization with overlap
     ethr =  4.11E-05,  avg # of iterations =  2.0

     total cpu time spent up to now is        5.0 secs

     total energy              =    -501.47146699 Ry
     estimated scf accuracy    <       0.00945129 Ry

     iteration #  8     ecut=    30.00 Ry     beta= 0.50
     Davidson diagonalization with overlap
     ethr =  3.69E-06,  avg # of iterations = 18.0

     total cpu time spent up to now is        5.2 secs

     total energy              =    -501.47208522 Ry
     estimated scf accuracy    <       0.01962640 Ry

     iteration #  9     ecut=    30.00 Ry     beta= 0.50
     Davidson diagonalization with overlap
     ethr =  3.69E-06,  avg # of iterations =  3.0

     total cpu time spent up to now is        5.3 secs

     total energy              =    -501.47383279 Ry
     estimated scf accuracy    <       0.00246112 Ry

     iteration # 10     ecut=    30.00 Ry     beta= 0.50
     Davidson diagonalization with overlap
     ethr =  9.61E-07,  avg # of iterations =  2.0

     total cpu time spent up to now is        5.4 secs

     total energy              =    -501.47407290 Ry
     estimated scf accuracy    <       0.00054266 Ry

     iteration # 11     ecut=    30.00 Ry     beta= 0.50
     Davidson diagonalization with overlap
     ethr =  2.12E-07,  avg # of iterations =  3.0

     total cpu time spent up to now is        5.5 secs

     total energy              =    -501.47408153 Ry
     estimated scf accuracy    <       0.00044233 Ry

     iteration # 12     ecut=    30.00 Ry     beta= 0.50
     Davidson diagonalization with overlap
     ethr =  1.73E-07,  avg # of iterations =  3.0

     total cpu time spent up to now is        5.6 secs

     total energy              =    -501.47412560 Ry
     estimated scf accuracy    <       0.00047216 Ry

     iteration # 13     ecut=    30.00 Ry     beta= 0.50
     Davidson diagonalization with overlap
     ethr =  1.73E-07,  avg # of iterations =  1.0

     total cpu time spent up to now is        5.7 secs

     total energy              =    -501.47415866 Ry
     estimated scf accuracy    <       0.00002683 Ry

     iteration # 14     ecut=    30.00 Ry     beta= 0.50
     Davidson diagonalization with overlap
     ethr =  1.05E-08,  avg # of iterations =  4.0

     total cpu time spent up to now is        5.8 secs

     total energy              =    -501.47416375 Ry
     estimated scf accuracy    <       0.00000594 Ry

     iteration # 15     ecut=    30.00 Ry     beta= 0.50
     Davidson diagonalization with overlap
     ethr =  2.32E-09,  avg # of iterations =  4.0

     total cpu time spent up to now is        5.9 secs

     total energy              =    -501.47416379 Ry
     estimated scf accuracy    <       0.00001440 Ry

     iteration # 16     ecut=    30.00 Ry     beta= 0.50
     Davidson diagonalization with overlap
     ethr =  2.32E-09,  avg # of iterations =  3.0

     total cpu time spent up to now is        6.0 secs

     total energy              =    -501.47416441 Ry
     estimated scf accuracy    <       0.00001212 Ry

     iteration # 17     ecut=    30.00 Ry     beta= 0.50
     Davidson diagonalization with overlap
     ethr =  2.32E-09,  avg # of iterations =  2.0

     total cpu time spent up to now is        6.0 secs

     total energy              =    -501.47416516 Ry
     estimated scf accuracy    <       0.00000300 Ry

     iteration # 18     ecut=    30.00 Ry     beta= 0.50
     Davidson diagonalization with overlap
     ethr =  1.17E-09,  avg # of iterations =  2.0

     total cpu time spent up to now is        6.1 secs

     total energy              =    -501.47416536 Ry
     estimated scf accuracy    <       0.00000101 Ry

     iteration # 19     ecut=    30.00 Ry     beta= 0.50
     Davidson diagonalization with overlap
     ethr =  3.95E-10,  avg # of iterations =  2.0

     total cpu time spent up to now is        6.2 secs

     End of self-consistent calculation

          k = 0.0000 0.0000 0.0000 ( 11168 PWs)   bands (ev):

    -5.2527  -4.3362  -4.1861  -4.1464  -3.9890  -3.9143  -3.8410  -3.2564
    -3.1802  -3.0950  -3.0183  -2.9643  -2.8981  -2.8107  -2.7536  -2.6547
    -2.5705  -2.4862  -2.3536  -2.0024  -1.8882  -1.7980  -1.7841  -1.6222
    -1.4550  -1.3856  -1.2502  -0.7762  -0.6678  -0.5734  -0.3784  -0.2147
    -0.2051  -0.1485   0.0154   0.1099   0.1692   0.3408   0.3523   0.4087
     0.4961   0.5698   0.7150   0.7222   0.8266   0.8952   0.9752   1.0219
     1.1412   1.1938   1.2852   1.3576   1.4480   1.5337   1.5996   1.7170
     1.8613   1.9605   1.9998   2.0562   2.1406   2.3044   2.4401   2.4545
     2.6317   2.6747   2.8195   2.8890   2.9697   3.0289   3.0665   3.1373
     3.1717   3.2204   3.2804   3.3909   3.4978   3.5513   3.6596   3.7503
     3.8602   4.2333   4.3475   4.4307   4.4606   4.6334   4.6491   4.7294
     4.8113   4.8453   5.0153   5.0741   5.1570   5.2440   5.3471   5.3906
     5.4213   5.5011   5.5618   5.5784   5.6222   5.6844   5.7629   5.7874
     5.8277   5.9217   5.9587   6.0430   6.0841   6.0935   6.1664   6.2317
     6.2956   6.4049   6.4503   6.5039   6.5383   6.5640   6.6591   6.6838
     6.7296   6.8137   6.9398   6.9587   7.0302   7.0702   7.1268   7.1833
     7.2606   7.2816   7.3808   7.4177   7.5196   7.5407   7.6228   7.6608
     7.7193   7.8352   7.8925   7.9150   7.9762   8.0713   8.1341   8.1706
     8.2499   8.3057   8.3314   8.4368   8.6280   8.6393   8.6678   8.7167
     8.7607   8.7919

     the Fermi energy is     7.2215 ev

!    total energy              =    -501.47416536 Ry
     estimated scf accuracy    <       0.00000014 Ry
     smearing contrib. (-TS)   =      -0.14948301 Ry
     internal energy E=F+TS    =    -501.32468235 Ry

     The total energy is F=E-TS. E is the sum of the following terms:
     one-electron contribution =     196.75627733 Ry
     hartree contribution      =      20.75974707 Ry
     xc contribution           =    -150.83590032 Ry
     ewald contribution        =    -568.00480643 Ry

     convergence has been achieved in  19 iterations

     Forces acting on atoms (cartesian axes, Ry/au):

     atom    1 type  1   force =     0.01403856   -0.02144934   -0.01123868
     atom    2 type  1   force =    -0.01771683   -0.00326738   -0.00137075
     atom    3 type  1   force =     0.03036805    0.02520640   -0.00569816
     atom    4 type  1   force =     0.00935045   -0.01679124    0.00846949
     atom    5 type  1   force =    -0.01325766    0.00485422    0.03514933
     atom    6 type  1   force =    -0.01191751   -0.00975163    0.03314243
     atom    7 type  1   force =     0.00489331   -0.00755500   -0.01801399
     atom    8 type  1   force =    -0.02031345    0.00128075    0.03791282
     atom    9 type  1   force =     0.01514234   -0.00389925   -0.02061836
     atom   10 type  1   force =     0.04487324    0.02590862   -0.08285771
     atom   11 type  1   force =     0.00235271    0.02549988   -0.01054490
     atom   12 type  1   force =    -0.01598869   -0.00126245    0.00026688
     atom   13 type  1   force =     0.03392811    0.02841804   -0.07131124
     atom   14 type  1   force =     0.01254275    0.01749606   -0.00570021
     atom   15 type  1   force =    -0.00055252    0.03333793    0.03592361
     atom   16 type  1   force =     0.01215241   -0.02119106   -0.01518932
     atom   17 type  1   force =    -0.03348873    0.02421422   -0.02388173
     atom   18 type  1   force =    -0.02344061   -0.02401843   -0.00205634
     atom   19 type  1   force =    -0.02363313    0.00724902   -0.01341641
     atom   20 type  1   force =    -0.02728801   -0.00240461   -0.04694170
     atom   21 type  1   force =     0.00823591   -0.01747935    0.03100839
     atom   22 type  1   force =     0.01935629    0.00529372    0.01461971
     atom   23 type  1   force =     0.00835198    0.00186129    0.01910014
     atom   24 type  1   force =     0.03408231   -0.00283234    0.03974473
     atom   25 type  1   force =     0.05196826    0.00456114    0.00412223
     atom   26 type  1   force =     0.01886391    0.02221516   -0.01659308
     atom   27 type  1   force =    -0.01640273   -0.01033622   -0.00704450
     atom   28 type  1   force =     0.02198058   -0.02067004   -0.01949851
     atom   29 type  1   force =    -0.01946972   -0.00605178   -0.02443389
     atom   30 type  1   force =    -0.01994530   -0.00124139    0.00037490
     atom   31 type  1   force =    -0.02082320   -0.01601621   -0.00211689
     atom   32 type  1   force =     0.00027512   -0.01644088    0.00605852
     atom   33 type  1   force =    -0.03173782   -0.01724609    0.01986121
     atom   34 type  1   force =     0.01556511   -0.02102816    0.03297130
     atom   35 type  1   force =     0.02537227    0.00250537    0.01110506
     atom   36 type  1   force =    -0.01740370   -0.00541903   -0.01028515
     atom   37 type  1   force =     0.01163704   -0.00259161   -0.02108454
     atom   38 type  1   force =    -0.01468351   -0.02451566   -0.02023577
     atom   39 type  1   force =     0.02561127   -0.02339174    0.06151145
     atom   40 type  1   force =    -0.07551766   -0.02253592    0.08312047
     atom   41 type  1   force =    -0.03277898   -0.00368746    0.02950727
     atom   42 type  1   force =    -0.01157073    0.02267463   -0.00278812
     atom   43 type  1   force =     0.01325349    0.01446790   -0.02900173
     atom   44 type  1   force =     0.02434654   -0.01070264   -0.02227226
     atom   45 type  1   force =     0.01996907    0.01637549   -0.02140430
     atom   46 type  1   force =    -0.00844494   -0.01950597    0.01423571
     atom   47 type  1   force =     0.04487164    0.05106169   -0.04908773
     atom   48 type  1   force =     0.00164189    0.00211073   -0.02019999
     atom   49 type  1   force =    -0.01340064   -0.01632416    0.00740034
     atom   50 type  1   force =     0.01785134   -0.00747488   -0.00380531
     atom   51 type  1   force =    -0.02169469   -0.00759564   -0.00496189
     atom   52 type  1   force =     0.00579541   -0.00746670   -0.00820090
     atom   53 type  1   force =     0.00854725    0.04951620    0.05382706
     atom   54 type  1   force =     0.01333123    0.02623729    0.02450462
     atom   55 type  1   force =    -0.01330110    0.01162013   -0.00125075
     atom   56 type  1   force =    -0.00674849   -0.01303045    0.00450877
     atom   57 type  1   force =     0.02703361    0.00047835   -0.00130202
     atom   58 type  1   force =     0.01907183   -0.02192430   -0.01914281
     atom   59 type  1   force =    -0.01344445   -0.02841927    0.00619208
     atom   60 type  1   force =    -0.00519688    0.02993553    0.03780507
     atom   61 type  1   force =    -0.01580174    0.01025672    0.04438383
     atom   62 type  1   force =    -0.00999080    0.01974896   -0.01376889
     atom   63 type  1   force =    -0.03978069   -0.03390869   -0.05476164
     atom   64 type  1   force =    -0.02092038    0.00504158    0.00525275

     Total force =     0.336043     Total SCF correction =     0.000735


     Computing stress (Cartesian axis) and pressure

          total   stress  (Ry/bohr**3)                   (kbar)     P=      -32.75
  -0.00023341   0.00001932  -0.00004685          -34.34        2.84       -6.89
   0.00001932  -0.00020317  -0.00000990            2.84      -29.89       -1.46
  -0.00004685  -0.00000990  -0.00023135           -6.89       -1.46      -34.03

 
     init_run     :      0.96s CPU      4.19s WALL (       1 calls)
     electrons    :      1.78s CPU      1.96s WALL (       1 calls)
     forces       :      0.03s CPU      0.03s WALL (       1 calls)
     stress       :      0.14s CPU      0.14s WALL (       1 calls)

     Called by init_run:
     wfcinit      :      0.44s CPU      3.51s WALL (       1 calls)
                                        3.51s GPU  (       1 calls)
     potinit      :      0.03s CPU      0.13s WALL (       1 calls)
     hinit0       :      0.47s CPU      0.49s WALL (       1 calls)

     Called by electrons:
     c_bands      :      1.13s CPU      1.23s WALL (      20 calls)
     sum_band     :      0.34s CPU      0.39s WALL (      20 calls)
     v_of_rho     :      0.13s CPU      0.23s WALL (      20 calls)
     mix_rho      :      0.14s CPU      0.16s WALL (      20 calls)

     Called by c_bands:
     init_us_2    :      0.05s CPU      0.06s WALL (      41 calls)
     init_us_2:gp :      0.05s CPU      0.05s WALL (      41 calls)
     regterg      :      0.97s CPU      1.07s WALL (      20 calls)

     Called by *egterg:
     rdiaghg      :      0.39s CPU      1.04s WALL (      89 calls)
                                        1.02s GPU  (      89 calls)
     h_psi        :      0.85s CPU      3.32s WALL (      91 calls)
                                        3.32s GPU  (      91 calls)
     g_psi        :      0.00s CPU      0.00s WALL (      70 calls)
                                        0.00s GPU  (      70 calls)

     Called by h_psi:
     h_psi:calbec :      0.43s CPU      2.84s WALL (      91 calls)
                                        2.84s GPU  (      91 calls)
     vloc_psi     :      0.37s CPU      0.43s WALL (      91 calls)
                                        0.42s GPU  (      91 calls)
     add_vuspsi   :      0.03s CPU      0.05s WALL (      91 calls)
                                        0.05s GPU  (      91 calls)

     General routines
     calbec       :      0.44s CPU      2.84s WALL (      96 calls)
     fft          :      0.56s CPU      0.67s WALL (     167 calls)
                                        0.12s GPU  (     106 calls)
     ffts         :      0.04s CPU      0.04s WALL (      20 calls)
     fftw         :      0.46s CPU      0.59s WALL (    2108 calls)
                                        0.52s GPU  (    2108 calls)
 
     Parallel routines
 
     PWSCF        :      2.95s CPU      6.39s WALL

 
   This run was terminated on:  10:47:50  10May2023            

=------------------------------------------------------------------------------=
   JOB DONE.
=------------------------------------------------------------------------------=
