An instance of this daemon is already running
An instance of this daemon is already running

     Program PWSCF v.7.1 starts on 10May2023 at 10:43:36 

     This program is part of the open-source Quantum ESPRESSO suite
     for quantum simulation of materials; please cite
         "P. Giannozzi et al., J. Phys.:Condens. Matter 21 395502 (2009);
         "P. Giannozzi et al., J. Phys.:Condens. Matter 29 465901 (2017);
         "P. Giannozzi et al., J. Chem. Phys. 152 154105 (2020);
          URL http://www.quantum-espresso.org", 
     in publications or presentations arising from this work. More details at
     http://www.quantum-espresso.org/quote

     Parallel version (MPI & OpenMP), running on       4 processor cores
     Number of MPI processes:                 4
     Threads/MPI process:                     1

     MPI processes distributed on     1 nodes
     153236 MiB available memory on the printing compute node when the environment starts
 
     Reading input from pw-si-20.in
Warning: card &CELL ignored
Warning: card / ignored

     Current dimensions of program PWSCF are:
     Max number of different atomic species (ntypx) = 10
     Max number of k-points (npk) =  40000
     Max angular momentum in pseudopotentials (lmaxx) =  4

     IMPORTANT: XC functional enforced from input :
     Exchange-correlation= PBE
                           (   1   4   3   4   0   0   0)
     Any further DFT definition will be discarded
     Please, verify this is what you really want


     gamma-point specific algorithms are used
 
     K-points division:     npool     =       2
     R & G space division:  proc/nbgrp/npool/nimage =       2
     Subspace diagonalization in iterative solution of the eigenvalue problem:
     a serial algorithm will be used

     Message from routine divide_et_impera:
     suboptimal parallelization: some nodes have no k-points
 
     Parallelization info
     --------------------
     sticks:   dense  smooth     PW     G-vecs:    dense   smooth      PW
     Min        1929    1929    504                90087    90087   12201
     Max        1932    1932    505                90092    90092   12204
     Sum        3861    3861   1009               180179   180179   24405
 
     Using Slab Decomposition
 


     bravais-lattice index     =            0
     lattice parameter (alat)  =      20.0986  a.u.
     unit-cell volume          =    8118.8823 (a.u.)^3
     number of atoms/cell      =           64
     number of atomic types    =            1
     number of electrons       =       256.00
     number of Kohn-Sham states=          154
     kinetic-energy cutoff     =      30.0000  Ry
     charge density cutoff     =     120.0000  Ry
     scf convergence threshold =      1.0E-06
     mixing beta               =       0.5000
     number of iterations used =            8  plain     mixing
     Exchange-correlation= PBE
                           (   1   4   3   4   0   0   0)

     GPU acceleration is ACTIVE.
     GPU-aware MPI enabled

     Message from routine print_cuda_info:
     High GPU oversubscription detected. Are you sure this is what you want?

     celldm(1)=  20.098582  celldm(2)=   0.000000  celldm(3)=   0.000000
     celldm(4)=   0.000000  celldm(5)=   0.000000  celldm(6)=   0.000000

     crystal axes: (cart. coord. in units of alat)
               a(1) = (   1.000000   0.000000   0.000000 )  
               a(2) = (   0.000000   1.000000   0.000000 )  
               a(3) = (   0.000000   0.000000   1.000000 )  

     reciprocal axes: (cart. coord. in units 2 pi/alat)
               b(1) = (  1.000000  0.000000  0.000000 )  
               b(2) = (  0.000000  1.000000  0.000000 )  
               b(3) = (  0.000000  0.000000  1.000000 )  


     PseudoPot. # 1 for Si read from file:
     /home/ppiaggi/pseudos/Si_ONCV_PBE_sr.upf
     MD5 check sum: 8553c464762ac42b85b1eed164b4d029
     Pseudo is Norm-conserving, Zval =  4.0
     Generated using ONCVPSP code by D. R. Hamann
     Using radial grid of 1510 points,  4 beta functions with: 
                l(1) =   0
                l(2) =   0
                l(3) =   1
                l(4) =   1

     atomic species   valence    mass     pseudopotential
        Si             4.00    28.08500     Si( 1.00)

     No symmetry found



   Cartesian axes

     site n.     atom                  positions (alat units)
         1           Si  tau(   1) = (   0.4370740   0.5521250   0.7860090  )
         2           Si  tau(   2) = (   0.4311730   0.8472550   0.0029173  )
         3           Si  tau(   3) = (   0.7345260   0.6646680   0.3516780  )
         4           Si  tau(   4) = (   0.9881410   0.8136770   0.4019780  )
         5           Si  tau(   5) = (   0.8115880   0.4978490   0.4905810  )
         6           Si  tau(   6) = (   0.8372110   0.4747780   0.7972410  )
         7           Si  tau(   7) = (   0.9198720   0.9067310   0.1972600  )
         8           Si  tau(   8) = (   0.0962958   0.0400104   0.1312780  )
         9           Si  tau(   9) = (   0.2682380   0.6211030   0.5388700  )
        10           Si  tau(  10) = (   0.0029039   0.9252510   0.8217690  )
        11           Si  tau(  11) = (   0.2794330   0.3287140   0.6506910  )
        12           Si  tau(  12) = (   0.4382450   0.3615620   0.4072830  )
        13           Si  tau(  13) = (   0.6844910   0.4198850   0.2658250  )
        14           Si  tau(  14) = (   0.7000320   0.5878340   0.0815596  )
        15           Si  tau(  15) = (   0.4375990   0.4800880   0.1527780  )
        16           Si  tau(  16) = (   0.7360170   0.7963980   0.9563020  )
        17           Si  tau(  17) = (   0.0158438   0.6008340   0.5469850  )
        18           Si  tau(  18) = (   0.1425240   0.6531210   0.2803740  )
        19           Si  tau(  19) = (   0.2880210   0.1584890   0.7729670  )
        20           Si  tau(  20) = (   0.3309090   0.8342870   0.3000960  )
        21           Si  tau(  21) = (   0.2313760   0.4423510   0.3667970  )
        22           Si  tau(  22) = (   0.9153260   0.3643060   0.2037240  )
        23           Si  tau(  23) = (   0.8679560   0.7286960   0.7692610  )
        24           Si  tau(  24) = (   0.5563600   0.7434000   0.8520140  )
        25           Si  tau(  25) = (   0.7400600   0.4051340   0.9870750  )
        26           Si  tau(  26) = (   0.7752680   0.1618420   0.1422230  )
        27           Si  tau(  27) = (   0.1567990   0.5839460   0.0012130  )
        28           Si  tau(  28) = (   0.0532750   0.4124040   0.7921610  )
        29           Si  tau(  29) = (   0.6460340   0.4566020   0.6585440  )
        30           Si  tau(  30) = (   0.9160080   0.6143950   0.2154830  )
        31           Si  tau(  31) = (   0.0344024   0.3096340   0.9985260  )
        32           Si  tau(  32) = (   0.9893990   0.7198360   0.0091185  )
        33           Si  tau(  33) = (   0.4970120   0.7141470   0.1671940  )
        34           Si  tau(  34) = (   0.6697480   0.0800314   0.7514520  )
        35           Si  tau(  35) = (   0.5509420   0.2742150   0.6279460  )
        36           Si  tau(  36) = (   0.3424010   0.2095030   0.0631382  )
        37           Si  tau(  37) = (   0.0927572   0.0486060   0.5028040  )
        38           Si  tau(  38) = (   0.5705310   0.0070203   0.0248276  )
        39           Si  tau(  39) = (   0.8522380   0.2479060   0.6340060  )
        40           Si  tau(  40) = (   0.9256660   0.0117145   0.6346290  )
        41           Si  tau(  41) = (   0.7068670   0.2589820   0.4591150  )
        42           Si  tau(  42) = (   0.2081930   0.8305000   0.0831439  )
        43           Si  tau(  43) = (   0.5557580   0.0740437   0.4265320  )
        44           Si  tau(  44) = (   0.4910810   0.4013620   0.9499610  )
        45           Si  tau(  45) = (   0.5358310   0.1819220   0.2142290  )
        46           Si  tau(  46) = (   0.5329910   0.8018410   0.4340670  )
        47           Si  tau(  47) = (   0.4995690   0.5696760   0.5281320  )
        48           Si  tau(  48) = (   0.0500340   0.2190810   0.3228170  )
        49           Si  tau(  49) = (   0.2766820   0.0603381   0.2806200  )
        50           Si  tau(  50) = (   0.7941620   0.0542667   0.9421440  )
        51           Si  tau(  51) = (   0.4741460   0.1569300   0.8697110  )
        52           Si  tau(  52) = (   0.8076680   0.8844900   0.4816700  )
        53           Si  tau(  53) = (   0.2199530   0.8450200   0.8232110  )
        54           Si  tau(  54) = (   0.8166040   0.0844035   0.3545580  )
        55           Si  tau(  55) = (   0.7103770   0.7333060   0.6146790  )
        56           Si  tau(  56) = (   0.3403090   0.9550640   0.6649560  )
        57           Si  tau(  57) = (   0.2198810   0.5771990   0.7582140  )
        58           Si  tau(  58) = (   0.1134820   0.1245440   0.9164860  )
        59           Si  tau(  59) = (   0.2237830   0.3896560   0.1458920  )
        60           Si  tau(  60) = (   0.6740060   0.8966970   0.2248870  )
        61           Si  tau(  61) = (   0.5740680   0.9039020   0.7014600  )
        62           Si  tau(  62) = (   0.2300670   0.8602270   0.5021650  )
        63           Si  tau(  63) = (   0.0610913   0.3227940   0.5263040  )
        64           Si  tau(  64) = (   0.3519320   0.1723270   0.4563620  )

     number of k points=     1  Fermi-Dirac smearing, width (Ry)=  0.0100
                       cart. coord. in units 2pi/alat
        k(    1) = (   0.0000000   0.0000000   0.0000000), wk =   2.0000000

     Dense  grid:    90090 G-vectors     FFT dimensions: (  72,  72,  72)

     Estimated max dynamical RAM per process >     144.74 MB

     Estimated total dynamical RAM >     556.97 MB

     Initial potential from superposition of free atoms

     starting charge     255.9608, renormalised to     256.0000
     Starting wfcs are  256 randomized atomic wfcs

     total cpu time spent up to now is        4.2 secs

     Self-consistent Calculation

     iteration #  1     ecut=    30.00 Ry     beta= 0.50
     Davidson diagonalization with overlap
     ethr =  1.00E-02,  avg # of iterations =  3.0

     Threshold (ethr) on eigenvalues was too large:
     Diagonalizing with lowered threshold

     Davidson diagonalization with overlap
     ethr =  4.00E-04,  avg # of iterations =  5.0

     total cpu time spent up to now is        4.4 secs

     total energy              =    -501.12418711 Ry
     estimated scf accuracy    <       1.24262218 Ry

     iteration #  2     ecut=    30.00 Ry     beta= 0.50
     Davidson diagonalization with overlap
     ethr =  4.85E-04,  avg # of iterations =  5.0

     total cpu time spent up to now is        4.5 secs

     total energy              =    -500.70557225 Ry
     estimated scf accuracy    <       4.52658625 Ry

     iteration #  3     ecut=    30.00 Ry     beta= 0.50
     Davidson diagonalization with overlap
     ethr =  4.85E-04,  avg # of iterations =  4.0

     total cpu time spent up to now is        4.6 secs

     total energy              =    -501.12834901 Ry
     estimated scf accuracy    <       2.63409621 Ry

     iteration #  4     ecut=    30.00 Ry     beta= 0.50
     Davidson diagonalization with overlap
     ethr =  4.85E-04,  avg # of iterations =  2.0

     total cpu time spent up to now is        4.7 secs

     total energy              =    -501.29710149 Ry
     estimated scf accuracy    <       0.68760133 Ry

     iteration #  5     ecut=    30.00 Ry     beta= 0.50
     Davidson diagonalization with overlap
     ethr =  2.69E-04,  avg # of iterations =  2.0

     total cpu time spent up to now is        4.8 secs

     total energy              =    -501.32734986 Ry
     estimated scf accuracy    <       0.54818647 Ry

     iteration #  6     ecut=    30.00 Ry     beta= 0.50
     Davidson diagonalization with overlap
     ethr =  2.14E-04,  avg # of iterations =  2.0

     total cpu time spent up to now is        4.9 secs

     total energy              =    -501.37595371 Ry
     estimated scf accuracy    <       0.09057890 Ry

     iteration #  7     ecut=    30.00 Ry     beta= 0.50
     Davidson diagonalization with overlap
     ethr =  3.54E-05,  avg # of iterations =  2.0

     total cpu time spent up to now is        5.0 secs

     total energy              =    -501.38700724 Ry
     estimated scf accuracy    <       0.01300888 Ry

     iteration #  8     ecut=    30.00 Ry     beta= 0.50
     Davidson diagonalization with overlap
     ethr =  5.08E-06,  avg # of iterations = 16.0

     total cpu time spent up to now is        5.1 secs

     total energy              =    -501.38721360 Ry
     estimated scf accuracy    <       0.03111116 Ry

     iteration #  9     ecut=    30.00 Ry     beta= 0.50
     Davidson diagonalization with overlap
     ethr =  5.08E-06,  avg # of iterations =  3.0

     total cpu time spent up to now is        5.2 secs

     total energy              =    -501.38973791 Ry
     estimated scf accuracy    <       0.00256887 Ry

     iteration # 10     ecut=    30.00 Ry     beta= 0.50
     Davidson diagonalization with overlap
     ethr =  1.00E-06,  avg # of iterations =  3.0

     total cpu time spent up to now is        5.3 secs

     total energy              =    -501.39004739 Ry
     estimated scf accuracy    <       0.00061669 Ry

     iteration # 11     ecut=    30.00 Ry     beta= 0.50
     Davidson diagonalization with overlap
     ethr =  2.41E-07,  avg # of iterations =  3.0

     total cpu time spent up to now is        5.4 secs

     total energy              =    -501.39009658 Ry
     estimated scf accuracy    <       0.00015925 Ry

     iteration # 12     ecut=    30.00 Ry     beta= 0.50
     Davidson diagonalization with overlap
     ethr =  6.22E-08,  avg # of iterations =  5.0

     total cpu time spent up to now is        5.5 secs

     total energy              =    -501.39008847 Ry
     estimated scf accuracy    <       0.00068762 Ry

     iteration # 13     ecut=    30.00 Ry     beta= 0.50
     Davidson diagonalization with overlap
     ethr =  6.22E-08,  avg # of iterations =  3.0

     total cpu time spent up to now is        5.6 secs

     total energy              =    -501.39013771 Ry
     estimated scf accuracy    <       0.00002378 Ry

     iteration # 14     ecut=    30.00 Ry     beta= 0.50
     Davidson diagonalization with overlap
     ethr =  9.29E-09,  avg # of iterations =  5.0

     total cpu time spent up to now is        5.7 secs

     total energy              =    -501.39013971 Ry
     estimated scf accuracy    <       0.00002327 Ry

     iteration # 15     ecut=    30.00 Ry     beta= 0.50
     Davidson diagonalization with overlap
     ethr =  9.09E-09,  avg # of iterations =  3.0

     total cpu time spent up to now is        5.8 secs

     total energy              =    -501.39014122 Ry
     estimated scf accuracy    <       0.00001304 Ry

     iteration # 16     ecut=    30.00 Ry     beta= 0.50
     Davidson diagonalization with overlap
     ethr =  5.09E-09,  avg # of iterations =  2.0

     total cpu time spent up to now is        5.9 secs

     total energy              =    -501.39014222 Ry
     estimated scf accuracy    <       0.00000660 Ry

     iteration # 17     ecut=    30.00 Ry     beta= 0.50
     Davidson diagonalization with overlap
     ethr =  2.58E-09,  avg # of iterations =  2.0

     total cpu time spent up to now is        6.0 secs

     total energy              =    -501.39014265 Ry
     estimated scf accuracy    <       0.00000262 Ry

     iteration # 18     ecut=    30.00 Ry     beta= 0.50
     Davidson diagonalization with overlap
     ethr =  1.02E-09,  avg # of iterations =  2.0

     total cpu time spent up to now is        6.1 secs

     total energy              =    -501.39014286 Ry
     estimated scf accuracy    <       0.00000111 Ry

     iteration # 19     ecut=    30.00 Ry     beta= 0.50
     Davidson diagonalization with overlap
     ethr =  4.33E-10,  avg # of iterations =  2.0

     total cpu time spent up to now is        6.1 secs

     End of self-consistent calculation

          k = 0.0000 0.0000 0.0000 ( 11288 PWs)   bands (ev):

    -5.3669  -4.4352  -4.3219  -4.2489  -4.1073  -4.0609  -3.8246  -3.3998
    -3.2636  -3.1882  -3.1345  -3.0531  -2.9611  -2.9226  -2.8034  -2.6848
    -2.6466  -2.5576  -2.3820  -2.1540  -2.0518  -1.9305  -1.8418  -1.7382
    -1.4346  -1.2938  -1.2450  -0.8300  -0.7454  -0.6160  -0.5848  -0.3474
    -0.2032  -0.1592  -0.0359  -0.0102   0.0073   0.1661   0.2782   0.3669
     0.4109   0.5177   0.5387   0.6663   0.7016   0.8244   0.8510   0.9606
     1.0879   1.1531   1.2542   1.3586   1.4735   1.5203   1.6179   1.7018
     1.8303   1.9456   2.0525   2.1535   2.2203   2.2788   2.3240   2.3809
     2.5637   2.6461   2.6836   2.7701   2.8031   2.8903   2.9193   3.0712
     3.0899   3.2231   3.2704   3.3774   3.4107   3.4487   3.6196   3.6773
     3.7873   4.2185   4.2942   4.4613   4.5187   4.5716   4.5902   4.6866
     4.7406   4.9500   4.9864   5.0116   5.0701   5.1118   5.1696   5.1896
     5.2792   5.3274   5.3846   5.4159   5.5367   5.5665   5.6441   5.6874
     5.7390   5.8083   5.8968   5.9803   6.0567   6.1004   6.1512   6.2239
     6.2538   6.3394   6.3641   6.4152   6.4316   6.5551   6.5822   6.6529
     6.7689   6.7857   6.8090   6.9007   6.9506   7.0402   7.1302   7.1941
     7.2389   7.2432   7.2920   7.3828   7.4247   7.4894   7.5553   7.6259
     7.6833   7.7528   7.7805   7.8727   7.8886   7.9542   8.0527   8.1050
     8.1363   8.1835   8.2444   8.3367   8.3912   8.4746   8.5682   8.6003
     8.6595   8.7242

     the Fermi energy is     7.1810 ev

!    total energy              =    -501.39014276 Ry
     estimated scf accuracy    <       0.00000025 Ry
     smearing contrib. (-TS)   =      -0.15225452 Ry
     internal energy E=F+TS    =    -501.23788824 Ry

     The total energy is F=E-TS. E is the sum of the following terms:
     one-electron contribution =     189.84302955 Ry
     hartree contribution      =      23.61713025 Ry
     xc contribution           =    -150.89050048 Ry
     ewald contribution        =    -563.80754756 Ry

     convergence has been achieved in  19 iterations

     Forces acting on atoms (cartesian axes, Ry/au):

     atom    1 type  1   force =     0.04369036    0.00467855   -0.00984170
     atom    2 type  1   force =    -0.06443397   -0.02562317   -0.00916154
     atom    3 type  1   force =    -0.01074836   -0.00854267   -0.00341461
     atom    4 type  1   force =     0.06815051   -0.04120517   -0.03830310
     atom    5 type  1   force =     0.00165044    0.01148094   -0.00763873
     atom    6 type  1   force =    -0.00179336    0.01626112   -0.00919910
     atom    7 type  1   force =     0.00051198   -0.00125755    0.00104655
     atom    8 type  1   force =     0.02595642   -0.02960044    0.00750230
     atom    9 type  1   force =    -0.00071279    0.01695141   -0.00364338
     atom   10 type  1   force =     0.00685452    0.00096781    0.02641618
     atom   11 type  1   force =    -0.02243608    0.03955856   -0.05537436
     atom   12 type  1   force =     0.02363838    0.04792820   -0.00967186
     atom   13 type  1   force =    -0.01284953   -0.01424083    0.02870676
     atom   14 type  1   force =    -0.00938516    0.08332666    0.04165928
     atom   15 type  1   force =     0.00262007    0.01668242    0.02103527
     atom   16 type  1   force =     0.04966422   -0.00722929    0.01758122
     atom   17 type  1   force =    -0.01948882    0.00142102    0.01152499
     atom   18 type  1   force =    -0.00718669    0.00789693   -0.00127061
     atom   19 type  1   force =    -0.03209945   -0.07315567    0.00079452
     atom   20 type  1   force =     0.00749501    0.00189219    0.00395383
     atom   21 type  1   force =    -0.02968478    0.00389825    0.00980329
     atom   22 type  1   force =    -0.01926975   -0.01238856   -0.03277805
     atom   23 type  1   force =     0.01873488   -0.02668072    0.04272281
     atom   24 type  1   force =    -0.04524919   -0.02338294   -0.01565569
     atom   25 type  1   force =    -0.01709514   -0.04462135   -0.02609993
     atom   26 type  1   force =    -0.02005584    0.03074471    0.00015294
     atom   27 type  1   force =     0.03649322   -0.02009330   -0.00825230
     atom   28 type  1   force =     0.01802154    0.01379884   -0.00383963
     atom   29 type  1   force =     0.04071029    0.06532473    0.01025952
     atom   30 type  1   force =     0.00835802    0.00012125   -0.01502887
     atom   31 type  1   force =     0.00752670    0.04464723    0.01406664
     atom   32 type  1   force =    -0.04687290    0.03160552    0.02121625
     atom   33 type  1   force =     0.02097645   -0.03825394    0.01655687
     atom   34 type  1   force =     0.01434576    0.09408489    0.01328486
     atom   35 type  1   force =    -0.03041595   -0.06714927   -0.01131717
     atom   36 type  1   force =     0.02115004   -0.00133252    0.02491621
     atom   37 type  1   force =     0.02223634    0.01495175   -0.04313129
     atom   38 type  1   force =     0.03151979    0.03908783    0.02216870
     atom   39 type  1   force =     0.01413853   -0.02241022    0.00492428
     atom   40 type  1   force =    -0.03640838    0.03472617    0.00264963
     atom   41 type  1   force =    -0.00743794    0.01991620   -0.01561357
     atom   42 type  1   force =    -0.00464113    0.00305189   -0.01395911
     atom   43 type  1   force =     0.00709572   -0.01527052   -0.02758621
     atom   44 type  1   force =     0.04334865   -0.04556912   -0.00834308
     atom   45 type  1   force =     0.01388789   -0.00014972   -0.00726933
     atom   46 type  1   force =     0.00726492   -0.00341426   -0.01338497
     atom   47 type  1   force =    -0.02197619    0.01145499    0.00116074
     atom   48 type  1   force =    -0.00380058   -0.01802159    0.00659958
     atom   49 type  1   force =    -0.01045397   -0.02137344   -0.03815924
     atom   50 type  1   force =     0.00462233   -0.05157529    0.00880463
     atom   51 type  1   force =     0.05292321    0.03400497    0.03821870
     atom   52 type  1   force =    -0.03491572    0.04017634    0.01732931
     atom   53 type  1   force =    -0.01487271   -0.02766897    0.01915369
     atom   54 type  1   force =     0.01779841   -0.02923134   -0.00338410
     atom   55 type  1   force =    -0.03708298    0.00440724   -0.03031028
     atom   56 type  1   force =     0.03886850    0.02153953    0.02182746
     atom   57 type  1   force =    -0.02431795    0.01175266    0.03454518
     atom   58 type  1   force =     0.00168884   -0.02835988    0.01360036
     atom   59 type  1   force =    -0.01053965    0.01236851   -0.02322265
     atom   60 type  1   force =    -0.00175172    0.00675163    0.00670390
     atom   61 type  1   force =    -0.06435524   -0.05825137   -0.03977810
     atom   62 type  1   force =    -0.01894388   -0.03181532   -0.02574636
     atom   63 type  1   force =     0.02552121    0.01865659    0.01008144
     atom   64 type  1   force =    -0.01618736   -0.01824911    0.02941103

     Total force =     0.382803     Total SCF correction =     0.001008


     Computing stress (Cartesian axis) and pressure

          total   stress  (Ry/bohr**3)                   (kbar)     P=      -26.28
  -0.00015052  -0.00002014   0.00001651          -22.14       -2.96        2.43
  -0.00002014  -0.00028425   0.00000872           -2.96      -41.81        1.28
   0.00001651   0.00000872  -0.00010124            2.43        1.28      -14.89

 
     init_run     :      0.91s CPU      4.15s WALL (       1 calls)
     electrons    :      1.73s CPU      1.92s WALL (       1 calls)
     forces       :      0.03s CPU      0.03s WALL (       1 calls)
     stress       :      0.14s CPU      0.15s WALL (       1 calls)

     Called by init_run:
     wfcinit      :      0.42s CPU      3.50s WALL (       1 calls)
                                        3.50s GPU  (       1 calls)
     potinit      :      0.03s CPU      0.12s WALL (       1 calls)
     hinit0       :      0.44s CPU      0.47s WALL (       1 calls)

     Called by electrons:
     c_bands      :      1.15s CPU      1.26s WALL (      20 calls)
     sum_band     :      0.30s CPU      0.34s WALL (      20 calls)
     v_of_rho     :      0.12s CPU      0.22s WALL (      20 calls)
     mix_rho      :      0.13s CPU      0.15s WALL (      20 calls)

     Called by c_bands:
     init_us_2    :      0.05s CPU      0.05s WALL (      41 calls)
     init_us_2:gp :      0.05s CPU      0.05s WALL (      41 calls)
     regterg      :      1.00s CPU      1.11s WALL (      20 calls)

     Called by *egterg:
     rdiaghg      :      0.42s CPU      1.08s WALL (      93 calls)
                                        1.06s GPU  (      93 calls)
     h_psi        :      0.82s CPU      3.32s WALL (      95 calls)
                                        3.32s GPU  (      95 calls)
     g_psi        :      0.00s CPU      0.00s WALL (      74 calls)
                                        0.00s GPU  (      74 calls)

     Called by h_psi:
     h_psi:calbec :      0.40s CPU      2.84s WALL (      95 calls)
                                        2.84s GPU  (      95 calls)
     vloc_psi     :      0.37s CPU      0.43s WALL (      95 calls)
                                        0.43s GPU  (      95 calls)
     add_vuspsi   :      0.03s CPU      0.05s WALL (      95 calls)
                                        0.05s GPU  (      95 calls)

     General routines
     calbec       :      0.41s CPU      2.84s WALL (     100 calls)
     fft          :      0.53s CPU      0.66s WALL (     167 calls)
                                        0.12s GPU  (     106 calls)
     ffts         :      0.03s CPU      0.03s WALL (      20 calls)
     fftw         :      0.44s CPU      0.58s WALL (    2114 calls)
                                        0.51s GPU  (    2114 calls)
 
     Parallel routines
 
     PWSCF        :      2.84s CPU      6.32s WALL

 
   This run was terminated on:  10:43:42  10May2023            

=------------------------------------------------------------------------------=
   JOB DONE.
=------------------------------------------------------------------------------=
