An instance of this daemon is already running
An instance of this daemon is already running
An instance of this daemon is already running

     Program PWSCF v.7.1 starts on 10May2023 at 10:48:10 

     This program is part of the open-source Quantum ESPRESSO suite
     for quantum simulation of materials; please cite
         "P. Giannozzi et al., J. Phys.:Condens. Matter 21 395502 (2009);
         "P. Giannozzi et al., J. Phys.:Condens. Matter 29 465901 (2017);
         "P. Giannozzi et al., J. Chem. Phys. 152 154105 (2020);
          URL http://www.quantum-espresso.org", 
     in publications or presentations arising from this work. More details at
     http://www.quantum-espresso.org/quote

     Parallel version (MPI & OpenMP), running on       4 processor cores
     Number of MPI processes:                 4
     Threads/MPI process:                     1

     MPI processes distributed on     1 nodes
     153193 MiB available memory on the printing compute node when the environment starts
 
     Reading input from pw-si-51.in
Warning: card &CELL ignored
Warning: card / ignored

     Current dimensions of program PWSCF are:
     Max number of different atomic species (ntypx) = 10
     Max number of k-points (npk) =  40000
     Max angular momentum in pseudopotentials (lmaxx) =  4

     IMPORTANT: XC functional enforced from input :
     Exchange-correlation= PBE
                           (   1   4   3   4   0   0   0)
     Any further DFT definition will be discarded
     Please, verify this is what you really want


     gamma-point specific algorithms are used
 
     K-points division:     npool     =       2
     R & G space division:  proc/nbgrp/npool/nimage =       2
     Subspace diagonalization in iterative solution of the eigenvalue problem:
     a serial algorithm will be used

     Message from routine divide_et_impera:
     suboptimal parallelization: some nodes have no k-points
 
     Parallelization info
     --------------------
     sticks:   dense  smooth     PW     G-vecs:    dense   smooth      PW
     Min        1933    1933    516                90543    90543   12416
     Max        1936    1936    517                90548    90548   12421
     Sum        3869    3869   1033               181091   181091   24837
 
     Using Slab Decomposition
 


     bravais-lattice index     =            0
     lattice parameter (alat)  =      20.1396  a.u.
     unit-cell volume          =    8168.7033 (a.u.)^3
     number of atoms/cell      =           64
     number of atomic types    =            1
     number of electrons       =       256.00
     number of Kohn-Sham states=          154
     kinetic-energy cutoff     =      30.0000  Ry
     charge density cutoff     =     120.0000  Ry
     scf convergence threshold =      1.0E-06
     mixing beta               =       0.5000
     number of iterations used =            8  plain     mixing
     Exchange-correlation= PBE
                           (   1   4   3   4   0   0   0)

     GPU acceleration is ACTIVE.
     GPU-aware MPI enabled

     Message from routine print_cuda_info:
     High GPU oversubscription detected. Are you sure this is what you want?

     celldm(1)=  20.139609  celldm(2)=   0.000000  celldm(3)=   0.000000
     celldm(4)=   0.000000  celldm(5)=   0.000000  celldm(6)=   0.000000

     crystal axes: (cart. coord. in units of alat)
               a(1) = (   1.000000   0.000000   0.000000 )  
               a(2) = (   0.000000   1.000000   0.000000 )  
               a(3) = (   0.000000   0.000000   1.000000 )  

     reciprocal axes: (cart. coord. in units 2 pi/alat)
               b(1) = (  1.000000  0.000000  0.000000 )  
               b(2) = (  0.000000  1.000000  0.000000 )  
               b(3) = (  0.000000  0.000000  1.000000 )  


     PseudoPot. # 1 for Si read from file:
     /home/ppiaggi/pseudos/Si_ONCV_PBE_sr.upf
     MD5 check sum: 8553c464762ac42b85b1eed164b4d029
     Pseudo is Norm-conserving, Zval =  4.0
     Generated using ONCVPSP code by D. R. Hamann
     Using radial grid of 1510 points,  4 beta functions with: 
                l(1) =   0
                l(2) =   0
                l(3) =   1
                l(4) =   1

     atomic species   valence    mass     pseudopotential
        Si             4.00    28.08500     Si( 1.00)

     No symmetry found



   Cartesian axes

     site n.     atom                  positions (alat units)
         1           Si  tau(   1) = (   0.8913350   0.6922930   0.0149720  )
         2           Si  tau(   2) = (   0.9251120   0.7935880   0.3139540  )
         3           Si  tau(   3) = (   0.1682710   0.5771370   0.0098615  )
         4           Si  tau(   4) = (   0.4370240   0.3722130   0.8337720  )
         5           Si  tau(   5) = (   0.2246860   0.1231550   0.7891160  )
         6           Si  tau(   6) = (   0.3008770   0.7869500   0.1550600  )
         7           Si  tau(   7) = (   0.4932820   0.0674759   0.5655250  )
         8           Si  tau(   8) = (   0.0623937   0.7841480   0.1318890  )
         9           Si  tau(   9) = (   0.0055434   0.4153450   0.7378610  )
        10           Si  tau(  10) = (   0.9329260   0.0918000   0.6790900  )
        11           Si  tau(  11) = (   0.6959920   0.1197070   0.4371620  )
        12           Si  tau(  12) = (   0.0292461   0.9927840   0.0362385  )
        13           Si  tau(  13) = (   0.4751550   0.0273879   0.0462515  )
        14           Si  tau(  14) = (   0.8701020   0.3189540   0.3765860  )
        15           Si  tau(  15) = (   0.2665250   0.9629500   0.4401480  )
        16           Si  tau(  16) = (   0.7192700   0.5847750   0.4903530  )
        17           Si  tau(  17) = (   0.4224560   0.8945590   0.7359060  )
        18           Si  tau(  18) = (   0.8790350   0.3371740   0.0350356  )
        19           Si  tau(  19) = (   0.8797340   0.9787480   0.4929870  )
        20           Si  tau(  20) = (   0.6898890   0.3143150   0.9014720  )
        21           Si  tau(  21) = (   0.0650933   0.0972498   0.4055710  )
        22           Si  tau(  22) = (   0.6086400   0.1905030   0.0887919  )
        23           Si  tau(  23) = (   0.1140940   0.5378970   0.5898330  )
        24           Si  tau(  24) = (   0.0954853   0.4054840   0.4082700  )
        25           Si  tau(  25) = (   0.4412660   0.4235130   0.0949413  )
        26           Si  tau(  26) = (   0.6174190   0.6076890   0.1552710  )
        27           Si  tau(  27) = (   0.6536190   0.5610980   0.9102810  )
        28           Si  tau(  28) = (   0.5399350   0.5114530   0.3620980  )
        29           Si  tau(  29) = (   0.7992530   0.9115350   0.7852600  )
        30           Si  tau(  30) = (   0.3302710   0.2397110   0.5428530  )
        31           Si  tau(  31) = (   0.5369020   0.2840160   0.2798520  )
        32           Si  tau(  32) = (   0.1917450   0.1248810   0.1562430  )
        33           Si  tau(  33) = (   0.4438350   0.6590030   0.5229530  )
        34           Si  tau(  34) = (   0.9545170   0.1927950   0.2080300  )
        35           Si  tau(  35) = (   0.3479290   0.0005059   0.2460350  )
        36           Si  tau(  36) = (   0.5942870   0.7647890   0.7285610  )
        37           Si  tau(  37) = (   0.0669154   0.3925750   0.9590100  )
        38           Si  tau(  38) = (   0.4781430   0.8085620   0.9862290  )
        39           Si  tau(  39) = (   0.1367050   0.7514910   0.4086040  )
        40           Si  tau(  40) = (   0.4563140   0.4053480   0.6050370  )
        41           Si  tau(  41) = (   0.0505372   0.7018560   0.8423850  )
        42           Si  tau(  42) = (   0.8281360   0.5350850   0.1471840  )
        43           Si  tau(  43) = (   0.2145720   0.8376020   0.6573610  )
        44           Si  tau(  44) = (   0.2518260   0.4721440   0.2053830  )
        45           Si  tau(  45) = (   0.8064830   0.2845820   0.6982110  )
        46           Si  tau(  46) = (   0.3035690   0.6257100   0.3380960  )
        47           Si  tau(  47) = (   0.7196930   0.8192380   0.5372370  )
        48           Si  tau(  48) = (   0.7032060   0.8327450   0.2540290  )
        49           Si  tau(  49) = (   0.9093330   0.5648630   0.3299150  )
        50           Si  tau(  50) = (   0.2981100   0.2710550   0.3389830  )
        51           Si  tau(  51) = (   0.3943880   0.6058650   0.8869090  )
        52           Si  tau(  52) = (   0.7256070   0.8261160   0.0054782  )
        53           Si  tau(  53) = (   0.8301610   0.0745016   0.9691910  )
        54           Si  tau(  54) = (   0.4310270   0.1037540   0.8557250  )
        55           Si  tau(  55) = (   0.1110270   0.2348410   0.6333950  )
        56           Si  tau(  56) = (   0.2985520   0.6253280   0.6692640  )
        57           Si  tau(  57) = (   0.8146100   0.5715800   0.7164930  )
        58           Si  tau(  58) = (   0.6875890   0.3512950   0.5319010  )
        59           Si  tau(  59) = (   0.9537590   0.7591510   0.6038260  )
        60           Si  tau(  60) = (   0.2495730   0.2785360   0.9646980  )
        61           Si  tau(  61) = (   0.5095270   0.8787250   0.4094160  )
        62           Si  tau(  62) = (   0.7668890   0.0519048   0.2130830  )
        63           Si  tau(  63) = (   0.0869649   0.9541430   0.8192510  )
        64           Si  tau(  64) = (   0.6458690   0.0927419   0.7235200  )

     number of k points=     1  Fermi-Dirac smearing, width (Ry)=  0.0100
                       cart. coord. in units 2pi/alat
        k(    1) = (   0.0000000   0.0000000   0.0000000), wk =   2.0000000

     Dense  grid:    90546 G-vectors     FFT dimensions: (  72,  72,  72)

     Estimated max dynamical RAM per process >     145.50 MB

     Estimated total dynamical RAM >     559.89 MB

     Initial potential from superposition of free atoms

     starting charge     255.9608, renormalised to     256.0000
     Starting wfcs are  256 randomized atomic wfcs

     total cpu time spent up to now is        4.3 secs

     Self-consistent Calculation

     iteration #  1     ecut=    30.00 Ry     beta= 0.50
     Davidson diagonalization with overlap
     ethr =  1.00E-02,  avg # of iterations =  3.0

     Threshold (ethr) on eigenvalues was too large:
     Diagonalizing with lowered threshold

     Davidson diagonalization with overlap
     ethr =  3.92E-04,  avg # of iterations =  4.0

     total cpu time spent up to now is        4.5 secs

     total energy              =    -501.35045134 Ry
     estimated scf accuracy    <       1.18800769 Ry

     iteration #  2     ecut=    30.00 Ry     beta= 0.50
     Davidson diagonalization with overlap
     ethr =  4.64E-04,  avg # of iterations =  3.0

     total cpu time spent up to now is        4.6 secs

     total energy              =    -501.10621070 Ry
     estimated scf accuracy    <       2.44461522 Ry

     iteration #  3     ecut=    30.00 Ry     beta= 0.50
     Davidson diagonalization with overlap
     ethr =  4.64E-04,  avg # of iterations =  3.0

     total cpu time spent up to now is        4.7 secs

     total energy              =    -501.29671124 Ry
     estimated scf accuracy    <       2.75759002 Ry

     iteration #  4     ecut=    30.00 Ry     beta= 0.50
     Davidson diagonalization with overlap
     ethr =  4.64E-04,  avg # of iterations =  2.0

     total cpu time spent up to now is        4.7 secs

     total energy              =    -501.49211022 Ry
     estimated scf accuracy    <       0.56826102 Ry

     iteration #  5     ecut=    30.00 Ry     beta= 0.50
     Davidson diagonalization with overlap
     ethr =  2.22E-04,  avg # of iterations =  2.0

     total cpu time spent up to now is        4.8 secs

     total energy              =    -501.53050952 Ry
     estimated scf accuracy    <       0.23927608 Ry

     iteration #  6     ecut=    30.00 Ry     beta= 0.50
     Davidson diagonalization with overlap
     ethr =  9.35E-05,  avg # of iterations =  2.0

     total cpu time spent up to now is        4.9 secs

     total energy              =    -501.55280321 Ry
     estimated scf accuracy    <       0.18596118 Ry

     iteration #  7     ecut=    30.00 Ry     beta= 0.50
     Davidson diagonalization with overlap
     ethr =  7.26E-05,  avg # of iterations =  1.0

     total cpu time spent up to now is        5.0 secs

     total energy              =    -501.56771921 Ry
     estimated scf accuracy    <       0.00658571 Ry

     iteration #  8     ecut=    30.00 Ry     beta= 0.50
     Davidson diagonalization with overlap
     ethr =  2.57E-06,  avg # of iterations = 18.0

     total cpu time spent up to now is        5.2 secs

     total energy              =    -501.56895307 Ry
     estimated scf accuracy    <       0.00601749 Ry

     iteration #  9     ecut=    30.00 Ry     beta= 0.50
     Davidson diagonalization with overlap
     ethr =  2.35E-06,  avg # of iterations =  2.0

     total cpu time spent up to now is        5.3 secs

     total energy              =    -501.56944321 Ry
     estimated scf accuracy    <       0.00589188 Ry

     iteration # 10     ecut=    30.00 Ry     beta= 0.50
     Davidson diagonalization with overlap
     ethr =  2.30E-06,  avg # of iterations =  2.0

     total cpu time spent up to now is        5.3 secs

     total energy              =    -501.56984979 Ry
     estimated scf accuracy    <       0.00085625 Ry

     iteration # 11     ecut=    30.00 Ry     beta= 0.50
     Davidson diagonalization with overlap
     ethr =  3.34E-07,  avg # of iterations =  2.0

     total cpu time spent up to now is        5.4 secs

     total energy              =    -501.56994122 Ry
     estimated scf accuracy    <       0.00021086 Ry

     iteration # 12     ecut=    30.00 Ry     beta= 0.50
     Davidson diagonalization with overlap
     ethr =  8.24E-08,  avg # of iterations =  4.0

     total cpu time spent up to now is        5.5 secs

     total energy              =    -501.56994667 Ry
     estimated scf accuracy    <       0.00050112 Ry

     iteration # 13     ecut=    30.00 Ry     beta= 0.50
     Davidson diagonalization with overlap
     ethr =  8.24E-08,  avg # of iterations =  3.0

     total cpu time spent up to now is        5.6 secs

     total energy              =    -501.56997607 Ry
     estimated scf accuracy    <       0.00014908 Ry

     iteration # 14     ecut=    30.00 Ry     beta= 0.50
     Davidson diagonalization with overlap
     ethr =  5.82E-08,  avg # of iterations =  2.0

     total cpu time spent up to now is        5.7 secs

     total energy              =    -501.56998740 Ry
     estimated scf accuracy    <       0.00003721 Ry

     iteration # 15     ecut=    30.00 Ry     beta= 0.50
     Davidson diagonalization with overlap
     ethr =  1.45E-08,  avg # of iterations =  2.0

     total cpu time spent up to now is        5.8 secs

     total energy              =    -501.56998930 Ry
     estimated scf accuracy    <       0.00000980 Ry

     iteration # 16     ecut=    30.00 Ry     beta= 0.50
     Davidson diagonalization with overlap
     ethr =  3.83E-09,  avg # of iterations =  4.0

     total cpu time spent up to now is        5.9 secs

     total energy              =    -501.56999069 Ry
     estimated scf accuracy    <       0.00000690 Ry

     iteration # 17     ecut=    30.00 Ry     beta= 0.50
     Davidson diagonalization with overlap
     ethr =  2.70E-09,  avg # of iterations =  2.0

     total cpu time spent up to now is        5.9 secs

     total energy              =    -501.56999094 Ry
     estimated scf accuracy    <       0.00000288 Ry

     iteration # 18     ecut=    30.00 Ry     beta= 0.50
     Davidson diagonalization with overlap
     ethr =  1.13E-09,  avg # of iterations =  2.0

     total cpu time spent up to now is        6.0 secs

     total energy              =    -501.56999120 Ry
     estimated scf accuracy    <       0.00000132 Ry

     iteration # 19     ecut=    30.00 Ry     beta= 0.50
     Davidson diagonalization with overlap
     ethr =  5.14E-10,  avg # of iterations =  1.0

     total cpu time spent up to now is        6.1 secs

     End of self-consistent calculation

          k = 0.0000 0.0000 0.0000 ( 11372 PWs)   bands (ev):

    -5.3420  -4.4079  -4.3312  -4.2360  -4.1026  -4.0107  -3.9876  -3.4556
    -3.3422  -3.2272  -3.1762  -3.1019  -3.0650  -2.9555  -2.8444  -2.8103
    -2.7648  -2.6701  -2.6041  -2.1588  -2.0673  -1.9362  -1.8405  -1.8190
    -1.6414  -1.5488  -1.3957  -0.9511  -0.7583  -0.7326  -0.6382  -0.5539
    -0.4322  -0.2734  -0.1690  -0.0862   0.0041   0.0689   0.1788   0.2268
     0.3675   0.4154   0.5754   0.6536   0.6993   0.7542   0.7671   0.9003
     1.0154   1.0907   1.1635   1.2285   1.3053   1.3413   1.4328   1.6513
     1.7193   1.9158   1.9198   2.0175   2.1319   2.1969   2.2462   2.3020
     2.5440   2.5776   2.6413   2.7514   2.8419   2.8959   2.9417   2.9648
     3.0563   3.0738   3.1665   3.2859   3.3205   3.4552   3.4952   3.6821
     3.7883   4.2271   4.2307   4.3534   4.3881   4.4270   4.5159   4.5615
     4.6314   4.7192   4.7372   4.8405   4.9677   5.0889   5.1121   5.1416
     5.2232   5.2680   5.3145   5.3994   5.4479   5.5236   5.5611   5.6564
     5.6856   5.7282   5.7352   5.8055   5.8480   5.9287   5.9648   6.0196
     6.0741   6.1422   6.2854   6.3077   6.3740   6.4530   6.4900   6.5542
     6.6769   6.7160   6.7608   6.7971   6.8846   6.9045   6.9187   6.9820
     7.0332   7.0561   7.1852   7.2225   7.3072   7.3839   7.4784   7.5218
     7.6169   7.6192   7.6504   7.7934   7.8684   7.9010   7.9350   8.0193
     8.1125   8.1997   8.2526   8.3186   8.3731   8.4681   8.5344   8.6057
     8.6987   8.7403

     the Fermi energy is     7.0356 ev

!    total energy              =    -501.56999115 Ry
     estimated scf accuracy    <       0.00000019 Ry
     smearing contrib. (-TS)   =      -0.15635005 Ry
     internal energy E=F+TS    =    -501.41364110 Ry

     The total energy is F=E-TS. E is the sum of the following terms:
     one-electron contribution =     190.52481377 Ry
     hartree contribution      =      22.52544805 Ry
     xc contribution           =    -151.00198517 Ry
     ewald contribution        =    -563.46191775 Ry

     convergence has been achieved in  19 iterations

     Forces acting on atoms (cartesian axes, Ry/au):

     atom    1 type  1   force =     0.04191596   -0.00346010   -0.04028167
     atom    2 type  1   force =     0.00866066   -0.00541885    0.01388443
     atom    3 type  1   force =     0.02884486    0.03422851   -0.00089148
     atom    4 type  1   force =     0.01828878    0.00040129    0.01175456
     atom    5 type  1   force =    -0.00710960    0.02982631    0.02453267
     atom    6 type  1   force =    -0.00067897    0.00827747    0.02549031
     atom    7 type  1   force =    -0.01000634   -0.03234147   -0.01123715
     atom    8 type  1   force =     0.01710789    0.03512371   -0.00138845
     atom    9 type  1   force =    -0.02180607    0.00673221    0.01961255
     atom   10 type  1   force =     0.01792611   -0.00878820    0.01792071
     atom   11 type  1   force =    -0.01752561    0.03457165   -0.01736327
     atom   12 type  1   force =     0.01745017   -0.01108726    0.00865601
     atom   13 type  1   force =    -0.02083286   -0.01862675    0.05503972
     atom   14 type  1   force =     0.02267466    0.02082223    0.01430599
     atom   15 type  1   force =    -0.04462462   -0.01943839    0.05921603
     atom   16 type  1   force =     0.03640695   -0.00374850   -0.00207309
     atom   17 type  1   force =    -0.01216454    0.03893072    0.00166742
     atom   18 type  1   force =    -0.03771128   -0.01261041    0.04854241
     atom   19 type  1   force =     0.00801820   -0.01367867   -0.00669904
     atom   20 type  1   force =    -0.00228777    0.00287749    0.00017119
     atom   21 type  1   force =     0.01798371    0.01463011    0.00935541
     atom   22 type  1   force =     0.04483073   -0.00255895   -0.00173093
     atom   23 type  1   force =    -0.01089446    0.01862030   -0.01872430
     atom   24 type  1   force =    -0.01285514    0.00270034   -0.01757523
     atom   25 type  1   force =     0.00914951   -0.01278398    0.00229778
     atom   26 type  1   force =    -0.02180425   -0.00207807    0.00533697
     atom   27 type  1   force =    -0.01623837   -0.00110921   -0.02603277
     atom   28 type  1   force =     0.01457761   -0.00774791   -0.02395665
     atom   29 type  1   force =    -0.03025825    0.01849973    0.01737644
     atom   30 type  1   force =    -0.01566548   -0.03700144    0.04278024
     atom   31 type  1   force =    -0.02681091    0.02467585    0.00911680
     atom   32 type  1   force =    -0.03620258    0.04193360   -0.01784492
     atom   33 type  1   force =     0.05069207    0.01044321   -0.05213121
     atom   34 type  1   force =    -0.00380121   -0.01257469   -0.00664082
     atom   35 type  1   force =     0.02471120   -0.03941715   -0.05523407
     atom   36 type  1   force =     0.03983260   -0.02172643   -0.00503381
     atom   37 type  1   force =     0.00785938    0.02005766   -0.06226149
     atom   38 type  1   force =     0.00750533   -0.01223401    0.00699033
     atom   39 type  1   force =    -0.01431549    0.02362211    0.03032310
     atom   40 type  1   force =     0.03878485    0.02964526    0.01727810
     atom   41 type  1   force =    -0.01945144    0.00375327   -0.00336831
     atom   42 type  1   force =    -0.03911025   -0.06424095   -0.07242773
     atom   43 type  1   force =     0.00411779    0.01939902   -0.00500030
     atom   44 type  1   force =    -0.02520174   -0.04447842   -0.01246139
     atom   45 type  1   force =     0.00215056   -0.01410738    0.05391005
     atom   46 type  1   force =     0.03037064    0.04772052    0.00291251
     atom   47 type  1   force =    -0.01531910   -0.02672799    0.00530071
     atom   48 type  1   force =    -0.01106424    0.00254045   -0.01541561
     atom   49 type  1   force =     0.02835803   -0.00929830    0.10933635
     atom   50 type  1   force =    -0.01008343    0.00439748   -0.08693024
     atom   51 type  1   force =    -0.00653175   -0.01876250   -0.01542189
     atom   52 type  1   force =    -0.04653531    0.03333460   -0.02339355
     atom   53 type  1   force =     0.00239718   -0.01364809    0.00377720
     atom   54 type  1   force =     0.02026265    0.01679630   -0.06311670
     atom   55 type  1   force =     0.01434819   -0.00585320   -0.02985546
     atom   56 type  1   force =    -0.02198071   -0.00622567    0.05565946
     atom   57 type  1   force =     0.02373484    0.00193873   -0.01473470
     atom   58 type  1   force =    -0.02741929   -0.00749849   -0.02121455
     atom   59 type  1   force =    -0.00114874   -0.03032355    0.01701511
     atom   60 type  1   force =     0.02662386   -0.03756831    0.02086740
     atom   61 type  1   force =     0.01958049    0.00064861    0.00679473
     atom   62 type  1   force =    -0.01971006    0.02933894   -0.00021364
     atom   63 type  1   force =    -0.02528288   -0.01322560   -0.01758183
     atom   64 type  1   force =    -0.01273273   -0.00609878    0.03101351

     Total force =     0.371431     Total SCF correction =     0.000835


     Computing stress (Cartesian axis) and pressure

          total   stress  (Ry/bohr**3)                   (kbar)     P=      -26.07
  -0.00021792   0.00002648   0.00005106          -32.06        3.90        7.51
   0.00002648  -0.00018630   0.00007266            3.90      -27.41       10.69
   0.00005106   0.00007266  -0.00012751            7.51       10.69      -18.76

 
     init_run     :      0.93s CPU      4.21s WALL (       1 calls)
     electrons    :      1.66s CPU      1.82s WALL (       1 calls)
     forces       :      0.03s CPU      0.04s WALL (       1 calls)
     stress       :      0.14s CPU      0.14s WALL (       1 calls)

     Called by init_run:
     wfcinit      :      0.43s CPU      3.54s WALL (       1 calls)
                                        3.54s GPU  (       1 calls)
     potinit      :      0.03s CPU      0.13s WALL (       1 calls)
     hinit0       :      0.45s CPU      0.47s WALL (       1 calls)

     Called by electrons:
     c_bands      :      1.06s CPU      1.15s WALL (      20 calls)
     sum_band     :      0.30s CPU      0.35s WALL (      20 calls)
     v_of_rho     :      0.12s CPU      0.23s WALL (      20 calls)
     mix_rho      :      0.14s CPU      0.15s WALL (      20 calls)

     Called by c_bands:
     init_us_2    :      0.05s CPU      0.05s WALL (      41 calls)
     init_us_2:gp :      0.05s CPU      0.05s WALL (      41 calls)
     regterg      :      0.92s CPU      1.00s WALL (      20 calls)

     Called by *egterg:
     rdiaghg      :      0.38s CPU      1.08s WALL (      83 calls)
                                        1.06s GPU  (      83 calls)
     h_psi        :      0.82s CPU      3.27s WALL (      85 calls)
                                        3.27s GPU  (      85 calls)
     g_psi        :      0.00s CPU      0.00s WALL (      64 calls)
                                        0.00s GPU  (      64 calls)

     Called by h_psi:
     h_psi:calbec :      0.41s CPU      2.81s WALL (      85 calls)
                                        2.80s GPU  (      85 calls)
     vloc_psi     :      0.36s CPU      0.41s WALL (      85 calls)
                                        0.41s GPU  (      85 calls)
     add_vuspsi   :      0.03s CPU      0.05s WALL (      85 calls)
                                        0.05s GPU  (      85 calls)

     General routines
     calbec       :      0.41s CPU      2.81s WALL (      90 calls)
     fft          :      0.53s CPU      0.66s WALL (     167 calls)
                                        0.12s GPU  (     106 calls)
     ffts         :      0.03s CPU      0.03s WALL (      20 calls)
     fftw         :      0.44s CPU      0.56s WALL (    2090 calls)
                                        0.50s GPU  (    2090 calls)
 
     Parallel routines
 
     PWSCF        :      2.79s CPU      6.28s WALL

 
   This run was terminated on:  10:48:17  10May2023            

=------------------------------------------------------------------------------=
   JOB DONE.
=------------------------------------------------------------------------------=
