An instance of this daemon is already running
An instance of this daemon is already running

     Program PWSCF v.7.1 starts on 10May2023 at 10:42:50 

     This program is part of the open-source Quantum ESPRESSO suite
     for quantum simulation of materials; please cite
         "P. Giannozzi et al., J. Phys.:Condens. Matter 21 395502 (2009);
         "P. Giannozzi et al., J. Phys.:Condens. Matter 29 465901 (2017);
         "P. Giannozzi et al., J. Chem. Phys. 152 154105 (2020);
          URL http://www.quantum-espresso.org", 
     in publications or presentations arising from this work. More details at
     http://www.quantum-espresso.org/quote

     Parallel version (MPI & OpenMP), running on       4 processor cores
     Number of MPI processes:                 4
     Threads/MPI process:                     1

     MPI processes distributed on     1 nodes
     153214 MiB available memory on the printing compute node when the environment starts
 
     Reading input from pw-si-15.in
Warning: card &CELL ignored
Warning: card / ignored

     Current dimensions of program PWSCF are:
     Max number of different atomic species (ntypx) = 10
     Max number of k-points (npk) =  40000
     Max angular momentum in pseudopotentials (lmaxx) =  4

     IMPORTANT: XC functional enforced from input :
     Exchange-correlation= PBE
                           (   1   4   3   4   0   0   0)
     Any further DFT definition will be discarded
     Please, verify this is what you really want


     gamma-point specific algorithms are used
 
     K-points division:     npool     =       2
     R & G space division:  proc/nbgrp/npool/nimage =       2
     Subspace diagonalization in iterative solution of the eigenvalue problem:
     a serial algorithm will be used

     Message from routine divide_et_impera:
     suboptimal parallelization: some nodes have no k-points
 
     Parallelization info
     --------------------
     sticks:   dense  smooth     PW     G-vecs:    dense   smooth      PW
     Min        1954    1954    520                92150    92150   12584
     Max        1955    1955    521                92157    92157   12589
     Sum        3909    3909   1041               184307   184307   25173
 
     Using Slab Decomposition
 


     bravais-lattice index     =            0
     lattice parameter (alat)  =      20.2571  a.u.
     unit-cell volume          =    8312.4904 (a.u.)^3
     number of atoms/cell      =           64
     number of atomic types    =            1
     number of electrons       =       256.00
     number of Kohn-Sham states=          154
     kinetic-energy cutoff     =      30.0000  Ry
     charge density cutoff     =     120.0000  Ry
     scf convergence threshold =      1.0E-06
     mixing beta               =       0.5000
     number of iterations used =            8  plain     mixing
     Exchange-correlation= PBE
                           (   1   4   3   4   0   0   0)

     GPU acceleration is ACTIVE.
     GPU-aware MPI enabled

     Message from routine print_cuda_info:
     High GPU oversubscription detected. Are you sure this is what you want?

     celldm(1)=  20.257090  celldm(2)=   0.000000  celldm(3)=   0.000000
     celldm(4)=   0.000000  celldm(5)=   0.000000  celldm(6)=   0.000000

     crystal axes: (cart. coord. in units of alat)
               a(1) = (   1.000000   0.000000   0.000000 )  
               a(2) = (   0.000000   1.000000   0.000000 )  
               a(3) = (   0.000000   0.000000   1.000000 )  

     reciprocal axes: (cart. coord. in units 2 pi/alat)
               b(1) = (  1.000000  0.000000  0.000000 )  
               b(2) = (  0.000000  1.000000  0.000000 )  
               b(3) = (  0.000000  0.000000  1.000000 )  


     PseudoPot. # 1 for Si read from file:
     /home/ppiaggi/pseudos/Si_ONCV_PBE_sr.upf
     MD5 check sum: 8553c464762ac42b85b1eed164b4d029
     Pseudo is Norm-conserving, Zval =  4.0
     Generated using ONCVPSP code by D. R. Hamann
     Using radial grid of 1510 points,  4 beta functions with: 
                l(1) =   0
                l(2) =   0
                l(3) =   1
                l(4) =   1

     atomic species   valence    mass     pseudopotential
        Si             4.00    28.08500     Si( 1.00)

     No symmetry found



   Cartesian axes

     site n.     atom                  positions (alat units)
         1           Si  tau(   1) = (   0.3134040   0.0038333   0.3206400  )
         2           Si  tau(   2) = (   0.6198270   0.7397980   0.3225550  )
         3           Si  tau(   3) = (   0.7893270   0.0617052   0.7686890  )
         4           Si  tau(   4) = (   0.1887250   0.9321500   0.9559560  )
         5           Si  tau(   5) = (   0.9881590   0.5470940   0.2905270  )
         6           Si  tau(   6) = (   0.0077887   0.9991460   0.0756496  )
         7           Si  tau(   7) = (   0.7889630   0.2457530   0.8907470  )
         8           Si  tau(   8) = (   0.7695950   0.5681350   0.0142142  )
         9           Si  tau(   9) = (   0.1177920   0.3637570   0.5427430  )
        10           Si  tau(  10) = (   0.9420960   0.0422291   0.5909910  )
        11           Si  tau(  11) = (   0.0259879   0.8184850   0.7431390  )
        12           Si  tau(  12) = (   0.7091230   0.2564860   0.2699490  )
        13           Si  tau(  13) = (   0.8256510   0.9442590   0.9695900  )
        14           Si  tau(  14) = (   0.8954650   0.3896910   0.6031000  )
        15           Si  tau(  15) = (   0.5511000   0.2923630   0.3923810  )
        16           Si  tau(  16) = (   0.1735660   0.7642260   0.1645110  )
        17           Si  tau(  17) = (   0.4982620   0.5001490   0.5630650  )
        18           Si  tau(  18) = (   0.4714640   0.4013500   0.9836990  )
        19           Si  tau(  19) = (   0.6487020   0.3253400   0.6273900  )
        20           Si  tau(  20) = (   0.7829880   0.7657710   0.1584950  )
        21           Si  tau(  21) = (   0.3036660   0.4238790   0.1362810  )
        22           Si  tau(  22) = (   0.5633960   0.1035920   0.6604480  )
        23           Si  tau(  23) = (   0.4170510   0.7406850   0.9544620  )
        24           Si  tau(  24) = (   0.0974260   0.3273670   0.3085840  )
        25           Si  tau(  25) = (   0.4684540   0.5288650   0.3245000  )
        26           Si  tau(  26) = (   0.2105380   0.5790170   0.5401860  )
        27           Si  tau(  27) = (   0.2865470   0.7156970   0.3720090  )
        28           Si  tau(  28) = (   0.8707070   0.5584480   0.4748590  )
        29           Si  tau(  29) = (   0.6766240   0.6552540   0.5138170  )
        30           Si  tau(  30) = (   0.8637740   0.8935370   0.4409620  )
        31           Si  tau(  31) = (   0.5227970   0.0102209   0.4478240  )
        32           Si  tau(  32) = (   0.1495210   0.0563370   0.7583560  )
        33           Si  tau(  33) = (   0.3451400   0.2428540   0.3473680  )
        34           Si  tau(  34) = (   0.6131430   0.6627470   0.7888220  )
        35           Si  tau(  35) = (   0.9479910   0.5785890   0.8957710  )
        36           Si  tau(  36) = (   0.3849730   0.0517836   0.7837350  )
        37           Si  tau(  37) = (   0.2322370   0.1291250   0.5501910  )
        38           Si  tau(  38) = (   0.9249800   0.2605590   0.0671916  )
        39           Si  tau(  39) = (   0.1723550   0.2150580   0.0928070  )
        40           Si  tau(  40) = (   0.6728560   0.4610920   0.8368930  )
        41           Si  tau(  41) = (   0.8316480   0.7651610   0.8143310  )
        42           Si  tau(  42) = (   0.5191360   0.0838667   0.9747440  )
        43           Si  tau(  43) = (   0.1118800   0.5650120   0.0768749  )
        44           Si  tau(  44) = (   0.1355160   0.2558160   0.8688090  )
        45           Si  tau(  45) = (   0.1652700   0.9012410   0.4568630  )
        46           Si  tau(  46) = (   0.3940760   0.2826480   0.6244820  )
        47           Si  tau(  47) = (   0.0169184   0.7121040   0.5482780  )
        48           Si  tau(  48) = (   0.4613820   0.8284010   0.7067000  )
        49           Si  tau(  49) = (   0.3306980   0.5961350   0.7218520  )
        50           Si  tau(  50) = (   0.9039410   0.2058970   0.4130600  )
        51           Si  tau(  51) = (   0.3210570   0.3743100   0.8336810  )
        52           Si  tau(  52) = (   0.7209220   0.8778180   0.6511680  )
        53           Si  tau(  53) = (   0.6211820   0.2331160   0.0509650  )
        54           Si  tau(  54) = (   0.8144280   0.4386790   0.1887080  )
        55           Si  tau(  55) = (   0.9471260   0.3722580   0.8100790  )
        56           Si  tau(  56) = (   0.4464680   0.7974260   0.4744790  )
        57           Si  tau(  57) = (   0.1873410   0.6926120   0.8987090  )
        58           Si  tau(  58) = (   0.3264480   0.0505679   0.0785984  )
        59           Si  tau(  59) = (   0.0537475   0.0839547   0.2907550  )
        60           Si  tau(  60) = (   0.9783280   0.7816300   0.2718520  )
        61           Si  tau(  61) = (   0.6219370   0.9616220   0.1211260  )
        62           Si  tau(  62) = (   0.4446360   0.8238580   0.1876040  )
        63           Si  tau(  63) = (   0.5430810   0.5935050   0.0869451  )
        64           Si  tau(  64) = (   0.7028980   0.0248525   0.3241340  )

     number of k points=     1  Fermi-Dirac smearing, width (Ry)=  0.0100
                       cart. coord. in units 2pi/alat
        k(    1) = (   0.0000000   0.0000000   0.0000000), wk =   2.0000000

     Dense  grid:    92154 G-vectors     FFT dimensions: (  72,  72,  72)

     Estimated max dynamical RAM per process >     147.79 MB

     Estimated total dynamical RAM >     568.67 MB

     Initial potential from superposition of free atoms

     starting charge     255.9608, renormalised to     256.0000
     Starting wfcs are  256 randomized atomic wfcs

     total cpu time spent up to now is        4.2 secs

     Self-consistent Calculation

     iteration #  1     ecut=    30.00 Ry     beta= 0.50
     Davidson diagonalization with overlap
     ethr =  1.00E-02,  avg # of iterations =  3.0

     Threshold (ethr) on eigenvalues was too large:
     Diagonalizing with lowered threshold

     Davidson diagonalization with overlap
     ethr =  4.02E-04,  avg # of iterations =  4.0

     total cpu time spent up to now is        4.4 secs

     total energy              =    -501.43741740 Ry
     estimated scf accuracy    <       1.22760916 Ry

     iteration #  2     ecut=    30.00 Ry     beta= 0.50
     Davidson diagonalization with overlap
     ethr =  4.80E-04,  avg # of iterations =  5.0

     total cpu time spent up to now is        4.5 secs

     total energy              =    -501.13419512 Ry
     estimated scf accuracy    <       2.98905354 Ry

     iteration #  3     ecut=    30.00 Ry     beta= 0.50
     Davidson diagonalization with overlap
     ethr =  4.80E-04,  avg # of iterations =  3.0

     total cpu time spent up to now is        4.6 secs

     total energy              =    -501.38702026 Ry
     estimated scf accuracy    <       2.62766411 Ry

     iteration #  4     ecut=    30.00 Ry     beta= 0.50
     Davidson diagonalization with overlap
     ethr =  4.80E-04,  avg # of iterations =  2.0

     total cpu time spent up to now is        4.7 secs

     total energy              =    -501.55576747 Ry
     estimated scf accuracy    <       0.81123699 Ry

     iteration #  5     ecut=    30.00 Ry     beta= 0.50
     Davidson diagonalization with overlap
     ethr =  3.17E-04,  avg # of iterations =  2.0

     total cpu time spent up to now is        4.8 secs

     total energy              =    -501.59850968 Ry
     estimated scf accuracy    <       0.53272801 Ry

     iteration #  6     ecut=    30.00 Ry     beta= 0.50
     Davidson diagonalization with overlap
     ethr =  2.08E-04,  avg # of iterations =  2.0

     total cpu time spent up to now is        4.9 secs

     total energy              =    -501.64518877 Ry
     estimated scf accuracy    <       0.08406752 Ry

     iteration #  7     ecut=    30.00 Ry     beta= 0.50
     Davidson diagonalization with overlap
     ethr =  3.28E-05,  avg # of iterations = 10.0

     total cpu time spent up to now is        5.0 secs

     total energy              =    -501.65345760 Ry
     estimated scf accuracy    <       0.04201648 Ry

     iteration #  8     ecut=    30.00 Ry     beta= 0.50
     Davidson diagonalization with overlap
     ethr =  1.64E-05,  avg # of iterations =  2.0

     total cpu time spent up to now is        5.1 secs

     total energy              =    -501.65773630 Ry
     estimated scf accuracy    <       0.01192731 Ry

     iteration #  9     ecut=    30.00 Ry     beta= 0.50
     Davidson diagonalization with overlap
     c_bands:  1 eigenvalues not converged
     ethr =  4.66E-06,  avg # of iterations = 20.0

     total cpu time spent up to now is        5.2 secs

     total energy              =    -501.65872883 Ry
     estimated scf accuracy    <       0.00386574 Ry

     iteration # 10     ecut=    30.00 Ry     beta= 0.50
     Davidson diagonalization with overlap
     ethr =  1.51E-06,  avg # of iterations =  3.0

     total cpu time spent up to now is        5.3 secs

     total energy              =    -501.65906571 Ry
     estimated scf accuracy    <       0.00289460 Ry

     iteration # 11     ecut=    30.00 Ry     beta= 0.50
     Davidson diagonalization with overlap
     ethr =  1.13E-06,  avg # of iterations =  2.0

     total cpu time spent up to now is        5.4 secs

     total energy              =    -501.65933745 Ry
     estimated scf accuracy    <       0.00024838 Ry

     iteration # 12     ecut=    30.00 Ry     beta= 0.50
     Davidson diagonalization with overlap
     ethr =  9.70E-08,  avg # of iterations =  4.0

     total cpu time spent up to now is        5.5 secs

     total energy              =    -501.65936190 Ry
     estimated scf accuracy    <       0.00016813 Ry

     iteration # 13     ecut=    30.00 Ry     beta= 0.50
     Davidson diagonalization with overlap
     ethr =  6.57E-08,  avg # of iterations =  3.0

     total cpu time spent up to now is        5.6 secs

     total energy              =    -501.65937204 Ry
     estimated scf accuracy    <       0.00029939 Ry

     iteration # 14     ecut=    30.00 Ry     beta= 0.50
     Davidson diagonalization with overlap
     ethr =  6.57E-08,  avg # of iterations =  2.0

     total cpu time spent up to now is        5.7 secs

     total energy              =    -501.65939118 Ry
     estimated scf accuracy    <       0.00002194 Ry

     iteration # 15     ecut=    30.00 Ry     beta= 0.50
     Davidson diagonalization with overlap
     ethr =  8.57E-09,  avg # of iterations =  4.0

     total cpu time spent up to now is        5.8 secs

     total energy              =    -501.65939359 Ry
     estimated scf accuracy    <       0.00003094 Ry

     iteration # 16     ecut=    30.00 Ry     beta= 0.50
     Davidson diagonalization with overlap
     ethr =  8.57E-09,  avg # of iterations =  2.0

     total cpu time spent up to now is        5.9 secs

     total energy              =    -501.65939582 Ry
     estimated scf accuracy    <       0.00000823 Ry

     iteration # 17     ecut=    30.00 Ry     beta= 0.50
     Davidson diagonalization with overlap
     ethr =  3.21E-09,  avg # of iterations =  2.0

     total cpu time spent up to now is        6.0 secs

     total energy              =    -501.65939654 Ry
     estimated scf accuracy    <       0.00000364 Ry

     iteration # 18     ecut=    30.00 Ry     beta= 0.50
     Davidson diagonalization with overlap
     ethr =  1.42E-09,  avg # of iterations =  1.0

     total cpu time spent up to now is        6.1 secs

     End of self-consistent calculation

          k = 0.0000 0.0000 0.0000 ( 11492 PWs)   bands (ev):

    -5.4946  -4.6996  -4.4561  -4.3833  -4.2760  -4.1967  -4.1351  -3.7004
    -3.5859  -3.4456  -3.3517  -3.2446  -3.1675  -3.0671  -3.0341  -2.9604
    -2.8938  -2.7937  -2.7038  -2.3770  -2.2506  -2.1604  -2.0917  -1.9345
    -1.8157  -1.6724  -1.4698  -1.1896  -1.0496  -0.9474  -0.8864  -0.7391
    -0.4804  -0.4255  -0.2923  -0.2688  -0.1729  -0.0744  -0.0022   0.0592
     0.1809   0.2215   0.2968   0.3472   0.5064   0.5169   0.7010   0.7452
     0.8267   0.8751   0.9733   1.0778   1.1685   1.2964   1.3520   1.4544
     1.5068   1.6189   1.6625   1.8277   1.9041   1.9579   2.1536   2.2250
     2.3824   2.3931   2.5287   2.5793   2.7094   2.7466   2.7897   2.8248
     2.9172   2.9835   3.0549   3.1290   3.2840   3.3727   3.3995   3.4886
     3.6223   3.7990   3.9390   4.0833   4.1471   4.2593   4.3169   4.3858
     4.4542   4.5577   4.5943   4.7045   4.8356   4.8887   4.9108   4.9501
     5.0085   5.0211   5.0744   5.1451   5.2068   5.2590   5.3211   5.4091
     5.4636   5.4904   5.5038   5.6365   5.6660   5.7598   5.8122   5.9211
     5.9251   5.9931   6.0177   6.0550   6.1194   6.1321   6.2753   6.3197
     6.4499   6.4845   6.4960   6.6165   6.6328   6.6485   6.6768   6.7985
     6.8294   6.9020   7.0481   7.1046   7.1731   7.1987   7.3081   7.3597
     7.4328   7.4859   7.5232   7.6033   7.7070   7.8007   7.8335   7.8792
     8.0425   8.0604   8.1399   8.2273   8.3084   8.3405   8.4183   8.4513
     8.4752   8.5850

     the Fermi energy is     6.8402 ev

!    total energy              =    -501.65939641 Ry
     estimated scf accuracy    <       0.00000055 Ry
     smearing contrib. (-TS)   =      -0.13742723 Ry
     internal energy E=F+TS    =    -501.52196919 Ry

     The total energy is F=E-TS. E is the sum of the following terms:
     one-electron contribution =     180.11708530 Ry
     hartree contribution      =      25.85329527 Ry
     xc contribution           =    -150.82027300 Ry
     ewald contribution        =    -556.67207676 Ry

     convergence has been achieved in  18 iterations

     Forces acting on atoms (cartesian axes, Ry/au):

     atom    1 type  1   force =     0.02951093    0.03063358   -0.03133153
     atom    2 type  1   force =    -0.00233447   -0.01017920   -0.02039287
     atom    3 type  1   force =    -0.00660858    0.00877187   -0.00120593
     atom    4 type  1   force =    -0.01239107   -0.03995895    0.00549317
     atom    5 type  1   force =    -0.00810253   -0.01981584   -0.02328164
     atom    6 type  1   force =     0.00168953    0.02099697    0.02640613
     atom    7 type  1   force =    -0.03122120    0.00093096    0.01489579
     atom    8 type  1   force =    -0.05231470    0.01713672    0.05086745
     atom    9 type  1   force =     0.00517351   -0.01071195   -0.03568395
     atom   10 type  1   force =     0.00850270    0.01502882   -0.00359834
     atom   11 type  1   force =     0.02962215    0.00156775   -0.01806333
     atom   12 type  1   force =     0.07541030   -0.01909965   -0.05568818
     atom   13 type  1   force =    -0.04106541   -0.03376922   -0.01408604
     atom   14 type  1   force =    -0.00403063   -0.02839155   -0.01812332
     atom   15 type  1   force =    -0.05603096    0.06114192    0.06668381
     atom   16 type  1   force =     0.01326741    0.00956712   -0.01089521
     atom   17 type  1   force =     0.01371604   -0.02535408   -0.00655172
     atom   18 type  1   force =     0.04269502   -0.00013122    0.00737743
     atom   19 type  1   force =    -0.01313795    0.00437842   -0.01569594
     atom   20 type  1   force =    -0.00695984   -0.01644553   -0.02402649
     atom   21 type  1   force =    -0.02458174   -0.00962764    0.03038406
     atom   22 type  1   force =     0.00807476    0.02557001   -0.03523013
     atom   23 type  1   force =    -0.00522976   -0.00801840    0.01598089
     atom   24 type  1   force =     0.01187871    0.01307457    0.00816755
     atom   25 type  1   force =    -0.00408345   -0.00817408   -0.02652768
     atom   26 type  1   force =    -0.03953047    0.00697562   -0.01272274
     atom   27 type  1   force =    -0.02995133   -0.05311305   -0.02802249
     atom   28 type  1   force =    -0.00362907    0.01796073    0.01392365
     atom   29 type  1   force =    -0.01534448    0.00202565    0.02381861
     atom   30 type  1   force =    -0.01328709   -0.00327931    0.00621423
     atom   31 type  1   force =    -0.01303521    0.01721748    0.02436029
     atom   32 type  1   force =    -0.00581229   -0.00212648    0.00210138
     atom   33 type  1   force =    -0.03381812   -0.03875326    0.00627668
     atom   34 type  1   force =    -0.01347076    0.04633493   -0.01200307
     atom   35 type  1   force =     0.04254374    0.00102133    0.00542089
     atom   36 type  1   force =     0.02677685   -0.01200053    0.02049415
     atom   37 type  1   force =    -0.00214254    0.02514448   -0.01271916
     atom   38 type  1   force =     0.02916188   -0.01544210    0.01909546
     atom   39 type  1   force =    -0.01409449    0.02197833    0.00692397
     atom   40 type  1   force =    -0.01719286   -0.03725632    0.01833311
     atom   41 type  1   force =    -0.02555603    0.01124555    0.02902959
     atom   42 type  1   force =    -0.09051245   -0.08660393   -0.05916565
     atom   43 type  1   force =     0.00763612    0.00050797   -0.00822423
     atom   44 type  1   force =    -0.01001161    0.00229102    0.01335506
     atom   45 type  1   force =    -0.02015029    0.02150594   -0.00571109
     atom   46 type  1   force =     0.00334394   -0.00570498    0.01578252
     atom   47 type  1   force =     0.02336106    0.00993581    0.01246043
     atom   48 type  1   force =     0.02476345   -0.01618895    0.00023339
     atom   49 type  1   force =     0.00824943   -0.01472569    0.02413154
     atom   50 type  1   force =     0.00176574   -0.01754625    0.00986816
     atom   51 type  1   force =    -0.00109400    0.01542635   -0.06546854
     atom   52 type  1   force =    -0.02887013   -0.03791715   -0.03206733
     atom   53 type  1   force =     0.05503529    0.11362976    0.02483841
     atom   54 type  1   force =     0.02999517   -0.01272917   -0.01062154
     atom   55 type  1   force =     0.02109946    0.00923091    0.02149993
     atom   56 type  1   force =     0.06235740    0.05409784    0.05184978
     atom   57 type  1   force =     0.02199985    0.03420561   -0.00626047
     atom   58 type  1   force =     0.00755768    0.00232927    0.04398821
     atom   59 type  1   force =     0.00752233   -0.01222063   -0.01810274
     atom   60 type  1   force =    -0.02689509    0.00246631    0.01271170
     atom   61 type  1   force =     0.04786849   -0.04329844    0.01624871
     atom   62 type  1   force =    -0.00198205    0.01333862   -0.01939178
     atom   63 type  1   force =     0.00029427    0.00155447   -0.00294574
     atom   64 type  1   force =     0.01359942   -0.00063908   -0.01540729

     Total force =     0.381455     Total SCF correction =     0.001469


     Computing stress (Cartesian axis) and pressure

          total   stress  (Ry/bohr**3)                   (kbar)     P=      -30.28
  -0.00017997   0.00007945  -0.00002029          -26.47       11.69       -2.98
   0.00007945  -0.00023388  -0.00001584           11.69      -34.40       -2.33
  -0.00002029  -0.00001584  -0.00020363           -2.98       -2.33      -29.95

 
     init_run     :      1.04s CPU      4.16s WALL (       1 calls)
     electrons    :      1.69s CPU      1.87s WALL (       1 calls)
     forces       :      0.03s CPU      0.03s WALL (       1 calls)
     stress       :      0.14s CPU      0.14s WALL (       1 calls)

     Called by init_run:
     wfcinit      :      0.52s CPU      3.50s WALL (       1 calls)
                                        3.50s GPU  (       1 calls)
     potinit      :      0.04s CPU      0.12s WALL (       1 calls)
     hinit0       :      0.46s CPU      0.47s WALL (       1 calls)

     Called by electrons:
     c_bands      :      1.09s CPU      1.20s WALL (      19 calls)
     sum_band     :      0.30s CPU      0.34s WALL (      19 calls)
     v_of_rho     :      0.14s CPU      0.22s WALL (      19 calls)
     mix_rho      :      0.14s CPU      0.15s WALL (      19 calls)

     Called by c_bands:
     init_us_2    :      0.05s CPU      0.05s WALL (      39 calls)
     init_us_2:gp :      0.05s CPU      0.05s WALL (      39 calls)
     regterg      :      0.95s CPU      1.06s WALL (      19 calls)

     Called by *egterg:
     rdiaghg      :      0.41s CPU      1.02s WALL (      94 calls)
                                        1.01s GPU  (      94 calls)
     h_psi        :      0.89s CPU      3.30s WALL (      96 calls)
                                        3.30s GPU  (      96 calls)
     g_psi        :      0.00s CPU      0.00s WALL (      76 calls)
                                        0.00s GPU  (      76 calls)

     Called by h_psi:
     h_psi:calbec :      0.49s CPU      2.84s WALL (      96 calls)
                                        2.84s GPU  (      96 calls)
     vloc_psi     :      0.35s CPU      0.41s WALL (      96 calls)
                                        0.40s GPU  (      96 calls)
     add_vuspsi   :      0.03s CPU      0.05s WALL (      96 calls)
                                        0.05s GPU  (      96 calls)

     General routines
     calbec       :      0.50s CPU      2.84s WALL (     101 calls)
     fft          :      0.56s CPU      0.65s WALL (     159 calls)
                                        0.10s GPU  (     101 calls)
     ffts         :      0.03s CPU      0.03s WALL (      19 calls)
     fftw         :      0.42s CPU      0.55s WALL (    2013 calls)
                                        0.48s GPU  (    2013 calls)
 
     Parallel routines
 
     PWSCF        :      2.93s CPU      6.27s WALL

 
   This run was terminated on:  10:42:56  10May2023            

=------------------------------------------------------------------------------=
   JOB DONE.
=------------------------------------------------------------------------------=
