An instance of this daemon is already running

     Program PWSCF v.7.1 starts on 10May2023 at 10:53:41 

     This program is part of the open-source Quantum ESPRESSO suite
     for quantum simulation of materials; please cite
         "P. Giannozzi et al., J. Phys.:Condens. Matter 21 395502 (2009);
         "P. Giannozzi et al., J. Phys.:Condens. Matter 29 465901 (2017);
         "P. Giannozzi et al., J. Chem. Phys. 152 154105 (2020);
          URL http://www.quantum-espresso.org", 
     in publications or presentations arising from this work. More details at
     http://www.quantum-espresso.org/quote

     Parallel version (MPI & OpenMP), running on       4 processor cores
     Number of MPI processes:                 4
     Threads/MPI process:                     1

     MPI processes distributed on     1 nodes
     153148 MiB available memory on the printing compute node when the environment starts
 
     Reading input from pw-si-88.in
Warning: card &CELL ignored
Warning: card / ignored

     Current dimensions of program PWSCF are:
     Max number of different atomic species (ntypx) = 10
     Max number of k-points (npk) =  40000
     Max angular momentum in pseudopotentials (lmaxx) =  4

     IMPORTANT: XC functional enforced from input :
     Exchange-correlation= PBE
                           (   1   4   3   4   0   0   0)
     Any further DFT definition will be discarded
     Please, verify this is what you really want


     gamma-point specific algorithms are used
 
     K-points division:     npool     =       2
     R & G space division:  proc/nbgrp/npool/nimage =       2
     Subspace diagonalization in iterative solution of the eigenvalue problem:
     a serial algorithm will be used

     Message from routine divide_et_impera:
     suboptimal parallelization: some nodes have no k-points
 
     Parallelization info
     --------------------
     sticks:   dense  smooth     PW     G-vecs:    dense   smooth      PW
     Min        1946    1946    516                91133    91133   12416
     Max        1947    1947    517                91134    91134   12421
     Sum        3893    3893   1033               182267   182267   24837
 
     Using Slab Decomposition
 


     bravais-lattice index     =            0
     lattice parameter (alat)  =      20.1809  a.u.
     unit-cell volume          =    8219.0786 (a.u.)^3
     number of atoms/cell      =           64
     number of atomic types    =            1
     number of electrons       =       256.00
     number of Kohn-Sham states=          154
     kinetic-energy cutoff     =      30.0000  Ry
     charge density cutoff     =     120.0000  Ry
     scf convergence threshold =      1.0E-06
     mixing beta               =       0.5000
     number of iterations used =            8  plain     mixing
     Exchange-correlation= PBE
                           (   1   4   3   4   0   0   0)

     GPU acceleration is ACTIVE.
     GPU-aware MPI enabled

     Message from routine print_cuda_info:
     High GPU oversubscription detected. Are you sure this is what you want?

     celldm(1)=  20.180924  celldm(2)=   0.000000  celldm(3)=   0.000000
     celldm(4)=   0.000000  celldm(5)=   0.000000  celldm(6)=   0.000000

     crystal axes: (cart. coord. in units of alat)
               a(1) = (   1.000000   0.000000   0.000000 )  
               a(2) = (   0.000000   1.000000   0.000000 )  
               a(3) = (   0.000000   0.000000   1.000000 )  

     reciprocal axes: (cart. coord. in units 2 pi/alat)
               b(1) = (  1.000000  0.000000  0.000000 )  
               b(2) = (  0.000000  1.000000  0.000000 )  
               b(3) = (  0.000000  0.000000  1.000000 )  


     PseudoPot. # 1 for Si read from file:
     /home/ppiaggi/pseudos/Si_ONCV_PBE_sr.upf
     MD5 check sum: 8553c464762ac42b85b1eed164b4d029
     Pseudo is Norm-conserving, Zval =  4.0
     Generated using ONCVPSP code by D. R. Hamann
     Using radial grid of 1510 points,  4 beta functions with: 
                l(1) =   0
                l(2) =   0
                l(3) =   1
                l(4) =   1

     atomic species   valence    mass     pseudopotential
        Si             4.00    28.08500     Si( 1.00)

     No symmetry found



   Cartesian axes

     site n.     atom                  positions (alat units)
         1           Si  tau(   1) = (   0.4189670   0.3500300   0.0505079  )
         2           Si  tau(   2) = (   0.3540990   0.5945750   0.0857049  )
         3           Si  tau(   3) = (   0.7350720   0.9944860   0.8800220  )
         4           Si  tau(   4) = (   0.8134170   0.7143920   0.1041590  )
         5           Si  tau(   5) = (   0.7453500   0.4979610   0.0449997  )
         6           Si  tau(   6) = (   0.5235340   0.6841200   0.3640100  )
         7           Si  tau(   7) = (   0.0262786   0.8693040   0.7278950  )
         8           Si  tau(   8) = (   0.4390320   0.7331770   0.6095320  )
         9           Si  tau(   9) = (   0.9241380   0.1315400   0.8342940  )
        10           Si  tau(  10) = (   0.1614930   0.9682410   0.5599890  )
        11           Si  tau(  11) = (   0.0122663   0.6188340   0.9861330  )
        12           Si  tau(  12) = (   0.7821680   0.8636320   0.6714260  )
        13           Si  tau(  13) = (   0.8940280   0.3523370   0.9318580  )
        14           Si  tau(  14) = (   0.0238134   0.1581870   0.6403770  )
        15           Si  tau(  15) = (   0.1156990   0.3674710   0.0192169  )
        16           Si  tau(  16) = (   0.4615250   0.9224560   0.5197040  )
        17           Si  tau(  17) = (   0.1939800   0.3269880   0.6927690  )
        18           Si  tau(  18) = (   0.6534260   0.5848300   0.5949290  )
        19           Si  tau(  19) = (   0.5629200   0.5985770   0.9185880  )
        20           Si  tau(  20) = (   0.6067950   0.7532870   0.7757490  )
        21           Si  tau(  21) = (   0.9537290   0.4047310   0.7187180  )
        22           Si  tau(  22) = (   0.8405480   0.9686350   0.3581300  )
        23           Si  tau(  23) = (   0.2568010   0.5371170   0.5776560  )
        24           Si  tau(  24) = (   0.0280700   0.6337000   0.7374860  )
        25           Si  tau(  25) = (   0.5903880   0.1050400   0.2763920  )
        26           Si  tau(  26) = (   0.7789390   0.3980560   0.5844490  )
        27           Si  tau(  27) = (   0.7987050   0.4995840   0.3087880  )
        28           Si  tau(  28) = (   0.4733530   0.4105390   0.8223610  )
        29           Si  tau(  29) = (   0.8305970   0.7109790   0.5307170  )
        30           Si  tau(  30) = (   0.0119991   0.9618420   0.1681950  )
        31           Si  tau(  31) = (   0.9401180   0.1752690   0.4638640  )
        32           Si  tau(  32) = (   0.3503240   0.2182460   0.8364220  )
        33           Si  tau(  33) = (   0.7463930   0.7383590   0.3291490  )
        34           Si  tau(  34) = (   0.4628110   0.4893440   0.2811250  )
        35           Si  tau(  35) = (   0.8480360   0.1554050   0.0977333  )
        36           Si  tau(  36) = (   0.7416310   0.1870370   0.6381180  )
        37           Si  tau(  37) = (   0.5033830   0.9473730   0.8710090  )
        38           Si  tau(  38) = (   0.1952250   0.1652720   0.0052526  )
        39           Si  tau(  39) = (   0.0146000   0.5892920   0.5207260  )
        40           Si  tau(  40) = (   0.0774307   0.9995370   0.9479440  )
        41           Si  tau(  41) = (   0.4080630   0.0545084   0.6992550  )
        42           Si  tau(  42) = (   0.5563040   0.2542780   0.4798080  )
        43           Si  tau(  43) = (   0.4670480   0.4440280   0.6064340  )
        44           Si  tau(  44) = (   0.6297360   0.3669180   0.3136320  )
        45           Si  tau(  45) = (   0.2182470   0.8014290   0.9955650  )
        46           Si  tau(  46) = (   0.4078150   0.8975960   0.0557759  )
        47           Si  tau(  47) = (   0.2437220   0.7728770   0.7637950  )
        48           Si  tau(  48) = (   0.2572120   0.0525467   0.3587770  )
        49           Si  tau(  49) = (   0.0402448   0.8274200   0.4169180  )
        50           Si  tau(  50) = (   0.1044010   0.3770750   0.2735120  )
        51           Si  tau(  51) = (   0.0935034   0.1721860   0.2353100  )
        52           Si  tau(  52) = (   0.6260570   0.2043940   0.8352490  )
        53           Si  tau(  53) = (   0.1552920   0.5879570   0.1776340  )
        54           Si  tau(  54) = (   0.9482740   0.3922920   0.4087380  )
        55           Si  tau(  55) = (   0.2873170   0.4022240   0.3997150  )
        56           Si  tau(  56) = (   0.3759150   0.1147440   0.1532560  )
        57           Si  tau(  57) = (   0.6302030   0.2966130   0.0859967  )
        58           Si  tau(  58) = (   0.6906890   0.0034261   0.5109340  )
        59           Si  tau(  59) = (   0.2419880   0.5102510   0.8561340  )
        60           Si  tau(  60) = (   0.3082680   0.2098250   0.5154390  )
        61           Si  tau(  61) = (   0.3701290   0.8617170   0.2964600  )
        62           Si  tau(  62) = (   0.5648330   0.7324280   0.1109660  )
        63           Si  tau(  63) = (   0.7334340   0.9574520   0.1224250  )
        64           Si  tau(  64) = (   0.1824480   0.7849510   0.2600650  )

     number of k points=     1  Fermi-Dirac smearing, width (Ry)=  0.0100
                       cart. coord. in units 2pi/alat
        k(    1) = (   0.0000000   0.0000000   0.0000000), wk =   2.0000000

     Dense  grid:    91134 G-vectors     FFT dimensions: (  72,  72,  72)

     Estimated max dynamical RAM per process >     146.31 MB

     Estimated total dynamical RAM >     562.98 MB

     Initial potential from superposition of free atoms

     starting charge     255.9608, renormalised to     256.0000
     Starting wfcs are  256 randomized atomic wfcs

     total cpu time spent up to now is        4.4 secs

     Self-consistent Calculation

     iteration #  1     ecut=    30.00 Ry     beta= 0.50
     Davidson diagonalization with overlap
     ethr =  1.00E-02,  avg # of iterations =  3.0

     Threshold (ethr) on eigenvalues was too large:
     Diagonalizing with lowered threshold

     Davidson diagonalization with overlap
     ethr =  4.67E-04,  avg # of iterations =  5.0

     total cpu time spent up to now is        4.6 secs

     total energy              =    -501.22123910 Ry
     estimated scf accuracy    <       1.45663368 Ry

     iteration #  2     ecut=    30.00 Ry     beta= 0.50
     Davidson diagonalization with overlap
     ethr =  5.69E-04,  avg # of iterations =  5.0

     total cpu time spent up to now is        4.7 secs

     total energy              =    -500.52809335 Ry
     estimated scf accuracy    <       8.86180383 Ry

     iteration #  3     ecut=    30.00 Ry     beta= 0.50
     Davidson diagonalization with overlap
     ethr =  5.69E-04,  avg # of iterations =  4.0

     total cpu time spent up to now is        4.8 secs

     total energy              =    -501.33224423 Ry
     estimated scf accuracy    <       2.15999078 Ry

     iteration #  4     ecut=    30.00 Ry     beta= 0.50
     Davidson diagonalization with overlap
     ethr =  5.69E-04,  avg # of iterations =  3.0

     total cpu time spent up to now is        4.9 secs

     total energy              =    -501.44096983 Ry
     estimated scf accuracy    <       1.12068172 Ry

     iteration #  5     ecut=    30.00 Ry     beta= 0.50
     Davidson diagonalization with overlap
     ethr =  4.38E-04,  avg # of iterations =  2.0

     total cpu time spent up to now is        5.0 secs

     total energy              =    -501.50890927 Ry
     estimated scf accuracy    <       0.60039076 Ry

     iteration #  6     ecut=    30.00 Ry     beta= 0.50
     Davidson diagonalization with overlap
     ethr =  2.35E-04,  avg # of iterations =  2.0

     total cpu time spent up to now is        5.0 secs

     total energy              =    -501.56715769 Ry
     estimated scf accuracy    <       0.05305543 Ry

     iteration #  7     ecut=    30.00 Ry     beta= 0.50
     Davidson diagonalization with overlap
     ethr =  2.07E-05,  avg # of iterations =  2.0

     total cpu time spent up to now is        5.1 secs

     total energy              =    -501.57521763 Ry
     estimated scf accuracy    <       0.01852393 Ry

     iteration #  8     ecut=    30.00 Ry     beta= 0.50
     Davidson diagonalization with overlap
     c_bands:  1 eigenvalues not converged
     ethr =  7.24E-06,  avg # of iterations = 20.0

     total cpu time spent up to now is        5.3 secs

     total energy              =    -501.57675269 Ry
     estimated scf accuracy    <       0.02721765 Ry

     iteration #  9     ecut=    30.00 Ry     beta= 0.50
     Davidson diagonalization with overlap
     ethr =  7.24E-06,  avg # of iterations =  2.0

     total cpu time spent up to now is        5.4 secs

     total energy              =    -501.57880851 Ry
     estimated scf accuracy    <       0.00194465 Ry

     iteration # 10     ecut=    30.00 Ry     beta= 0.50
     Davidson diagonalization with overlap
     ethr =  7.60E-07,  avg # of iterations =  4.0

     total cpu time spent up to now is        5.5 secs

     total energy              =    -501.57901641 Ry
     estimated scf accuracy    <       0.00169564 Ry

     iteration # 11     ecut=    30.00 Ry     beta= 0.50
     Davidson diagonalization with overlap
     ethr =  6.62E-07,  avg # of iterations =  2.0

     total cpu time spent up to now is        5.6 secs

     total energy              =    -501.57913789 Ry
     estimated scf accuracy    <       0.00077700 Ry

     iteration # 12     ecut=    30.00 Ry     beta= 0.50
     Davidson diagonalization with overlap
     ethr =  3.04E-07,  avg # of iterations =  2.0

     total cpu time spent up to now is        5.7 secs

     total energy              =    -501.57921882 Ry
     estimated scf accuracy    <       0.00024990 Ry

     iteration # 13     ecut=    30.00 Ry     beta= 0.50
     Davidson diagonalization with overlap
     ethr =  9.76E-08,  avg # of iterations =  2.0

     total cpu time spent up to now is        5.7 secs

     total energy              =    -501.57923694 Ry
     estimated scf accuracy    <       0.00009161 Ry

     iteration # 14     ecut=    30.00 Ry     beta= 0.50
     Davidson diagonalization with overlap
     ethr =  3.58E-08,  avg # of iterations =  2.0

     total cpu time spent up to now is        5.8 secs

     total energy              =    -501.57924409 Ry
     estimated scf accuracy    <       0.00002486 Ry

     iteration # 15     ecut=    30.00 Ry     beta= 0.50
     Davidson diagonalization with overlap
     ethr =  9.71E-09,  avg # of iterations =  3.0

     total cpu time spent up to now is        5.9 secs

     total energy              =    -501.57924617 Ry
     estimated scf accuracy    <       0.00002821 Ry

     iteration # 16     ecut=    30.00 Ry     beta= 0.50
     Davidson diagonalization with overlap
     ethr =  9.71E-09,  avg # of iterations =  2.0

     total cpu time spent up to now is        6.0 secs

     total energy              =    -501.57924846 Ry
     estimated scf accuracy    <       0.00000871 Ry

     iteration # 17     ecut=    30.00 Ry     beta= 0.50
     Davidson diagonalization with overlap
     ethr =  3.40E-09,  avg # of iterations =  2.0

     total cpu time spent up to now is        6.1 secs

     total energy              =    -501.57924915 Ry
     estimated scf accuracy    <       0.00000252 Ry

     iteration # 18     ecut=    30.00 Ry     beta= 0.50
     Davidson diagonalization with overlap
     ethr =  9.84E-10,  avg # of iterations =  2.0

     total cpu time spent up to now is        6.2 secs

     End of self-consistent calculation

          k = 0.0000 0.0000 0.0000 ( 11444 PWs)   bands (ev):

    -5.5002  -4.6449  -4.4655  -4.4021  -4.3052  -4.1718  -4.0538  -3.7139
    -3.5502  -3.3611  -3.3375  -3.2700  -3.1712  -3.0862  -2.9790  -2.9441
    -2.8577  -2.7713  -2.5799  -2.2817  -2.1029  -2.0256  -1.8840  -1.8435
    -1.6937  -1.6541  -1.3932  -1.1654  -1.1039  -1.0241  -0.7238  -0.6914
    -0.4894  -0.3391  -0.2614  -0.2201  -0.1626  -0.1087   0.0900   0.1140
     0.2226   0.2940   0.3618   0.4767   0.5521   0.6526   0.6741   0.8098
     0.8938   0.9921   1.0594   1.1700   1.2300   1.3204   1.4542   1.5174
     1.7030   1.7928   1.8658   1.9490   2.0105   2.2120   2.2217   2.3852
     2.3953   2.5022   2.5847   2.6420   2.7237   2.7802   2.8053   2.9661
     3.0033   3.0575   3.0849   3.2676   3.2919   3.3817   3.4296   3.5892
     3.6868   3.9990   4.0253   4.0628   4.2806   4.3229   4.3694   4.4047
     4.5208   4.5507   4.7276   4.7749   4.8260   4.8686   4.9415   4.9833
     5.0636   5.1148   5.1163   5.2499   5.2925   5.3166   5.4217   5.4736
     5.5156   5.6674   5.7314   5.7773   5.8232   5.8635   5.9219   6.0217
     6.0378   6.1235   6.1603   6.2287   6.3023   6.3649   6.4136   6.5053
     6.5864   6.6422   6.6862   6.7243   6.7935   6.8336   6.8680   6.8981
     7.0219   7.0802   7.1644   7.1954   7.2825   7.3679   7.4292   7.4813
     7.4930   7.5304   7.6659   7.7170   7.7522   7.8896   7.9848   8.0397
     8.0737   8.1180   8.2003   8.2453   8.3418   8.3761   8.4349   8.5184
     8.5550   8.6200

     the Fermi energy is     6.9900 ev

!    total energy              =    -501.57924881 Ry
     estimated scf accuracy    <       0.00000089 Ry
     smearing contrib. (-TS)   =      -0.14593800 Ry
     internal energy E=F+TS    =    -501.43331081 Ry

     The total energy is F=E-TS. E is the sum of the following terms:
     one-electron contribution =     177.65184699 Ry
     hartree contribution      =      28.16467809 Ry
     xc contribution           =    -151.31672612 Ry
     ewald contribution        =    -555.93310978 Ry

     convergence has been achieved in  18 iterations

     Forces acting on atoms (cartesian axes, Ry/au):

     atom    1 type  1   force =    -0.01828082    0.00743976   -0.00289728
     atom    2 type  1   force =     0.01604925   -0.04279580   -0.01987863
     atom    3 type  1   force =    -0.00743832    0.01887889    0.01606960
     atom    4 type  1   force =     0.01391419    0.02427468    0.02599335
     atom    5 type  1   force =     0.00549044   -0.02094740   -0.01647221
     atom    6 type  1   force =     0.00759266    0.02674263   -0.00511233
     atom    7 type  1   force =    -0.00901610    0.00114845    0.01548512
     atom    8 type  1   force =    -0.02192333   -0.04422854    0.03642919
     atom    9 type  1   force =    -0.04016293    0.00756180    0.04797462
     atom   10 type  1   force =    -0.02118705   -0.00196839    0.01791386
     atom   11 type  1   force =     0.00619467    0.01365378    0.00894579
     atom   12 type  1   force =     0.01323168    0.01847562    0.04407603
     atom   13 type  1   force =     0.02154922   -0.00346009    0.00534467
     atom   14 type  1   force =     0.09642191   -0.00916088    0.09511473
     atom   15 type  1   force =    -0.02848490    0.02874731   -0.01532208
     atom   16 type  1   force =     0.02519690    0.05326126   -0.03240407
     atom   17 type  1   force =    -0.01174040   -0.00011563   -0.00461276
     atom   18 type  1   force =    -0.03877732   -0.01431606    0.00084999
     atom   19 type  1   force =     0.01342376   -0.04208639    0.04160914
     atom   20 type  1   force =     0.00440173    0.02395442   -0.05532883
     atom   21 type  1   force =     0.02307248    0.00885363    0.03025788
     atom   22 type  1   force =     0.05368580   -0.02383909   -0.02836735
     atom   23 type  1   force =     0.00491104   -0.01363443    0.00861568
     atom   24 type  1   force =     0.02236690    0.00140648    0.04939055
     atom   25 type  1   force =    -0.01350379    0.02390182   -0.01463434
     atom   26 type  1   force =     0.01272354   -0.00571980   -0.02394318
     atom   27 type  1   force =    -0.04555003    0.05077048   -0.02817246
     atom   28 type  1   force =    -0.00650184    0.00277767    0.02023513
     atom   29 type  1   force =     0.01810581   -0.02289396   -0.02735904
     atom   30 type  1   force =    -0.01623218    0.01279418   -0.00567452
     atom   31 type  1   force =    -0.05854038   -0.00130804   -0.12673467
     atom   32 type  1   force =    -0.02460750    0.00733310    0.00725638
     atom   33 type  1   force =     0.00156841   -0.02524662   -0.02232344
     atom   34 type  1   force =    -0.07288014    0.02582889   -0.02440394
     atom   35 type  1   force =    -0.00035169    0.00198431   -0.02604455
     atom   36 type  1   force =    -0.02146077    0.00275426   -0.01388831
     atom   37 type  1   force =     0.04304617   -0.00204512   -0.03700815
     atom   38 type  1   force =     0.04852351    0.01682529    0.01415458
     atom   39 type  1   force =     0.01240194    0.00594861   -0.02616860
     atom   40 type  1   force =    -0.03989387   -0.05835038   -0.02015399
     atom   41 type  1   force =    -0.01090051    0.00090329   -0.02200602
     atom   42 type  1   force =    -0.01876721   -0.01241275    0.04287336
     atom   43 type  1   force =     0.02352799    0.00008571   -0.01536623
     atom   44 type  1   force =     0.02496973   -0.02995473   -0.03955721
     atom   45 type  1   force =    -0.02356918   -0.01013548   -0.02712623
     atom   46 type  1   force =     0.00193358    0.01543523    0.04450382
     atom   47 type  1   force =     0.00133704   -0.01935870    0.00620589
     atom   48 type  1   force =     0.00139414    0.01287471   -0.00514090
     atom   49 type  1   force =    -0.03253960    0.00466376    0.04871053
     atom   50 type  1   force =     0.06446096    0.06140821   -0.05004269
     atom   51 type  1   force =    -0.00663545   -0.09132596   -0.00852082
     atom   52 type  1   force =    -0.00989763   -0.01531441    0.00259577
     atom   53 type  1   force =    -0.01650309   -0.02978184   -0.02030394
     atom   54 type  1   force =    -0.01299492    0.01743198    0.06991508
     atom   55 type  1   force =     0.01347629    0.00124268   -0.00413795
     atom   56 type  1   force =     0.01296691   -0.00003942    0.01052350
     atom   57 type  1   force =     0.02199765   -0.00545422    0.01727801
     atom   58 type  1   force =    -0.05285136    0.00160089    0.02207108
     atom   59 type  1   force =    -0.00703607    0.00800944    0.00444646
     atom   60 type  1   force =     0.03170778    0.00847867   -0.00760333
     atom   61 type  1   force =     0.07857467    0.02514896    0.02847525
     atom   62 type  1   force =    -0.01389403    0.01864856    0.02123081
     atom   63 type  1   force =     0.02096444   -0.01489373   -0.00612377
     atom   64 type  1   force =    -0.05906084   -0.00046154   -0.02171205

     Total force =     0.415642     Total SCF correction =     0.001891


     Computing stress (Cartesian axis) and pressure

          total   stress  (Ry/bohr**3)                   (kbar)     P=      -18.91
  -0.00016165   0.00000489  -0.00001055          -23.78        0.72       -1.55
   0.00000489  -0.00009091  -0.00003641            0.72      -13.37       -5.36
  -0.00001055  -0.00003641  -0.00013307           -1.55       -5.36      -19.57

 
     init_run     :      0.92s CPU      4.32s WALL (       1 calls)
     electrons    :      1.61s CPU      1.78s WALL (       1 calls)
     forces       :      0.03s CPU      0.03s WALL (       1 calls)
     stress       :      0.14s CPU      0.14s WALL (       1 calls)

     Called by init_run:
     wfcinit      :      0.42s CPU      3.65s WALL (       1 calls)
                                        3.65s GPU  (       1 calls)
     potinit      :      0.04s CPU      0.12s WALL (       1 calls)
     hinit0       :      0.45s CPU      0.47s WALL (       1 calls)

     Called by electrons:
     c_bands      :      1.06s CPU      1.16s WALL (      19 calls)
     sum_band     :      0.29s CPU      0.33s WALL (      19 calls)
     v_of_rho     :      0.13s CPU      0.21s WALL (      19 calls)
     mix_rho      :      0.12s CPU      0.14s WALL (      19 calls)

     Called by c_bands:
     init_us_2    :      0.05s CPU      0.05s WALL (      39 calls)
     init_us_2:gp :      0.05s CPU      0.05s WALL (      39 calls)
     regterg      :      0.92s CPU      1.00s WALL (      19 calls)

     Called by *egterg:
     rdiaghg      :      0.39s CPU      1.02s WALL (      87 calls)
                                        1.00s GPU  (      87 calls)
     h_psi        :      0.79s CPU      3.43s WALL (      89 calls)
                                        3.43s GPU  (      89 calls)
     g_psi        :      0.00s CPU      0.00s WALL (      69 calls)
                                        0.00s GPU  (      69 calls)

     Called by h_psi:
     h_psi:calbec :      0.39s CPU      2.97s WALL (      89 calls)
                                        2.97s GPU  (      89 calls)
     vloc_psi     :      0.34s CPU      0.40s WALL (      89 calls)
                                        0.40s GPU  (      89 calls)
     add_vuspsi   :      0.03s CPU      0.05s WALL (      89 calls)
                                        0.05s GPU  (      89 calls)

     General routines
     calbec       :      0.40s CPU      2.98s WALL (      94 calls)
     fft          :      0.54s CPU      0.65s WALL (     159 calls)
                                        0.11s GPU  (     101 calls)
     ffts         :      0.03s CPU      0.03s WALL (      19 calls)
     fftw         :      0.42s CPU      0.55s WALL (    2007 calls)
                                        0.48s GPU  (    2007 calls)
 
     Parallel routines
 
     PWSCF        :      2.74s CPU      6.36s WALL

 
   This run was terminated on:  10:53:47  10May2023            

=------------------------------------------------------------------------------=
   JOB DONE.
=------------------------------------------------------------------------------=
