An instance of this daemon is already running
An instance of this daemon is already running
An instance of this daemon is already running

     Program PWSCF v.7.1 starts on 10May2023 at 10:52:37 

     This program is part of the open-source Quantum ESPRESSO suite
     for quantum simulation of materials; please cite
         "P. Giannozzi et al., J. Phys.:Condens. Matter 21 395502 (2009);
         "P. Giannozzi et al., J. Phys.:Condens. Matter 29 465901 (2017);
         "P. Giannozzi et al., J. Chem. Phys. 152 154105 (2020);
          URL http://www.quantum-espresso.org", 
     in publications or presentations arising from this work. More details at
     http://www.quantum-espresso.org/quote

     Parallel version (MPI & OpenMP), running on       4 processor cores
     Number of MPI processes:                 4
     Threads/MPI process:                     1

     MPI processes distributed on     1 nodes
     152639 MiB available memory on the printing compute node when the environment starts
 
     Reading input from pw-si-81.in
Warning: card &CELL ignored
Warning: card / ignored

     Current dimensions of program PWSCF are:
     Max number of different atomic species (ntypx) = 10
     Max number of k-points (npk) =  40000
     Max angular momentum in pseudopotentials (lmaxx) =  4

     IMPORTANT: XC functional enforced from input :
     Exchange-correlation= PBE
                           (   1   4   3   4   0   0   0)
     Any further DFT definition will be discarded
     Please, verify this is what you really want


     gamma-point specific algorithms are used
 
     K-points division:     npool     =       2
     R & G space division:  proc/nbgrp/npool/nimage =       2
     Subspace diagonalization in iterative solution of the eigenvalue problem:
     a serial algorithm will be used

     Message from routine divide_et_impera:
     suboptimal parallelization: some nodes have no k-points
 
     Parallelization info
     --------------------
     sticks:   dense  smooth     PW     G-vecs:    dense   smooth      PW
     Min        1904    1904    502                88752    88752   12054
     Max        1905    1905    503                88757    88757   12057
     Sum        3809    3809   1005               177509   177509   24111
 
     Using Slab Decomposition
 


     bravais-lattice index     =            0
     lattice parameter (alat)  =      19.9976  a.u.
     unit-cell volume          =    7997.0689 (a.u.)^3
     number of atoms/cell      =           64
     number of atomic types    =            1
     number of electrons       =       256.00
     number of Kohn-Sham states=          154
     kinetic-energy cutoff     =      30.0000  Ry
     charge density cutoff     =     120.0000  Ry
     scf convergence threshold =      1.0E-06
     mixing beta               =       0.5000
     number of iterations used =            8  plain     mixing
     Exchange-correlation= PBE
                           (   1   4   3   4   0   0   0)

     GPU acceleration is ACTIVE.
     GPU-aware MPI enabled

     Message from routine print_cuda_info:
     High GPU oversubscription detected. Are you sure this is what you want?

     celldm(1)=  19.997557  celldm(2)=   0.000000  celldm(3)=   0.000000
     celldm(4)=   0.000000  celldm(5)=   0.000000  celldm(6)=   0.000000

     crystal axes: (cart. coord. in units of alat)
               a(1) = (   1.000000   0.000000   0.000000 )  
               a(2) = (   0.000000   1.000000   0.000000 )  
               a(3) = (   0.000000   0.000000   1.000000 )  

     reciprocal axes: (cart. coord. in units 2 pi/alat)
               b(1) = (  1.000000  0.000000  0.000000 )  
               b(2) = (  0.000000  1.000000  0.000000 )  
               b(3) = (  0.000000  0.000000  1.000000 )  


     PseudoPot. # 1 for Si read from file:
     /home/ppiaggi/pseudos/Si_ONCV_PBE_sr.upf
     MD5 check sum: 8553c464762ac42b85b1eed164b4d029
     Pseudo is Norm-conserving, Zval =  4.0
     Generated using ONCVPSP code by D. R. Hamann
     Using radial grid of 1510 points,  4 beta functions with: 
                l(1) =   0
                l(2) =   0
                l(3) =   1
                l(4) =   1

     atomic species   valence    mass     pseudopotential
        Si             4.00    28.08500     Si( 1.00)

     No symmetry found



   Cartesian axes

     site n.     atom                  positions (alat units)
         1           Si  tau(   1) = (   0.5315660   0.4442980   0.9538710  )
         2           Si  tau(   2) = (   0.8865660   0.3329410   0.1790660  )
         3           Si  tau(   3) = (   0.2314740   0.2043530   0.5248180  )
         4           Si  tau(   4) = (   0.5923560   0.8906750   0.1895650  )
         5           Si  tau(   5) = (   0.9038570   0.3038270   0.5280670  )
         6           Si  tau(   6) = (   0.1319420   0.8235830   0.4519410  )
         7           Si  tau(   7) = (   0.3839130   0.4434090   0.6777490  )
         8           Si  tau(   8) = (   0.3797660   0.1215800   0.9839960  )
         9           Si  tau(   9) = (   0.2548150   0.0942406   0.2525130  )
        10           Si  tau(  10) = (   0.2167100   0.9685510   0.6515920  )
        11           Si  tau(  11) = (   0.5221900   0.3196970   0.7700960  )
        12           Si  tau(  12) = (   0.7329740   0.8225010   0.7306540  )
        13           Si  tau(  13) = (   0.6780090   0.3791710   0.3765950  )
        14           Si  tau(  14) = (   0.0220475   0.0898732   0.1257070  )
        15           Si  tau(  15) = (   0.6836020   0.1217880   0.7916820  )
        16           Si  tau(  16) = (   0.7681940   0.6382530   0.1945150  )
        17           Si  tau(  17) = (   0.2978290   0.1761920   0.7793320  )
        18           Si  tau(  18) = (   0.4973500   0.9723700   0.7628300  )
        19           Si  tau(  19) = (   0.6104300   0.6352240   0.8351310  )
        20           Si  tau(  20) = (   0.2927730   0.8170160   0.1734450  )
        21           Si  tau(  21) = (   0.2774530   0.9301130   0.9834100  )
        22           Si  tau(  22) = (   0.8438950   0.0619032   0.6491550  )
        23           Si  tau(  23) = (   0.3971710   0.7445970   0.5222330  )
        24           Si  tau(  24) = (   0.8919750   0.5307980   0.9702930  )
        25           Si  tau(  25) = (   0.7320090   0.4133500   0.6706870  )
        26           Si  tau(  26) = (   0.7343520   0.8393460   0.3522850  )
        27           Si  tau(  27) = (   0.0090000   0.2245300   0.9354660  )
        28           Si  tau(  28) = (   0.8006390   0.9602700   0.0000537  )
        29           Si  tau(  29) = (   0.6056710   0.0981215   0.0304288  )
        30           Si  tau(  30) = (   0.5893240   0.8837540   0.5733110  )
        31           Si  tau(  31) = (   0.8100600   0.6766880   0.4863080  )
        32           Si  tau(  32) = (   0.5675500   0.1709220   0.2861190  )
        33           Si  tau(  33) = (   0.3030560   0.3197300   0.0519778  )
        34           Si  tau(  34) = (   0.1495480   0.3777610   0.8130750  )
        35           Si  tau(  35) = (   0.9355180   0.8538030   0.5835480  )
        36           Si  tau(  36) = (   0.0406878   0.9172100   0.9435820  )
        37           Si  tau(  37) = (   0.0376431   0.7502010   0.7832240  )
        38           Si  tau(  38) = (   0.1092720   0.6503700   0.0112015  )
        39           Si  tau(  39) = (   0.9286320   0.9146840   0.2442800  )
        40           Si  tau(  40) = (   0.6831080   0.3115820   0.1076020  )
        41           Si  tau(  41) = (   0.4218700   0.3943130   0.4552860  )
        42           Si  tau(  42) = (   0.4706990   0.7060950   0.0952716  )
        43           Si  tau(  43) = (   0.8079510   0.2958800   0.8970520  )
        44           Si  tau(  44) = (   0.7089800   0.0557609   0.4156180  )
        45           Si  tau(  45) = (   0.0919568   0.4157250   0.0918322  )
        46           Si  tau(  46) = (   0.0724178   0.0626517   0.4128060  )
        47           Si  tau(  47) = (   0.1071630   0.3790700   0.5997160  )
        48           Si  tau(  48) = (   0.5965210   0.5902550   0.5699900  )
        49           Si  tau(  49) = (   0.9434690   0.5160140   0.7430100  )
        50           Si  tau(  50) = (   0.4547540   0.1182630   0.5619060  )
        51           Si  tau(  51) = (   0.0765746   0.7150160   0.2271000  )
        52           Si  tau(  52) = (   0.1703300   0.4935660   0.2815660  )
        53           Si  tau(  53) = (   0.0323894   0.0560394   0.7826620  )
        54           Si  tau(  54) = (   0.8806620   0.1600660   0.3458430  )
        55           Si  tau(  55) = (   0.2970270   0.5597850   0.9190500  )
        56           Si  tau(  56) = (   0.3884920   0.2834040   0.2522720  )
        57           Si  tau(  57) = (   0.2594770   0.7291550   0.7153840  )
        58           Si  tau(  58) = (   0.1528410   0.5988630   0.5500180  )
        59           Si  tau(  59) = (   0.3808480   0.9258820   0.3742410  )
        60           Si  tau(  60) = (   0.4196420   0.7833670   0.8776090  )
        61           Si  tau(  61) = (   0.7365100   0.7493870   0.9958990  )
        62           Si  tau(  62) = (   0.3842580   0.5858840   0.3440340  )
        63           Si  tau(  63) = (   0.9321380   0.5217470   0.3695300  )
        64           Si  tau(  64) = (   0.5803330   0.5334520   0.2087970  )

     number of k points=     1  Fermi-Dirac smearing, width (Ry)=  0.0100
                       cart. coord. in units 2pi/alat
        k(    1) = (   0.0000000   0.0000000   0.0000000), wk =   2.0000000

     Dense  grid:    88755 G-vectors     FFT dimensions: (  72,  72,  72)

     Estimated max dynamical RAM per process >     142.80 MB

     Estimated total dynamical RAM >     549.53 MB

     Initial potential from superposition of free atoms

     starting charge     255.9608, renormalised to     256.0000
     Starting wfcs are  256 randomized atomic wfcs

     total cpu time spent up to now is        4.7 secs

     Self-consistent Calculation

     iteration #  1     ecut=    30.00 Ry     beta= 0.50
     Davidson diagonalization with overlap
     ethr =  1.00E-02,  avg # of iterations =  3.0

     Threshold (ethr) on eigenvalues was too large:
     Diagonalizing with lowered threshold

     Davidson diagonalization with overlap
     ethr =  3.66E-04,  avg # of iterations =  4.0

     total cpu time spent up to now is        4.9 secs

     total energy              =    -501.30992376 Ry
     estimated scf accuracy    <       1.12766616 Ry

     iteration #  2     ecut=    30.00 Ry     beta= 0.50
     Davidson diagonalization with overlap
     ethr =  4.40E-04,  avg # of iterations =  3.0

     total cpu time spent up to now is        5.0 secs

     total energy              =    -501.00137620 Ry
     estimated scf accuracy    <       2.94128608 Ry

     iteration #  3     ecut=    30.00 Ry     beta= 0.50
     Davidson diagonalization with overlap
     ethr =  4.40E-04,  avg # of iterations =  3.0

     total cpu time spent up to now is        5.0 secs

     total energy              =    -501.28123602 Ry
     estimated scf accuracy    <       2.74546466 Ry

     iteration #  4     ecut=    30.00 Ry     beta= 0.50
     Davidson diagonalization with overlap
     ethr =  4.40E-04,  avg # of iterations =  2.0

     total cpu time spent up to now is        5.1 secs

     total energy              =    -501.46790543 Ry
     estimated scf accuracy    <       0.35295688 Ry

     iteration #  5     ecut=    30.00 Ry     beta= 0.50
     Davidson diagonalization with overlap
     ethr =  1.38E-04,  avg # of iterations =  2.0

     total cpu time spent up to now is        5.2 secs

     total energy              =    -501.49577577 Ry
     estimated scf accuracy    <       0.16308106 Ry

     iteration #  6     ecut=    30.00 Ry     beta= 0.50
     Davidson diagonalization with overlap
     ethr =  6.37E-05,  avg # of iterations =  2.0

     total cpu time spent up to now is        5.3 secs

     total energy              =    -501.50960614 Ry
     estimated scf accuracy    <       0.17778046 Ry

     iteration #  7     ecut=    30.00 Ry     beta= 0.50
     Davidson diagonalization with overlap
     ethr =  6.37E-05,  avg # of iterations =  1.0

     total cpu time spent up to now is        5.4 secs

     total energy              =    -501.52262979 Ry
     estimated scf accuracy    <       0.00860489 Ry

     iteration #  8     ecut=    30.00 Ry     beta= 0.50
     Davidson diagonalization with overlap
     c_bands:  1 eigenvalues not converged
     ethr =  3.36E-06,  avg # of iterations = 20.0

     total cpu time spent up to now is        5.6 secs

     total energy              =    -501.52361808 Ry
     estimated scf accuracy    <       0.01677016 Ry

     iteration #  9     ecut=    30.00 Ry     beta= 0.50
     Davidson diagonalization with overlap
     ethr =  3.36E-06,  avg # of iterations =  3.0

     total cpu time spent up to now is        5.7 secs

     total energy              =    -501.52506297 Ry
     estimated scf accuracy    <       0.00342166 Ry

     iteration # 10     ecut=    30.00 Ry     beta= 0.50
     Davidson diagonalization with overlap
     ethr =  1.34E-06,  avg # of iterations =  2.0

     total cpu time spent up to now is        5.7 secs

     total energy              =    -501.52530396 Ry
     estimated scf accuracy    <       0.00070580 Ry

     iteration # 11     ecut=    30.00 Ry     beta= 0.50
     Davidson diagonalization with overlap
     ethr =  2.76E-07,  avg # of iterations =  2.0

     total cpu time spent up to now is        5.8 secs

     total energy              =    -501.52534289 Ry
     estimated scf accuracy    <       0.00056811 Ry

     iteration # 12     ecut=    30.00 Ry     beta= 0.50
     Davidson diagonalization with overlap
     ethr =  2.22E-07,  avg # of iterations =  2.0

     total cpu time spent up to now is        5.9 secs

     total energy              =    -501.52539582 Ry
     estimated scf accuracy    <       0.00021311 Ry

     iteration # 13     ecut=    30.00 Ry     beta= 0.50
     Davidson diagonalization with overlap
     ethr =  8.32E-08,  avg # of iterations =  2.0

     total cpu time spent up to now is        6.0 secs

     total energy              =    -501.52541333 Ry
     estimated scf accuracy    <       0.00002817 Ry

     iteration # 14     ecut=    30.00 Ry     beta= 0.50
     Davidson diagonalization with overlap
     ethr =  1.10E-08,  avg # of iterations =  4.0

     total cpu time spent up to now is        6.1 secs

     total energy              =    -501.52541585 Ry
     estimated scf accuracy    <       0.00003859 Ry

     iteration # 15     ecut=    30.00 Ry     beta= 0.50
     Davidson diagonalization with overlap
     ethr =  1.10E-08,  avg # of iterations =  2.0

     total cpu time spent up to now is        6.2 secs

     total energy              =    -501.52541773 Ry
     estimated scf accuracy    <       0.00000640 Ry

     iteration # 16     ecut=    30.00 Ry     beta= 0.50
     Davidson diagonalization with overlap
     ethr =  2.50E-09,  avg # of iterations =  3.0

     total cpu time spent up to now is        6.3 secs

     total energy              =    -501.52541890 Ry
     estimated scf accuracy    <       0.00000577 Ry

     iteration # 17     ecut=    30.00 Ry     beta= 0.50
     Davidson diagonalization with overlap
     ethr =  2.25E-09,  avg # of iterations =  2.0

     total cpu time spent up to now is        6.4 secs

     total energy              =    -501.52541920 Ry
     estimated scf accuracy    <       0.00000115 Ry

     iteration # 18     ecut=    30.00 Ry     beta= 0.50
     Davidson diagonalization with overlap
     ethr =  4.49E-10,  avg # of iterations =  2.0

     total cpu time spent up to now is        6.5 secs

     End of self-consistent calculation

          k = 0.0000 0.0000 0.0000 ( 11060 PWs)   bands (ev):

    -5.1866  -4.1977  -4.1494  -4.0242  -3.9438  -3.8816  -3.7860  -3.2342
    -3.1895  -3.0465  -2.9115  -2.8744  -2.7534  -2.7101  -2.6711  -2.6109
    -2.5336  -2.4587  -2.3687  -1.8977  -1.7798  -1.7222  -1.6458  -1.4737
    -1.3757  -1.2599  -1.1003  -0.6567  -0.5943  -0.4567  -0.3483  -0.2514
    -0.1826   0.0227   0.1407   0.1660   0.2856   0.3978   0.4534   0.5876
     0.6282   0.7438   0.8535   0.9061   0.9565   0.9694   1.0550   1.1545
     1.2361   1.2733   1.3389   1.4137   1.5585   1.5934   1.7497   1.7623
     1.9156   2.0779   2.1188   2.1383   2.2859   2.3493   2.4631   2.5304
     2.6961   2.8122   2.8484   2.9216   2.9599   3.0755   3.0998   3.2521
     3.3185   3.3371   3.4416   3.5087   3.5709   3.5933   3.6795   3.7627
     3.9274   4.3888   4.5308   4.5839   4.6713   4.6985   4.7381   4.8885
     4.9883   5.0415   5.1270   5.2257   5.2522   5.3389   5.4498   5.4716
     5.5065   5.5529   5.5997   5.6665   5.7040   5.7405   5.8603   5.8786
     5.9278   6.0475   6.0891   6.1341   6.2098   6.2480   6.3371   6.3645
     6.4176   6.4447   6.4988   6.5444   6.7069   6.7165   6.7806   6.7859
     6.8516   6.8600   6.9881   7.0505   7.0711   7.1466   7.1642   7.2169
     7.2673   7.3515   7.5506   7.5542   7.5840   7.6938   7.7329   7.8011
     7.8412   7.9263   7.9550   8.0394   8.1234   8.1976   8.2249   8.3009
     8.4016   8.4546   8.5489   8.5565   8.5882   8.6639   8.6865   8.8013
     8.8955   8.9947

     the Fermi energy is     7.2933 ev

!    total energy              =    -501.52541882 Ry
     estimated scf accuracy    <       0.00000064 Ry
     smearing contrib. (-TS)   =      -0.13957792 Ry
     internal energy E=F+TS    =    -501.38584090 Ry

     The total energy is F=E-TS. E is the sum of the following terms:
     one-electron contribution =     201.30496913 Ry
     hartree contribution      =      19.47603416 Ry
     xc contribution           =    -151.02940935 Ry
     ewald contribution        =    -571.13743484 Ry

     convergence has been achieved in  18 iterations

     Forces acting on atoms (cartesian axes, Ry/au):

     atom    1 type  1   force =    -0.01443753    0.00783574    0.01550867
     atom    2 type  1   force =     0.03893135    0.00149842    0.03515235
     atom    3 type  1   force =     0.01296084   -0.02647198   -0.00535950
     atom    4 type  1   force =    -0.03765375    0.01489461   -0.01465057
     atom    5 type  1   force =    -0.02647948    0.00667073   -0.00632082
     atom    6 type  1   force =    -0.01264049    0.03787270   -0.00659443
     atom    7 type  1   force =    -0.05872144    0.04723156   -0.01985584
     atom    8 type  1   force =     0.01847988    0.01045049   -0.00943001
     atom    9 type  1   force =    -0.05250981   -0.02385082    0.00946578
     atom   10 type  1   force =    -0.00864045    0.01244860    0.00450353
     atom   11 type  1   force =     0.06027413   -0.08309467    0.02067191
     atom   12 type  1   force =     0.02190501    0.00346919   -0.00140211
     atom   13 type  1   force =    -0.03503906   -0.01801531   -0.01448486
     atom   14 type  1   force =     0.01279100   -0.00702721    0.00935073
     atom   15 type  1   force =    -0.02994911    0.01981332    0.03872102
     atom   16 type  1   force =     0.05584065    0.01631268    0.00407635
     atom   17 type  1   force =     0.00625324    0.00731566   -0.03680977
     atom   18 type  1   force =    -0.00688513    0.01195614   -0.00833911
     atom   19 type  1   force =     0.00268592    0.02584583    0.00605131
     atom   20 type  1   force =    -0.02178051    0.00668548    0.04868404
     atom   21 type  1   force =    -0.04249327   -0.02864836    0.00696877
     atom   22 type  1   force =     0.02338586   -0.00635957   -0.02876709
     atom   23 type  1   force =     0.01587900   -0.00733013   -0.00889802
     atom   24 type  1   force =     0.00986615   -0.00020036    0.00238794
     atom   25 type  1   force =     0.02875655    0.00998297    0.01035896
     atom   26 type  1   force =     0.02195044    0.00562405   -0.02201706
     atom   27 type  1   force =     0.03310247    0.01173855   -0.00303718
     atom   28 type  1   force =     0.02713936    0.00930993    0.01963708
     atom   29 type  1   force =     0.01040753   -0.00140456    0.00814846
     atom   30 type  1   force =    -0.03333450    0.00662711   -0.03632623
     atom   31 type  1   force =    -0.01863011    0.00716164    0.03778015
     atom   32 type  1   force =     0.03771776    0.00958526   -0.00935770
     atom   33 type  1   force =    -0.00452325    0.03157138   -0.00091327
     atom   34 type  1   force =     0.02620635   -0.01288919    0.04274392
     atom   35 type  1   force =    -0.01601135   -0.01826274    0.01661563
     atom   36 type  1   force =     0.01548403   -0.02455600    0.02560591
     atom   37 type  1   force =     0.00693244   -0.01110784   -0.00579166
     atom   38 type  1   force =    -0.02439747   -0.00970338    0.00436379
     atom   39 type  1   force =     0.00841965   -0.01717492   -0.01445283
     atom   40 type  1   force =    -0.03431416   -0.00586956   -0.03440397
     atom   41 type  1   force =     0.02334468   -0.01386558   -0.01149700
     atom   42 type  1   force =     0.01392290    0.00715902   -0.01728450
     atom   43 type  1   force =    -0.03284159    0.01803368   -0.00789980
     atom   44 type  1   force =    -0.03121264   -0.03564572    0.05818415
     atom   45 type  1   force =    -0.01237747   -0.03034471   -0.03668858
     atom   46 type  1   force =     0.04607938   -0.02412947   -0.01355158
     atom   47 type  1   force =    -0.01668414    0.00478483   -0.01969970
     atom   48 type  1   force =     0.02308666   -0.00571888    0.01373650
     atom   49 type  1   force =    -0.01038474    0.02236683    0.00698109
     atom   50 type  1   force =    -0.01771622   -0.01383370    0.01529596
     atom   51 type  1   force =     0.01713444    0.01947852    0.01296108
     atom   52 type  1   force =    -0.00339571    0.05725918    0.03760767
     atom   53 type  1   force =     0.00934473    0.02301145   -0.03994184
     atom   54 type  1   force =     0.03994347    0.06220182   -0.01412584
     atom   55 type  1   force =    -0.00784987   -0.04058065   -0.02608256
     atom   56 type  1   force =    -0.03470568    0.01438470    0.02076640
     atom   57 type  1   force =     0.00690988    0.00313823    0.00398332
     atom   58 type  1   force =     0.01531746   -0.00261743   -0.00839503
     atom   59 type  1   force =     0.00108072    0.00161937   -0.03659362
     atom   60 type  1   force =     0.00732779    0.00370877   -0.01785584
     atom   61 type  1   force =    -0.01476832   -0.03913985   -0.00198851
     atom   62 type  1   force =    -0.01118140   -0.00061868    0.01038315
     atom   63 type  1   force =    -0.00112541   -0.02139798   -0.02014665
     atom   64 type  1   force =    -0.02617766   -0.02918923    0.01226746

     Total force =     0.331347     Total SCF correction =     0.001645


     Computing stress (Cartesian axis) and pressure

          total   stress  (Ry/bohr**3)                   (kbar)     P=      -28.43
  -0.00023666  -0.00002423  -0.00000008          -34.81       -3.56       -0.01
  -0.00002423  -0.00019867  -0.00004342           -3.56      -29.23       -6.39
  -0.00000008  -0.00004342  -0.00014456           -0.01       -6.39      -21.26

 
     init_run     :      0.91s CPU      4.60s WALL (       1 calls)
     electrons    :      1.60s CPU      1.80s WALL (       1 calls)
     forces       :      0.03s CPU      0.04s WALL (       1 calls)
     stress       :      0.14s CPU      0.14s WALL (       1 calls)

     Called by init_run:
     wfcinit      :      0.41s CPU      3.96s WALL (       1 calls)
                                        3.96s GPU  (       1 calls)
     potinit      :      0.03s CPU      0.11s WALL (       1 calls)
     hinit0       :      0.45s CPU      0.47s WALL (       1 calls)

     Called by electrons:
     c_bands      :      1.03s CPU      1.14s WALL (      19 calls)
     sum_band     :      0.30s CPU      0.36s WALL (      19 calls)
     v_of_rho     :      0.12s CPU      0.21s WALL (      19 calls)
     mix_rho      :      0.13s CPU      0.14s WALL (      19 calls)

     Called by c_bands:
     init_us_2    :      0.05s CPU      0.05s WALL (      39 calls)
     init_us_2:gp :      0.05s CPU      0.05s WALL (      39 calls)
     regterg      :      0.89s CPU      0.99s WALL (      19 calls)

     Called by *egterg:
     rdiaghg      :      0.36s CPU      1.13s WALL (      82 calls)
                                        1.11s GPU  (      82 calls)
     h_psi        :      0.79s CPU      3.63s WALL (      84 calls)
                                        3.63s GPU  (      84 calls)
     g_psi        :      0.00s CPU      0.00s WALL (      64 calls)
                                        0.00s GPU  (      64 calls)

     Called by h_psi:
     h_psi:calbec :      0.40s CPU      3.17s WALL (      84 calls)
                                        3.17s GPU  (      84 calls)
     vloc_psi     :      0.34s CPU      0.40s WALL (      84 calls)
                                        0.40s GPU  (      84 calls)
     add_vuspsi   :      0.03s CPU      0.05s WALL (      84 calls)
                                        0.05s GPU  (      84 calls)

     General routines
     calbec       :      0.41s CPU      3.17s WALL (      89 calls)
     fft          :      0.54s CPU      0.65s WALL (     159 calls)
                                        0.10s GPU  (     101 calls)
     ffts         :      0.03s CPU      0.03s WALL (      19 calls)
     fftw         :      0.42s CPU      0.56s WALL (    1995 calls)
                                        0.49s GPU  (    1995 calls)
 
     Parallel routines
 
     PWSCF        :      2.72s CPU      6.65s WALL

 
   This run was terminated on:  10:52:44  10May2023            

=------------------------------------------------------------------------------=
   JOB DONE.
=------------------------------------------------------------------------------=
