An instance of this daemon is already running
An instance of this daemon is already running

     Program PWSCF v.7.1 starts on 10May2023 at 10:47:17 

     This program is part of the open-source Quantum ESPRESSO suite
     for quantum simulation of materials; please cite
         "P. Giannozzi et al., J. Phys.:Condens. Matter 21 395502 (2009);
         "P. Giannozzi et al., J. Phys.:Condens. Matter 29 465901 (2017);
         "P. Giannozzi et al., J. Chem. Phys. 152 154105 (2020);
          URL http://www.quantum-espresso.org", 
     in publications or presentations arising from this work. More details at
     http://www.quantum-espresso.org/quote

     Parallel version (MPI & OpenMP), running on       4 processor cores
     Number of MPI processes:                 4
     Threads/MPI process:                     1

     MPI processes distributed on     1 nodes
     153201 MiB available memory on the printing compute node when the environment starts
 
     Reading input from pw-si-45.in
Warning: card &CELL ignored
Warning: card / ignored

     Current dimensions of program PWSCF are:
     Max number of different atomic species (ntypx) = 10
     Max number of k-points (npk) =  40000
     Max angular momentum in pseudopotentials (lmaxx) =  4

     IMPORTANT: XC functional enforced from input :
     Exchange-correlation= PBE
                           (   1   4   3   4   0   0   0)
     Any further DFT definition will be discarded
     Please, verify this is what you really want


     gamma-point specific algorithms are used
 
     K-points division:     npool     =       2
     R & G space division:  proc/nbgrp/npool/nimage =       2
     Subspace diagonalization in iterative solution of the eigenvalue problem:
     a serial algorithm will be used

     Message from routine divide_et_impera:
     suboptimal parallelization: some nodes have no k-points
 
     Parallelization info
     --------------------
     sticks:   dense  smooth     PW     G-vecs:    dense   smooth      PW
     Min        1929    1929    504                90087    90087   12201
     Max        1932    1932    505                90092    90092   12204
     Sum        3861    3861   1009               180179   180179   24405
 
     Using Slab Decomposition
 


     bravais-lattice index     =            0
     lattice parameter (alat)  =      20.0994  a.u.
     unit-cell volume          =    8119.8587 (a.u.)^3
     number of atoms/cell      =           64
     number of atomic types    =            1
     number of electrons       =       256.00
     number of Kohn-Sham states=          154
     kinetic-energy cutoff     =      30.0000  Ry
     charge density cutoff     =     120.0000  Ry
     scf convergence threshold =      1.0E-06
     mixing beta               =       0.5000
     number of iterations used =            8  plain     mixing
     Exchange-correlation= PBE
                           (   1   4   3   4   0   0   0)

     GPU acceleration is ACTIVE.
     GPU-aware MPI enabled

     Message from routine print_cuda_info:
     High GPU oversubscription detected. Are you sure this is what you want?

     celldm(1)=  20.099388  celldm(2)=   0.000000  celldm(3)=   0.000000
     celldm(4)=   0.000000  celldm(5)=   0.000000  celldm(6)=   0.000000

     crystal axes: (cart. coord. in units of alat)
               a(1) = (   1.000000   0.000000   0.000000 )  
               a(2) = (   0.000000   1.000000   0.000000 )  
               a(3) = (   0.000000   0.000000   1.000000 )  

     reciprocal axes: (cart. coord. in units 2 pi/alat)
               b(1) = (  1.000000  0.000000  0.000000 )  
               b(2) = (  0.000000  1.000000  0.000000 )  
               b(3) = (  0.000000  0.000000  1.000000 )  


     PseudoPot. # 1 for Si read from file:
     /home/ppiaggi/pseudos/Si_ONCV_PBE_sr.upf
     MD5 check sum: 8553c464762ac42b85b1eed164b4d029
     Pseudo is Norm-conserving, Zval =  4.0
     Generated using ONCVPSP code by D. R. Hamann
     Using radial grid of 1510 points,  4 beta functions with: 
                l(1) =   0
                l(2) =   0
                l(3) =   1
                l(4) =   1

     atomic species   valence    mass     pseudopotential
        Si             4.00    28.08500     Si( 1.00)

     No symmetry found



   Cartesian axes

     site n.     atom                  positions (alat units)
         1           Si  tau(   1) = (   0.4103290   0.4252430   0.5527360  )
         2           Si  tau(   2) = (   0.8409000   0.3369520   0.4688710  )
         3           Si  tau(   3) = (   0.5156720   0.6543080   0.1679560  )
         4           Si  tau(   4) = (   0.7199490   0.3514870   0.9910910  )
         5           Si  tau(   5) = (   0.7091130   0.9701220   0.6741550  )
         6           Si  tau(   6) = (   0.6489870   0.7302320   0.9455760  )
         7           Si  tau(   7) = (   0.4987220   0.1387640   0.0811687  )
         8           Si  tau(   8) = (   0.6436070   0.2381460   0.2260420  )
         9           Si  tau(   9) = (   0.7091460   0.6758800   0.6471790  )
        10           Si  tau(  10) = (   0.9443040   0.1644420   0.3539120  )
        11           Si  tau(  11) = (   0.5649790   0.0267606   0.8812210  )
        12           Si  tau(  12) = (   0.8400180   0.1865230   0.9090530  )
        13           Si  tau(  13) = (   0.0266529   0.4145590   0.9991440  )
        14           Si  tau(  14) = (   0.0914461   0.3617880   0.3443940  )
        15           Si  tau(  15) = (   0.7910070   0.9692120   0.9600480  )
        16           Si  tau(  16) = (   0.8064160   0.8965780   0.4385730  )
        17           Si  tau(  17) = (   0.2834520   0.6062730   0.9154930  )
        18           Si  tau(  18) = (   0.2821260   0.6373200   0.6208570  )
        19           Si  tau(  19) = (   0.9309030   0.3447040   0.6977800  )
        20           Si  tau(  20) = (   0.3148640   0.7483840   0.0786549  )
        21           Si  tau(  21) = (   0.1949160   0.1704150   0.9383250  )
        22           Si  tau(  22) = (   0.4594710   0.6033370   0.7696620  )
        23           Si  tau(  23) = (   0.7171210   0.1886610   0.6793850  )
        24           Si  tau(  24) = (   0.0026918   0.6465980   0.9355050  )
        25           Si  tau(  25) = (   0.5164500   0.4253820   0.2666400  )
        26           Si  tau(  26) = (   0.4818790   0.7880190   0.3959450  )
        27           Si  tau(  27) = (   0.5272840   0.4908080   0.9981520  )
        28           Si  tau(  28) = (   0.1170140   0.1761680   0.5471130  )
        29           Si  tau(  29) = (   0.1689760   0.4440760   0.1433250  )
        30           Si  tau(  30) = (   0.0568524   0.9549840   0.1908720  )
        31           Si  tau(  31) = (   0.7900400   0.6442750   0.2094300  )
        32           Si  tau(  32) = (   0.3343700   0.0356661   0.5882900  )
        33           Si  tau(  33) = (   0.3286810   0.3156860   0.3222310  )
        34           Si  tau(  34) = (   0.3416840   0.2484170   0.6840810  )
        35           Si  tau(  35) = (   0.6809500   0.6742270   0.4115470  )
        36           Si  tau(  36) = (   0.8498200   0.4050180   0.1772520  )
        37           Si  tau(  37) = (   0.6923280   0.1414790   0.4335400  )
        38           Si  tau(  38) = (   0.3420840   0.1016720   0.2165530  )
        39           Si  tau(  39) = (   0.6613280   0.4585530   0.4323090  )
        40           Si  tau(  40) = (   0.5953900   0.8850890   0.1380510  )
        41           Si  tau(  41) = (   0.4566780   0.8560740   0.8732100  )
        42           Si  tau(  42) = (   0.8372960   0.7620230   0.8343130  )
        43           Si  tau(  43) = (   0.5474810   0.2650740   0.8179570  )
        44           Si  tau(  44) = (   0.9671910   0.9191750   0.6947060  )
        45           Si  tau(  45) = (   0.1871990   0.9795030   0.3895110  )
        46           Si  tau(  46) = (   0.3664000   0.3363960   0.0328793  )
        47           Si  tau(  47) = (   0.8107270   0.4828430   0.8359130  )
        48           Si  tau(  48) = (   0.0431031   0.1406930   0.7629190  )
        49           Si  tau(  49) = (   0.4927420   0.0126601   0.3817730  )
        50           Si  tau(  50) = (   0.2370120   0.9578830   0.0429607  )
        51           Si  tau(  51) = (   0.5219130   0.8162590   0.6259440  )
        52           Si  tau(  52) = (   0.1926560   0.6360430   0.2527590  )
        53           Si  tau(  53) = (   0.0182440   0.8181350   0.4841390  )
        54           Si  tau(  54) = (   0.9745980   0.6178130   0.6309820  )
        55           Si  tau(  55) = (   0.9971300   0.7402950   0.1476800  )
        56           Si  tau(  56) = (   0.2112450   0.4166810   0.8406860  )
        57           Si  tau(  57) = (   0.8014240   0.9537620   0.1953620  )
        58           Si  tau(  58) = (   0.6166660   0.4326770   0.6652160  )
        59           Si  tau(  59) = (   0.1458510   0.4257980   0.5990970  )
        60           Si  tau(  60) = (   0.9689640   0.6019050   0.3899140  )
        61           Si  tau(  61) = (   0.2266190   0.9460380   0.7730650  )
        62           Si  tau(  62) = (   0.9743670   0.1830030   0.1095360  )
        63           Si  tau(  63) = (   0.2650210   0.7549750   0.4366860  )
        64           Si  tau(  64) = (   0.1397790   0.7270050   0.7685740  )

     number of k points=     1  Fermi-Dirac smearing, width (Ry)=  0.0100
                       cart. coord. in units 2pi/alat
        k(    1) = (   0.0000000   0.0000000   0.0000000), wk =   2.0000000

     Dense  grid:    90090 G-vectors     FFT dimensions: (  72,  72,  72)

     Estimated max dynamical RAM per process >     144.74 MB

     Estimated total dynamical RAM >     556.97 MB

     Initial potential from superposition of free atoms

     starting charge     255.9608, renormalised to     256.0000
     Starting wfcs are  256 randomized atomic wfcs

     total cpu time spent up to now is        4.2 secs

     Self-consistent Calculation

     iteration #  1     ecut=    30.00 Ry     beta= 0.50
     Davidson diagonalization with overlap
     ethr =  1.00E-02,  avg # of iterations =  3.0

     Threshold (ethr) on eigenvalues was too large:
     Diagonalizing with lowered threshold

     Davidson diagonalization with overlap
     ethr =  3.80E-04,  avg # of iterations =  5.0

     total cpu time spent up to now is        4.4 secs

     total energy              =    -501.24063382 Ry
     estimated scf accuracy    <       1.17066551 Ry

     iteration #  2     ecut=    30.00 Ry     beta= 0.50
     Davidson diagonalization with overlap
     ethr =  4.57E-04,  avg # of iterations =  5.0

     total cpu time spent up to now is        4.5 secs

     total energy              =    -500.63581141 Ry
     estimated scf accuracy    <       8.07767273 Ry

     iteration #  3     ecut=    30.00 Ry     beta= 0.50
     Davidson diagonalization with overlap
     ethr =  4.57E-04,  avg # of iterations =  5.0

     total cpu time spent up to now is        4.6 secs

     total energy              =    -501.36769654 Ry
     estimated scf accuracy    <       1.41454523 Ry

     iteration #  4     ecut=    30.00 Ry     beta= 0.50
     Davidson diagonalization with overlap
     ethr =  4.57E-04,  avg # of iterations =  2.0

     total cpu time spent up to now is        4.7 secs

     total energy              =    -501.43794500 Ry
     estimated scf accuracy    <       0.53027080 Ry

     iteration #  5     ecut=    30.00 Ry     beta= 0.50
     Davidson diagonalization with overlap
     ethr =  2.07E-04,  avg # of iterations =  2.0

     total cpu time spent up to now is        4.7 secs

     total energy              =    -501.46823139 Ry
     estimated scf accuracy    <       0.44513259 Ry

     iteration #  6     ecut=    30.00 Ry     beta= 0.50
     Davidson diagonalization with overlap
     ethr =  1.74E-04,  avg # of iterations =  2.0

     total cpu time spent up to now is        4.8 secs

     total energy              =    -501.50756245 Ry
     estimated scf accuracy    <       0.05534354 Ry

     iteration #  7     ecut=    30.00 Ry     beta= 0.50
     Davidson diagonalization with overlap
     ethr =  2.16E-05,  avg # of iterations = 17.0

     total cpu time spent up to now is        5.0 secs

     total energy              =    -501.51433462 Ry
     estimated scf accuracy    <       0.02431208 Ry

     iteration #  8     ecut=    30.00 Ry     beta= 0.50
     Davidson diagonalization with overlap
     ethr =  9.50E-06,  avg # of iterations =  3.0

     total cpu time spent up to now is        5.1 secs

     total energy              =    -501.51656104 Ry
     estimated scf accuracy    <       0.02569723 Ry

     iteration #  9     ecut=    30.00 Ry     beta= 0.50
     Davidson diagonalization with overlap
     ethr =  9.50E-06,  avg # of iterations =  2.0

     total cpu time spent up to now is        5.2 secs

     total energy              =    -501.51838409 Ry
     estimated scf accuracy    <       0.00144706 Ry

     iteration # 10     ecut=    30.00 Ry     beta= 0.50
     Davidson diagonalization with overlap
     ethr =  5.65E-07,  avg # of iterations = 14.0

     total cpu time spent up to now is        5.4 secs

     total energy              =    -501.51850940 Ry
     estimated scf accuracy    <       0.00274771 Ry

     iteration # 11     ecut=    30.00 Ry     beta= 0.50
     Davidson diagonalization with overlap
     ethr =  5.65E-07,  avg # of iterations =  3.0

     total cpu time spent up to now is        5.5 secs

     total energy              =    -501.51870345 Ry
     estimated scf accuracy    <       0.00039921 Ry

     iteration # 12     ecut=    30.00 Ry     beta= 0.50
     Davidson diagonalization with overlap
     ethr =  1.56E-07,  avg # of iterations =  3.0

     total cpu time spent up to now is        5.6 secs

     total energy              =    -501.51874622 Ry
     estimated scf accuracy    <       0.00027855 Ry

     iteration # 13     ecut=    30.00 Ry     beta= 0.50
     Davidson diagonalization with overlap
     ethr =  1.09E-07,  avg # of iterations =  2.0

     total cpu time spent up to now is        5.6 secs

     total energy              =    -501.51876345 Ry
     estimated scf accuracy    <       0.00016010 Ry

     iteration # 14     ecut=    30.00 Ry     beta= 0.50
     Davidson diagonalization with overlap
     ethr =  6.25E-08,  avg # of iterations =  2.0

     total cpu time spent up to now is        5.7 secs

     total energy              =    -501.51877416 Ry
     estimated scf accuracy    <       0.00002315 Ry

     iteration # 15     ecut=    30.00 Ry     beta= 0.50
     Davidson diagonalization with overlap
     ethr =  9.04E-09,  avg # of iterations =  3.0

     total cpu time spent up to now is        5.8 secs

     total energy              =    -501.51877737 Ry
     estimated scf accuracy    <       0.00001790 Ry

     iteration # 16     ecut=    30.00 Ry     beta= 0.50
     Davidson diagonalization with overlap
     ethr =  6.99E-09,  avg # of iterations =  2.0

     total cpu time spent up to now is        5.9 secs

     total energy              =    -501.51877877 Ry
     estimated scf accuracy    <       0.00000353 Ry

     iteration # 17     ecut=    30.00 Ry     beta= 0.50
     Davidson diagonalization with overlap
     ethr =  1.38E-09,  avg # of iterations =  2.0

     total cpu time spent up to now is        6.0 secs

     total energy              =    -501.51877906 Ry
     estimated scf accuracy    <       0.00000126 Ry

     iteration # 18     ecut=    30.00 Ry     beta= 0.50
     Davidson diagonalization with overlap
     ethr =  4.93E-10,  avg # of iterations =  4.0

     total cpu time spent up to now is        6.1 secs

     total energy              =    -501.51877911 Ry
     estimated scf accuracy    <       0.00000271 Ry

     iteration # 19     ecut=    30.00 Ry     beta= 0.50
     Davidson diagonalization with overlap
     ethr =  4.93E-10,  avg # of iterations =  3.0

     total cpu time spent up to now is        6.2 secs

     End of self-consistent calculation

          k = 0.0000 0.0000 0.0000 ( 11288 PWs)   bands (ev):

    -5.3053  -4.3426  -4.2424  -4.1227  -4.1093  -3.9731  -3.8762  -3.2676
    -3.2537  -3.1215  -3.0750  -2.9855  -2.9217  -2.8230  -2.7817  -2.6732
    -2.6159  -2.5530  -2.3593  -1.9941  -1.9282  -1.7917  -1.7552  -1.7083
    -1.5167  -1.4759  -1.2373  -0.9033  -0.8143  -0.6753  -0.5364  -0.3646
    -0.1877  -0.1370  -0.0817   0.0692   0.1832   0.2415   0.3891   0.4500
     0.4735   0.5339   0.6410   0.7095   0.7704   0.8624   0.9731   1.0577
     1.0870   1.1473   1.1903   1.2386   1.3895   1.5346   1.5706   1.6590
     1.7827   1.8261   1.9257   2.1245   2.1791   2.2905   2.3814   2.4697
     2.5496   2.6229   2.6472   2.7746   2.8743   2.8927   2.9619   3.1014
     3.1369   3.1613   3.2523   3.3322   3.4065   3.4377   3.6429   3.7216
     3.8017   3.9628   4.3615   4.4142   4.5249   4.5576   4.7288   4.7497
     4.7745   4.8769   4.9981   5.0179   5.0941   5.1777   5.2462   5.3509
     5.3905   5.4179   5.4647   5.5128   5.5565   5.5935   5.6227   5.7338
     5.7666   5.8136   5.8887   5.9023   5.9961   6.1076   6.1478   6.1850
     6.2413   6.3001   6.3325   6.4248   6.4638   6.5106   6.5811   6.6289
     6.6543   6.8305   6.9062   6.9527   6.9749   7.0289   7.0803   7.1987
     7.2055   7.2492   7.2967   7.3802   7.4562   7.4709   7.5706   7.6101
     7.6975   7.7117   7.7674   7.8666   7.9269   8.0250   8.0568   8.1474
     8.1661   8.2229   8.3554   8.4266   8.4847   8.5101   8.6340   8.6568
     8.7514   8.8110

     the Fermi energy is     7.1804 ev

!    total energy              =    -501.51877909 Ry
     estimated scf accuracy    <       0.00000028 Ry
     smearing contrib. (-TS)   =      -0.15432634 Ry
     internal energy E=F+TS    =    -501.36445276 Ry

     The total energy is F=E-TS. E is the sum of the following terms:
     one-electron contribution =     192.74052464 Ry
     hartree contribution      =      22.17461746 Ry
     xc contribution           =    -150.65390014 Ry
     ewald contribution        =    -565.62569472 Ry

     convergence has been achieved in  19 iterations

     Forces acting on atoms (cartesian axes, Ry/au):

     atom    1 type  1   force =    -0.00957198    0.00934970   -0.01502880
     atom    2 type  1   force =     0.01705633   -0.01102098    0.03456926
     atom    3 type  1   force =    -0.01299091    0.00194680   -0.01442569
     atom    4 type  1   force =    -0.04242981    0.02227012    0.01865311
     atom    5 type  1   force =     0.00488648   -0.03959281   -0.02004068
     atom    6 type  1   force =    -0.04328342    0.00995505    0.03277883
     atom    7 type  1   force =     0.03955263    0.01077654   -0.03775929
     atom    8 type  1   force =     0.02378562    0.01527894   -0.01460841
     atom    9 type  1   force =     0.01538479   -0.02394430    0.02459667
     atom   10 type  1   force =     0.02080077    0.00193684   -0.00412101
     atom   11 type  1   force =     0.08020800    0.09165950    0.03732613
     atom   12 type  1   force =     0.02380168   -0.03151194   -0.01687558
     atom   13 type  1   force =    -0.05439836    0.00283232   -0.06888806
     atom   14 type  1   force =     0.01168238    0.00005481    0.02021146
     atom   15 type  1   force =    -0.03371528   -0.00883764   -0.00112196
     atom   16 type  1   force =    -0.00053754    0.01501076    0.00416644
     atom   17 type  1   force =     0.01527591    0.00876256   -0.01513698
     atom   18 type  1   force =     0.00469730   -0.05542041   -0.00358404
     atom   19 type  1   force =    -0.00515544   -0.00216341   -0.02909918
     atom   20 type  1   force =     0.01443279   -0.00452083    0.00863425
     atom   21 type  1   force =    -0.01944352    0.00974237   -0.00145755
     atom   22 type  1   force =     0.02493933   -0.00295434   -0.00211653
     atom   23 type  1   force =     0.01199102    0.01758640   -0.00426819
     atom   24 type  1   force =     0.00057032   -0.02273950    0.01305555
     atom   25 type  1   force =    -0.01273808    0.00684668   -0.00336364
     atom   26 type  1   force =     0.01635404   -0.00273750    0.01156904
     atom   27 type  1   force =     0.01405736    0.03006921   -0.00804485
     atom   28 type  1   force =     0.02102572    0.01014643   -0.01745300
     atom   29 type  1   force =     0.08753361    0.00413846    0.07108684
     atom   30 type  1   force =    -0.01544339    0.00540688   -0.00218269
     atom   31 type  1   force =     0.01149758   -0.02587667    0.01695958
     atom   32 type  1   force =     0.00237492    0.02292647   -0.02087219
     atom   33 type  1   force =    -0.02332993   -0.01181811   -0.00676658
     atom   34 type  1   force =     0.00125602   -0.00563281    0.00284288
     atom   35 type  1   force =     0.02623194    0.03110217    0.00536191
     atom   36 type  1   force =    -0.03016079   -0.00358088   -0.00924836
     atom   37 type  1   force =     0.00501200   -0.03067108   -0.00087514
     atom   38 type  1   force =    -0.02002605   -0.00859724    0.06591349
     atom   39 type  1   force =    -0.01830407    0.01221967    0.02567860
     atom   40 type  1   force =     0.01486605   -0.00222029   -0.03862732
     atom   41 type  1   force =    -0.07147019   -0.09542610   -0.01882114
     atom   42 type  1   force =    -0.00095181    0.03659127   -0.03291115
     atom   43 type  1   force =     0.00161287   -0.01614042    0.00128582
     atom   44 type  1   force =    -0.00845982   -0.00276397    0.00189459
     atom   45 type  1   force =    -0.00646608   -0.02183359    0.00371499
     atom   46 type  1   force =    -0.02892476   -0.01793513   -0.00140813
     atom   47 type  1   force =     0.00473846    0.02457234   -0.03794510
     atom   48 type  1   force =    -0.01475383   -0.02251607    0.00858069
     atom   49 type  1   force =    -0.01625778    0.01194482    0.00720757
     atom   50 type  1   force =    -0.00461692    0.01601317    0.00281127
     atom   51 type  1   force =     0.01057661    0.01302295    0.02544409
     atom   52 type  1   force =    -0.03121452    0.02101062   -0.00660062
     atom   53 type  1   force =    -0.00963490    0.02793913    0.01947260
     atom   54 type  1   force =     0.00370016   -0.01524410   -0.02426638
     atom   55 type  1   force =     0.01287156    0.00454697    0.00803084
     atom   56 type  1   force =    -0.00974876   -0.05111761   -0.00896633
     atom   57 type  1   force =     0.01821516    0.00263263    0.00833026
     atom   58 type  1   force =    -0.00260993    0.04698837    0.01894354
     atom   59 type  1   force =    -0.01069598    0.01298364    0.00901954
     atom   60 type  1   force =     0.00883779   -0.01860563    0.00149471
     atom   61 type  1   force =    -0.00193063   -0.02966703    0.01887671
     atom   62 type  1   force =    -0.00473603   -0.01316919   -0.00468690
     atom   63 type  1   force =    -0.00550273    0.01260088   -0.04884141
     atom   64 type  1   force =    -0.00032396    0.02739409    0.01190166

     Total force =     0.345863     Total SCF correction =     0.001019


     Computing stress (Cartesian axis) and pressure

          total   stress  (Ry/bohr**3)                   (kbar)     P=      -40.44
  -0.00016418   0.00003239  -0.00000815          -24.15        4.77       -1.20
   0.00003239  -0.00030239  -0.00000697            4.77      -44.48       -1.03
  -0.00000815  -0.00000697  -0.00035807           -1.20       -1.03      -52.67

 
     init_run     :      1.02s CPU      4.10s WALL (       1 calls)
     electrons    :      1.85s CPU      2.00s WALL (       1 calls)
     forces       :      0.03s CPU      0.05s WALL (       1 calls)
     stress       :      0.14s CPU      0.14s WALL (       1 calls)

     Called by init_run:
     wfcinit      :      0.51s CPU      3.45s WALL (       1 calls)
                                        3.45s GPU  (       1 calls)
     potinit      :      0.04s CPU      0.12s WALL (       1 calls)
     hinit0       :      0.45s CPU      0.47s WALL (       1 calls)

     Called by electrons:
     c_bands      :      1.23s CPU      1.33s WALL (      20 calls)
     sum_band     :      0.32s CPU      0.37s WALL (      20 calls)
     v_of_rho     :      0.13s CPU      0.22s WALL (      20 calls)
     mix_rho      :      0.14s CPU      0.15s WALL (      20 calls)

     Called by c_bands:
     init_us_2    :      0.05s CPU      0.05s WALL (      41 calls)
     init_us_2:gp :      0.05s CPU      0.05s WALL (      41 calls)
     regterg      :      1.07s CPU      1.15s WALL (      20 calls)

     Called by *egterg:
     rdiaghg      :      0.50s CPU      1.10s WALL (     103 calls)
                                        1.08s GPU  (     103 calls)
     h_psi        :      0.90s CPU      3.28s WALL (     105 calls)
                                        3.27s GPU  (     105 calls)
     g_psi        :      0.00s CPU      0.00s WALL (      84 calls)
                                        0.00s GPU  (      84 calls)

     Called by h_psi:
     h_psi:calbec :      0.47s CPU      2.79s WALL (     105 calls)
                                        2.79s GPU  (     105 calls)
     vloc_psi     :      0.37s CPU      0.42s WALL (     105 calls)
                                        0.42s GPU  (     105 calls)
     add_vuspsi   :      0.04s CPU      0.06s WALL (     105 calls)
                                        0.06s GPU  (     105 calls)

     General routines
     calbec       :      0.47s CPU      2.79s WALL (     110 calls)
     fft          :      0.55s CPU      0.65s WALL (     167 calls)
                                        0.11s GPU  (     106 calls)
     ffts         :      0.03s CPU      0.03s WALL (      20 calls)
     fftw         :      0.46s CPU      0.58s WALL (    2142 calls)
                                        0.51s GPU  (    2142 calls)
 
     Parallel routines
 
     PWSCF        :      3.07s CPU      6.36s WALL

 
   This run was terminated on:  10:47:23  10May2023            

=------------------------------------------------------------------------------=
   JOB DONE.
=------------------------------------------------------------------------------=
