An instance of this daemon is already running

     Program PWSCF v.7.1 starts on 10May2023 at 10:44: 3 

     This program is part of the open-source Quantum ESPRESSO suite
     for quantum simulation of materials; please cite
         "P. Giannozzi et al., J. Phys.:Condens. Matter 21 395502 (2009);
         "P. Giannozzi et al., J. Phys.:Condens. Matter 29 465901 (2017);
         "P. Giannozzi et al., J. Chem. Phys. 152 154105 (2020);
          URL http://www.quantum-espresso.org", 
     in publications or presentations arising from this work. More details at
     http://www.quantum-espresso.org/quote

     Parallel version (MPI & OpenMP), running on       4 processor cores
     Number of MPI processes:                 4
     Threads/MPI process:                     1

     MPI processes distributed on     1 nodes
     153224 MiB available memory on the printing compute node when the environment starts
 
     Reading input from pw-si-23.in
Warning: card &CELL ignored
Warning: card / ignored

     Current dimensions of program PWSCF are:
     Max number of different atomic species (ntypx) = 10
     Max number of k-points (npk) =  40000
     Max angular momentum in pseudopotentials (lmaxx) =  4

     IMPORTANT: XC functional enforced from input :
     Exchange-correlation= PBE
                           (   1   4   3   4   0   0   0)
     Any further DFT definition will be discarded
     Please, verify this is what you really want


     gamma-point specific algorithms are used
 
     K-points division:     npool     =       2
     R & G space division:  proc/nbgrp/npool/nimage =       2
     Subspace diagonalization in iterative solution of the eigenvalue problem:
     a serial algorithm will be used

     Message from routine divide_et_impera:
     suboptimal parallelization: some nodes have no k-points
 
     Parallelization info
     --------------------
     sticks:   dense  smooth     PW     G-vecs:    dense   smooth      PW
     Min        1896    1896    501                88152    88152   11935
     Max        1897    1897    504                88157    88157   11936
     Sum        3793    3793   1005               176309   176309   23871
 
     Using Slab Decomposition
 


     bravais-lattice index     =            0
     lattice parameter (alat)  =      19.9499  a.u.
     unit-cell volume          =    7940.0051 (a.u.)^3
     number of atoms/cell      =           64
     number of atomic types    =            1
     number of electrons       =       256.00
     number of Kohn-Sham states=          154
     kinetic-energy cutoff     =      30.0000  Ry
     charge density cutoff     =     120.0000  Ry
     scf convergence threshold =      1.0E-06
     mixing beta               =       0.5000
     number of iterations used =            8  plain     mixing
     Exchange-correlation= PBE
                           (   1   4   3   4   0   0   0)

     GPU acceleration is ACTIVE.
     GPU-aware MPI enabled

     Message from routine print_cuda_info:
     High GPU oversubscription detected. Are you sure this is what you want?

     celldm(1)=  19.949879  celldm(2)=   0.000000  celldm(3)=   0.000000
     celldm(4)=   0.000000  celldm(5)=   0.000000  celldm(6)=   0.000000

     crystal axes: (cart. coord. in units of alat)
               a(1) = (   1.000000   0.000000   0.000000 )  
               a(2) = (   0.000000   1.000000   0.000000 )  
               a(3) = (   0.000000   0.000000   1.000000 )  

     reciprocal axes: (cart. coord. in units 2 pi/alat)
               b(1) = (  1.000000  0.000000  0.000000 )  
               b(2) = (  0.000000  1.000000  0.000000 )  
               b(3) = (  0.000000  0.000000  1.000000 )  


     PseudoPot. # 1 for Si read from file:
     /home/ppiaggi/pseudos/Si_ONCV_PBE_sr.upf
     MD5 check sum: 8553c464762ac42b85b1eed164b4d029
     Pseudo is Norm-conserving, Zval =  4.0
     Generated using ONCVPSP code by D. R. Hamann
     Using radial grid of 1510 points,  4 beta functions with: 
                l(1) =   0
                l(2) =   0
                l(3) =   1
                l(4) =   1

     atomic species   valence    mass     pseudopotential
        Si             4.00    28.08500     Si( 1.00)

     No symmetry found



   Cartesian axes

     site n.     atom                  positions (alat units)
         1           Si  tau(   1) = (   0.7213380   0.7727350   0.8566980  )
         2           Si  tau(   2) = (   0.7281160   0.2601390   0.1606480  )
         3           Si  tau(   3) = (   0.0532524   0.1482730   0.4823370  )
         4           Si  tau(   4) = (   0.7364210   0.4729990   0.8088860  )
         5           Si  tau(   5) = (   0.1851220   0.3499520   0.5130210  )
         6           Si  tau(   6) = (   0.7794630   0.0269270   0.1968550  )
         7           Si  tau(   7) = (   0.6856370   0.0350715   0.3784610  )
         8           Si  tau(   8) = (   0.2783720   0.7540860   0.3147010  )
         9           Si  tau(   9) = (   0.4228340   0.8447220   0.6818780  )
        10           Si  tau(  10) = (   0.3791630   0.4958530   0.2085520  )
        11           Si  tau(  11) = (   0.9927490   0.4421110   0.8716550  )
        12           Si  tau(  12) = (   0.9392990   0.6884780   0.7872680  )
        13           Si  tau(  13) = (   0.0415403   0.5944380   0.0726409  )
        14           Si  tau(  14) = (   0.7381050   0.2861450   0.6710430  )
        15           Si  tau(  15) = (   0.6102760   0.8970650   0.5590510  )
        16           Si  tau(  16) = (   0.9493280   0.5213260   0.2662230  )
        17           Si  tau(  17) = (   0.8410850   0.0934021   0.5710000  )
        18           Si  tau(  18) = (   0.4783550   0.8786160   0.3514740  )
        19           Si  tau(  19) = (   0.5861910   0.4609000   0.0303289  )
        20           Si  tau(  20) = (   0.8775560   0.3129740   0.3881400  )
        21           Si  tau(  21) = (   0.2815330   0.1623660   0.8694950  )
        22           Si  tau(  22) = (   0.6713730   0.3685150   0.4637800  )
        23           Si  tau(  23) = (   0.0723571   0.1820100   0.7580510  )
        24           Si  tau(  24) = (   0.5338510   0.2062170   0.3983400  )
        25           Si  tau(  25) = (   0.9025250   0.2834530   0.0243261  )
        26           Si  tau(  26) = (   0.8447900   0.7015240   0.0500725  )
        27           Si  tau(  27) = (   0.0460312   0.8905750   0.3329560  )
        28           Si  tau(  28) = (   0.4235370   0.2675680   0.2006420  )
        29           Si  tau(  29) = (   0.2978920   0.3791360   0.9710780  )
        30           Si  tau(  30) = (   0.3254990   0.0807519   0.2304250  )
        31           Si  tau(  31) = (   0.2075790   0.5207290   0.8374660  )
        32           Si  tau(  32) = (   0.6255720   0.0750341   0.7720280  )
        33           Si  tau(  33) = (   0.1895780   0.5046380   0.3371920  )
        34           Si  tau(  34) = (   0.9798460   0.8720710   0.5950600  )
        35           Si  tau(  35) = (   0.3478040   0.1857850   0.5026820  )
        36           Si  tau(  36) = (   0.0471144   0.6116290   0.5396290  )
        37           Si  tau(  37) = (   0.9075310   0.7207940   0.3779950  )
        38           Si  tau(  38) = (   0.2073790   0.7529690   0.0820882  )
        39           Si  tau(  39) = (   0.1626150   0.9483450   0.6706320  )
        40           Si  tau(  40) = (   0.2292370   0.9727060   0.4519740  )
        41           Si  tau(  41) = (   0.5188990   0.6270220   0.3670540  )
        42           Si  tau(  42) = (   0.3818850   0.9775070   0.0533113  )
        43           Si  tau(  43) = (   0.5479980   0.5308810   0.5999930  )
        44           Si  tau(  44) = (   0.5133250   0.8264910   0.1112350  )
        45           Si  tau(  45) = (   0.7423590   0.6874880   0.5757230  )
        46           Si  tau(  46) = (   0.9831230   0.3911620   0.6283840  )
        47           Si  tau(  47) = (   0.5369950   0.3193670   0.8233680  )
        48           Si  tau(  48) = (   0.5188440   0.6702130   0.7994560  )
        49           Si  tau(  49) = (   0.2775340   0.6634350   0.5404250  )
        50           Si  tau(  50) = (   0.4097050   0.0729368   0.6961040  )
        51           Si  tau(  51) = (   0.1654730   0.9418220   0.9246440  )
        52           Si  tau(  52) = (   0.9637230   0.8917050   0.1033610  )
        53           Si  tau(  53) = (   0.1273790   0.3392320   0.1248250  )
        54           Si  tau(  54) = (   0.3902560   0.6496040   0.0115409  )
        55           Si  tau(  55) = (   0.3271580   0.4753540   0.6680050  )
        56           Si  tau(  56) = (   0.7016010   0.4889850   0.2224250  )
        57           Si  tau(  57) = (   0.8414800   0.9522020   0.7598680  )
        58           Si  tau(  58) = (   0.9471470   0.0667181   0.9083050  )
        59           Si  tau(  59) = (   0.7150380   0.7408600   0.2509240  )
        60           Si  tau(  60) = (   0.6713970   0.9735020   0.0219900  )
        61           Si  tau(  61) = (   0.9863650   0.1142010   0.2755040  )
        62           Si  tau(  62) = (   0.1381550   0.1245590   0.1274980  )
        63           Si  tau(  63) = (   0.1660430   0.7332420   0.7776420  )
        64           Si  tau(  64) = (   0.5324960   0.1773990   0.0095351  )

     number of k points=     1  Fermi-Dirac smearing, width (Ry)=  0.0100
                       cart. coord. in units 2pi/alat
        k(    1) = (   0.0000000   0.0000000   0.0000000), wk =   2.0000000

     Dense  grid:    88155 G-vectors     FFT dimensions: (  72,  72,  72)

     Estimated max dynamical RAM per process >     141.91 MB

     Estimated total dynamical RAM >     546.13 MB

     Initial potential from superposition of free atoms

     starting charge     255.9608, renormalised to     256.0000
     Starting wfcs are  256 randomized atomic wfcs

     total cpu time spent up to now is        4.2 secs

     Self-consistent Calculation

     iteration #  1     ecut=    30.00 Ry     beta= 0.50
     Davidson diagonalization with overlap
     ethr =  1.00E-02,  avg # of iterations =  3.0

     Threshold (ethr) on eigenvalues was too large:
     Diagonalizing with lowered threshold

     Davidson diagonalization with overlap
     ethr =  5.11E-04,  avg # of iterations =  4.0

     total cpu time spent up to now is        4.4 secs

     total energy              =    -501.00961563 Ry
     estimated scf accuracy    <       1.54487110 Ry

     iteration #  2     ecut=    30.00 Ry     beta= 0.50
     Davidson diagonalization with overlap
     ethr =  6.03E-04,  avg # of iterations =  5.0

     total cpu time spent up to now is        4.5 secs

     total energy              =    -499.88232828 Ry
     estimated scf accuracy    <      17.90131679 Ry

     iteration #  3     ecut=    30.00 Ry     beta= 0.50
     Davidson diagonalization with overlap
     ethr =  6.03E-04,  avg # of iterations =  4.0

     total cpu time spent up to now is        4.6 secs

     total energy              =    -501.34693805 Ry
     estimated scf accuracy    <       1.11064620 Ry

     iteration #  4     ecut=    30.00 Ry     beta= 0.50
     Davidson diagonalization with overlap
     ethr =  4.34E-04,  avg # of iterations =  2.0

     total cpu time spent up to now is        4.7 secs

     total energy              =    -501.39043909 Ry
     estimated scf accuracy    <       0.61858318 Ry

     iteration #  5     ecut=    30.00 Ry     beta= 0.50
     Davidson diagonalization with overlap
     ethr =  2.42E-04,  avg # of iterations =  2.0

     total cpu time spent up to now is        4.8 secs

     total energy              =    -501.41716825 Ry
     estimated scf accuracy    <       0.67932362 Ry

     iteration #  6     ecut=    30.00 Ry     beta= 0.50
     Davidson diagonalization with overlap
     ethr =  2.42E-04,  avg # of iterations =  1.0

     total cpu time spent up to now is        4.9 secs

     total energy              =    -501.46898130 Ry
     estimated scf accuracy    <       0.07129782 Ry

     iteration #  7     ecut=    30.00 Ry     beta= 0.50
     Davidson diagonalization with overlap
     ethr =  2.79E-05,  avg # of iterations =  3.0

     total cpu time spent up to now is        5.0 secs

     total energy              =    -501.47661271 Ry
     estimated scf accuracy    <       0.06232400 Ry

     iteration #  8     ecut=    30.00 Ry     beta= 0.50
     Davidson diagonalization with overlap
     ethr =  2.43E-05,  avg # of iterations =  2.0

     total cpu time spent up to now is        5.0 secs

     total energy              =    -501.48228264 Ry
     estimated scf accuracy    <       0.01196026 Ry

     iteration #  9     ecut=    30.00 Ry     beta= 0.50
     Davidson diagonalization with overlap
     ethr =  4.67E-06,  avg # of iterations = 10.0

     total cpu time spent up to now is        5.2 secs

     total energy              =    -501.48361651 Ry
     estimated scf accuracy    <       0.00199592 Ry

     iteration # 10     ecut=    30.00 Ry     beta= 0.50
     Davidson diagonalization with overlap
     ethr =  7.80E-07,  avg # of iterations =  8.0

     total cpu time spent up to now is        5.3 secs

     total energy              =    -501.48368267 Ry
     estimated scf accuracy    <       0.00353285 Ry

     iteration # 11     ecut=    30.00 Ry     beta= 0.50
     Davidson diagonalization with overlap
     ethr =  7.80E-07,  avg # of iterations =  2.0

     total cpu time spent up to now is        5.4 secs

     total energy              =    -501.48393510 Ry
     estimated scf accuracy    <       0.00031251 Ry

     iteration # 12     ecut=    30.00 Ry     beta= 0.50
     Davidson diagonalization with overlap
     ethr =  1.22E-07,  avg # of iterations =  5.0

     total cpu time spent up to now is        5.5 secs

     total energy              =    -501.48397848 Ry
     estimated scf accuracy    <       0.00027436 Ry

     iteration # 13     ecut=    30.00 Ry     beta= 0.50
     Davidson diagonalization with overlap
     ethr =  1.07E-07,  avg # of iterations =  2.0

     total cpu time spent up to now is        5.6 secs

     total energy              =    -501.48399858 Ry
     estimated scf accuracy    <       0.00010635 Ry

     iteration # 14     ecut=    30.00 Ry     beta= 0.50
     Davidson diagonalization with overlap
     ethr =  4.15E-08,  avg # of iterations =  2.0

     total cpu time spent up to now is        5.7 secs

     total energy              =    -501.48400722 Ry
     estimated scf accuracy    <       0.00002407 Ry

     iteration # 15     ecut=    30.00 Ry     beta= 0.50
     Davidson diagonalization with overlap
     ethr =  9.40E-09,  avg # of iterations =  3.0

     total cpu time spent up to now is        5.7 secs

     total energy              =    -501.48400982 Ry
     estimated scf accuracy    <       0.00001938 Ry

     iteration # 16     ecut=    30.00 Ry     beta= 0.50
     Davidson diagonalization with overlap
     ethr =  7.57E-09,  avg # of iterations =  2.0

     total cpu time spent up to now is        5.8 secs

     total energy              =    -501.48401121 Ry
     estimated scf accuracy    <       0.00000174 Ry

     iteration # 17     ecut=    30.00 Ry     beta= 0.50
     Davidson diagonalization with overlap
     ethr =  6.80E-10,  avg # of iterations =  4.0

     total cpu time spent up to now is        5.9 secs

     total energy              =    -501.48401132 Ry
     estimated scf accuracy    <       0.00000549 Ry

     iteration # 18     ecut=    30.00 Ry     beta= 0.50
     Davidson diagonalization with overlap
     ethr =  6.80E-10,  avg # of iterations =  3.0

     total cpu time spent up to now is        6.0 secs

     End of self-consistent calculation

          k = 0.0000 0.0000 0.0000 ( 11060 PWs)   bands (ev):

    -5.2254  -4.2628  -4.1580  -3.9683  -3.9239  -3.8598  -3.8041  -3.2240
    -2.9937  -2.9738  -2.9089  -2.8857  -2.8486  -2.7873  -2.7099  -2.5768
    -2.5018  -2.4053  -2.3811  -1.9381  -1.7982  -1.7652  -1.6022  -1.4625
    -1.3675  -1.2496  -0.8889  -0.7457  -0.6608  -0.5164  -0.3854  -0.2844
    -0.1233   0.0864   0.2184   0.2798   0.3667   0.4138   0.5514   0.6241
     0.6731   0.7728   0.8167   0.8529   0.9620   0.9968   1.1167   1.2084
     1.2834   1.3603   1.4033   1.4322   1.5919   1.6146   1.7249   1.8497
     2.0096   2.0342   2.0907   2.2176   2.3315   2.4504   2.5668   2.6425
     2.8038   2.9063   2.9454   3.0338   3.0375   3.0574   3.2475   3.2584
     3.3113   3.3580   3.4706   3.5097   3.5834   3.6668   3.7181   3.9559
     4.0495   4.4388   4.5406   4.6335   4.7041   4.7649   4.8156   4.8681
     4.9457   4.9895   5.0981   5.1372   5.3011   5.3658   5.4028   5.4958
     5.5366   5.5652   5.6781   5.7241   5.8182   5.8408   5.8890   5.9564
     5.9741   6.0903   6.1084   6.1702   6.2041   6.2143   6.2571   6.4231
     6.5363   6.5825   6.5941   6.7041   6.7599   6.8826   6.9023   6.9359
     6.9975   7.0539   7.1053   7.1630   7.2444   7.3096   7.3298   7.3547
     7.4469   7.5466   7.5871   7.5985   7.6952   7.7534   7.8342   7.8668
     7.9144   8.0208   8.0546   8.1018   8.1527   8.1928   8.2423   8.3015
     8.3685   8.3995   8.4806   8.6219   8.6665   8.7716   8.8487   8.9213
     8.9434   8.9920

     the Fermi energy is     7.4284 ev

!    total energy              =    -501.48401145 Ry
     estimated scf accuracy    <       0.00000044 Ry
     smearing contrib. (-TS)   =      -0.15390998 Ry
     internal energy E=F+TS    =    -501.33010146 Ry

     The total energy is F=E-TS. E is the sum of the following terms:
     one-electron contribution =     198.13521069 Ry
     hartree contribution      =      21.79433602 Ry
     xc contribution           =    -151.52513962 Ry
     ewald contribution        =    -569.73450856 Ry

     convergence has been achieved in  18 iterations

     Forces acting on atoms (cartesian axes, Ry/au):

     atom    1 type  1   force =     0.01598830    0.01843357    0.02523537
     atom    2 type  1   force =    -0.00516244   -0.00465139    0.00262568
     atom    3 type  1   force =     0.00063112    0.00238422    0.04329217
     atom    4 type  1   force =    -0.00702661   -0.00144663    0.01310788
     atom    5 type  1   force =     0.01019007   -0.00234721    0.01061619
     atom    6 type  1   force =     0.10283943    0.02300584   -0.04307014
     atom    7 type  1   force =    -0.05350795    0.00645103    0.13366774
     atom    8 type  1   force =     0.00218376   -0.00718003    0.01640272
     atom    9 type  1   force =    -0.01914632   -0.01384365   -0.04074954
     atom   10 type  1   force =     0.00421612    0.01470147   -0.01129681
     atom   11 type  1   force =    -0.01675234    0.01521684    0.00724871
     atom   12 type  1   force =    -0.01136837   -0.00710765   -0.03523210
     atom   13 type  1   force =    -0.01438431   -0.02555436   -0.02334933
     atom   14 type  1   force =     0.00676212   -0.01705686   -0.00513651
     atom   15 type  1   force =     0.00943625   -0.01865285   -0.01440798
     atom   16 type  1   force =     0.00754028   -0.01560832    0.01797653
     atom   17 type  1   force =     0.00310656    0.01211680   -0.02862597
     atom   18 type  1   force =    -0.01305726   -0.01480510   -0.02656425
     atom   19 type  1   force =    -0.00950689    0.00541070   -0.03067007
     atom   20 type  1   force =     0.01118210    0.00757843   -0.00752118
     atom   21 type  1   force =    -0.00190478    0.00762010    0.00620159
     atom   22 type  1   force =    -0.00246134    0.01087023    0.01762448
     atom   23 type  1   force =     0.01748634   -0.00727288   -0.01099818
     atom   24 type  1   force =     0.04174452    0.01440167   -0.04840010
     atom   25 type  1   force =     0.05204551   -0.01062881   -0.03121367
     atom   26 type  1   force =    -0.02158570    0.02663324   -0.01689047
     atom   27 type  1   force =     0.00119575    0.00915876   -0.02878818
     atom   28 type  1   force =     0.05214571    0.02785916   -0.00351665
     atom   29 type  1   force =     0.02615255   -0.04767145    0.03170734
     atom   30 type  1   force =    -0.02702744   -0.02560367    0.06440897
     atom   31 type  1   force =    -0.02394812    0.02620428    0.02232907
     atom   32 type  1   force =     0.00396259    0.01469180   -0.01159985
     atom   33 type  1   force =    -0.02712332   -0.02000270    0.00293213
     atom   34 type  1   force =    -0.05119275   -0.03960021   -0.01157698
     atom   35 type  1   force =    -0.02958958   -0.04293918    0.04170463
     atom   36 type  1   force =     0.00339079    0.01925603    0.01205321
     atom   37 type  1   force =    -0.00458059   -0.01923707    0.03939746
     atom   38 type  1   force =    -0.02280490    0.01579480    0.01290145
     atom   39 type  1   force =     0.04990803    0.03429964    0.01277510
     atom   40 type  1   force =     0.01645228    0.02737691   -0.00899605
     atom   41 type  1   force =    -0.00857124    0.01220178    0.00087826
     atom   42 type  1   force =    -0.04671204    0.04938161   -0.06046504
     atom   43 type  1   force =     0.01480589    0.01701223   -0.00951238
     atom   44 type  1   force =     0.05839929   -0.05323882    0.04022486
     atom   45 type  1   force =    -0.01895058    0.01490566    0.00238354
     atom   46 type  1   force =     0.00385522   -0.02458013   -0.00486543
     atom   47 type  1   force =    -0.01528652   -0.01273646    0.02097504
     atom   48 type  1   force =     0.01055459   -0.00019074    0.00910032
     atom   49 type  1   force =     0.00009270    0.01057296   -0.00316533
     atom   50 type  1   force =    -0.00163434    0.02556182    0.01095375
     atom   51 type  1   force =     0.00361184    0.00474719    0.01383843
     atom   52 type  1   force =    -0.00585964    0.01019593    0.01027680
     atom   53 type  1   force =    -0.01546777    0.04943899   -0.00573297
     atom   54 type  1   force =     0.04908230   -0.04508215    0.00633895
     atom   55 type  1   force =     0.04227305   -0.01331396   -0.06925555
     atom   56 type  1   force =     0.00768154    0.00864016    0.01508487
     atom   57 type  1   force =    -0.04376451   -0.02507355   -0.01168510
     atom   58 type  1   force =     0.02483128    0.01386728    0.04451930
     atom   59 type  1   force =    -0.03534946   -0.02048451   -0.01874383
     atom   60 type  1   force =    -0.04650368   -0.01519489   -0.06664263
     atom   61 type  1   force =    -0.05914230   -0.01800263    0.00390721
     atom   62 type  1   force =     0.00663243   -0.02309224   -0.02706819
     atom   63 type  1   force =    -0.01627659    0.03741253   -0.00880822
     atom   64 type  1   force =     0.01526935   -0.00120352    0.01185891

     Total force =     0.387319     Total SCF correction =     0.001276


     Computing stress (Cartesian axis) and pressure

          total   stress  (Ry/bohr**3)                   (kbar)     P=      -18.62
  -0.00004393  -0.00002970  -0.00000933           -6.46       -4.37       -1.37
  -0.00002970  -0.00016353   0.00002273           -4.37      -24.06        3.34
  -0.00000933   0.00002273  -0.00017224           -1.37        3.34      -25.34

 
     init_run     :      1.06s CPU      4.13s WALL (       1 calls)
     electrons    :      1.61s CPU      1.82s WALL (       1 calls)
     forces       :      0.03s CPU      0.03s WALL (       1 calls)
     stress       :      0.13s CPU      0.14s WALL (       1 calls)

     Called by init_run:
     wfcinit      :      0.54s CPU      3.47s WALL (       1 calls)
                                        3.47s GPU  (       1 calls)
     potinit      :      0.05s CPU      0.11s WALL (       1 calls)
     hinit0       :      0.45s CPU      0.47s WALL (       1 calls)

     Called by electrons:
     c_bands      :      1.04s CPU      1.18s WALL (      19 calls)
     sum_band     :      0.29s CPU      0.36s WALL (      19 calls)
     v_of_rho     :      0.13s CPU      0.20s WALL (      19 calls)
     mix_rho      :      0.13s CPU      0.14s WALL (      19 calls)

     Called by c_bands:
     init_us_2    :      0.05s CPU      0.05s WALL (      39 calls)
     init_us_2:gp :      0.05s CPU      0.05s WALL (      39 calls)
     regterg      :      0.91s CPU      1.02s WALL (      19 calls)

     Called by *egterg:
     rdiaghg      :      0.39s CPU      1.01s WALL (      85 calls)
                                        1.00s GPU  (      85 calls)
     h_psi        :      0.91s CPU      3.28s WALL (      87 calls)
                                        3.28s GPU  (      87 calls)
     g_psi        :      0.00s CPU      0.00s WALL (      67 calls)
                                        0.00s GPU  (      67 calls)

     Called by h_psi:
     h_psi:calbec :      0.51s CPU      2.82s WALL (      87 calls)
                                        2.82s GPU  (      87 calls)
     vloc_psi     :      0.35s CPU      0.41s WALL (      87 calls)
                                        0.41s GPU  (      87 calls)
     add_vuspsi   :      0.03s CPU      0.05s WALL (      87 calls)
                                        0.05s GPU  (      87 calls)

     General routines
     calbec       :      0.52s CPU      2.82s WALL (      92 calls)
     fft          :      0.55s CPU      0.64s WALL (     159 calls)
                                        0.11s GPU  (     101 calls)
     ffts         :      0.03s CPU      0.03s WALL (      19 calls)
     fftw         :      0.42s CPU      0.57s WALL (    2009 calls)
                                        0.51s GPU  (    2009 calls)
 
     Parallel routines
 
     PWSCF        :      2.87s CPU      6.20s WALL

 
   This run was terminated on:  10:44: 9  10May2023            

=------------------------------------------------------------------------------=
   JOB DONE.
=------------------------------------------------------------------------------=
