An instance of this daemon is already running
An instance of this daemon is already running
An instance of this daemon is already running

     Program PWSCF v.7.1 starts on 10May2023 at 10:49:12 

     This program is part of the open-source Quantum ESPRESSO suite
     for quantum simulation of materials; please cite
         "P. Giannozzi et al., J. Phys.:Condens. Matter 21 395502 (2009);
         "P. Giannozzi et al., J. Phys.:Condens. Matter 29 465901 (2017);
         "P. Giannozzi et al., J. Chem. Phys. 152 154105 (2020);
          URL http://www.quantum-espresso.org", 
     in publications or presentations arising from this work. More details at
     http://www.quantum-espresso.org/quote

     Parallel version (MPI & OpenMP), running on       4 processor cores
     Number of MPI processes:                 4
     Threads/MPI process:                     1

     MPI processes distributed on     1 nodes
     153158 MiB available memory on the printing compute node when the environment starts
 
     Reading input from pw-si-58.in
Warning: card &CELL ignored
Warning: card / ignored

     Current dimensions of program PWSCF are:
     Max number of different atomic species (ntypx) = 10
     Max number of k-points (npk) =  40000
     Max angular momentum in pseudopotentials (lmaxx) =  4

     IMPORTANT: XC functional enforced from input :
     Exchange-correlation= PBE
                           (   1   4   3   4   0   0   0)
     Any further DFT definition will be discarded
     Please, verify this is what you really want


     gamma-point specific algorithms are used
 
     K-points division:     npool     =       2
     R & G space division:  proc/nbgrp/npool/nimage =       2
     Subspace diagonalization in iterative solution of the eigenvalue problem:
     a serial algorithm will be used

     Message from routine divide_et_impera:
     suboptimal parallelization: some nodes have no k-points
 
     Parallelization info
     --------------------
     sticks:   dense  smooth     PW     G-vecs:    dense   smooth      PW
     Min        1945    1945    516                91383    91383   12416
     Max        1948    1948    517                91388    91388   12421
     Sum        3893    3893   1033               182771   182771   24837
 
     Using Slab Decomposition
 


     bravais-lattice index     =            0
     lattice parameter (alat)  =      20.1943  a.u.
     unit-cell volume          =    8235.3783 (a.u.)^3
     number of atoms/cell      =           64
     number of atomic types    =            1
     number of electrons       =       256.00
     number of Kohn-Sham states=          154
     kinetic-energy cutoff     =      30.0000  Ry
     charge density cutoff     =     120.0000  Ry
     scf convergence threshold =      1.0E-06
     mixing beta               =       0.5000
     number of iterations used =            8  plain     mixing
     Exchange-correlation= PBE
                           (   1   4   3   4   0   0   0)

     GPU acceleration is ACTIVE.
     GPU-aware MPI enabled

     Message from routine print_cuda_info:
     High GPU oversubscription detected. Are you sure this is what you want?

     celldm(1)=  20.194256  celldm(2)=   0.000000  celldm(3)=   0.000000
     celldm(4)=   0.000000  celldm(5)=   0.000000  celldm(6)=   0.000000

     crystal axes: (cart. coord. in units of alat)
               a(1) = (   1.000000   0.000000   0.000000 )  
               a(2) = (   0.000000   1.000000   0.000000 )  
               a(3) = (   0.000000   0.000000   1.000000 )  

     reciprocal axes: (cart. coord. in units 2 pi/alat)
               b(1) = (  1.000000  0.000000  0.000000 )  
               b(2) = (  0.000000  1.000000  0.000000 )  
               b(3) = (  0.000000  0.000000  1.000000 )  


     PseudoPot. # 1 for Si read from file:
     /home/ppiaggi/pseudos/Si_ONCV_PBE_sr.upf
     MD5 check sum: 8553c464762ac42b85b1eed164b4d029
     Pseudo is Norm-conserving, Zval =  4.0
     Generated using ONCVPSP code by D. R. Hamann
     Using radial grid of 1510 points,  4 beta functions with: 
                l(1) =   0
                l(2) =   0
                l(3) =   1
                l(4) =   1

     atomic species   valence    mass     pseudopotential
        Si             4.00    28.08500     Si( 1.00)

     No symmetry found



   Cartesian axes

     site n.     atom                  positions (alat units)
         1           Si  tau(   1) = (   0.2043230   0.5372280   0.3870090  )
         2           Si  tau(   2) = (   0.5402500   0.5715750   0.9268230  )
         3           Si  tau(   3) = (   0.7036130   0.4208810   0.9461880  )
         4           Si  tau(   4) = (   0.9512650   0.8729450   0.4123600  )
         5           Si  tau(   5) = (   0.0160630   0.6583530   0.6491150  )
         6           Si  tau(   6) = (   0.1367450   0.0122767   0.3855590  )
         7           Si  tau(   7) = (   0.8060200   0.7569790   0.5307020  )
         8           Si  tau(   8) = (   0.8076240   0.2639790   0.6738320  )
         9           Si  tau(   9) = (   0.9378170   0.4865610   0.2761690  )
        10           Si  tau(  10) = (   0.3764100   0.8790390   0.1143410  )
        11           Si  tau(  11) = (   0.4179780   0.1321120   0.6512080  )
        12           Si  tau(  12) = (   0.5384160   0.9817550   0.7189510  )
        13           Si  tau(  13) = (   0.1573630   0.1701710   0.6627770  )
        14           Si  tau(  14) = (   0.6837560   0.7555850   0.1172860  )
        15           Si  tau(  15) = (   0.1640680   0.7174070   0.4788240  )
        16           Si  tau(  16) = (   0.8589500   0.9984820   0.7493780  )
        17           Si  tau(  17) = (   0.6860120   0.3591750   0.4986240  )
        18           Si  tau(  18) = (   0.5003290   0.5657980   0.7139880  )
        19           Si  tau(  19) = (   0.9592330   0.7187610   0.9368640  )
        20           Si  tau(  20) = (   0.5562300   0.7098250   0.4019960  )
        21           Si  tau(  21) = (   0.3426580   0.8545050   0.5390660  )
        22           Si  tau(  22) = (   0.3082570   0.4468300   0.6291920  )
        23           Si  tau(  23) = (   0.4375010   0.5191690   0.3846830  )
        24           Si  tau(  24) = (   0.1937220   0.1382230   0.0699804  )
        25           Si  tau(  25) = (   0.0393109   0.2397290   0.3501280  )
        26           Si  tau(  26) = (   0.3323250   0.5000200   0.9829600  )
        27           Si  tau(  27) = (   0.3835490   0.9888860   0.3829690  )
        28           Si  tau(  28) = (   0.6856930   0.5197640   0.1801610  )
        29           Si  tau(  29) = (   0.9911610   0.1984760   0.7951970  )
        30           Si  tau(  30) = (   0.4164900   0.1483710   0.9889220  )
        31           Si  tau(  31) = (   0.0453847   0.3966770   0.8651280  )
        32           Si  tau(  32) = (   0.1702800   0.5824990   0.1587400  )
        33           Si  tau(  33) = (   0.7711440   0.5014480   0.7405920  )
        34           Si  tau(  34) = (   0.1576070   0.9432950   0.1691300  )
        35           Si  tau(  35) = (   0.5910800   0.7860160   0.9105100  )
        36           Si  tau(  36) = (   0.5350150   0.0430636   0.1284930  )
        37           Si  tau(  37) = (   0.3077660   0.3177870   0.8544360  )
        38           Si  tau(  38) = (   0.5206660   0.3301970   0.6585850  )
        39           Si  tau(  39) = (   0.6109500   0.2302420   0.8645540  )
        40           Si  tau(  40) = (   0.0482456   0.9005480   0.7838210  )
        41           Si  tau(  41) = (   0.2365380   0.9627520   0.6916410  )
        42           Si  tau(  42) = (   0.7088870   0.9775470   0.5638350  )
        43           Si  tau(  43) = (   0.4280000   0.6795340   0.1749840  )
        44           Si  tau(  44) = (   0.6376260   0.9058160   0.2854040  )
        45           Si  tau(  45) = (   0.7886130   0.7182170   0.7716380  )
        46           Si  tau(  46) = (   0.6031240   0.2179230   0.2328210  )
        47           Si  tau(  47) = (   0.8281680   0.9848350   0.2711710  )
        48           Si  tau(  48) = (   0.9383690   0.0805368   0.0350524  )
        49           Si  tau(  49) = (   0.9106240   0.5108300   0.0054291  )
        50           Si  tau(  50) = (   0.2197700   0.7208950   0.9646580  )
        51           Si  tau(  51) = (   0.8065400   0.2733520   0.1271650  )
        52           Si  tau(  52) = (   0.1249490   0.3490660   0.5238270  )
        53           Si  tau(  53) = (   0.5580100   0.1371630   0.4375320  )
        54           Si  tau(  54) = (   0.6971290   0.0051049   0.9523600  )
        55           Si  tau(  55) = (   0.8827710   0.8531620   0.0588821  )
        56           Si  tau(  56) = (   0.4802130   0.4101570   0.1861460  )
        57           Si  tau(  57) = (   0.1604140   0.5599570   0.7856390  )
        58           Si  tau(  58) = (   0.5316800   0.7521610   0.6261130  )
        59           Si  tau(  59) = (   0.0779365   0.3361370   0.1459140  )
        60           Si  tau(  60) = (   0.0286957   0.7516420   0.2379730  )
        61           Si  tau(  61) = (   0.9353730   0.4644690   0.5822730  )
        62           Si  tau(  62) = (   0.7517580   0.5531420   0.4244000  )
        63           Si  tau(  63) = (   0.8254600   0.1806480   0.3810460  )
        64           Si  tau(  64) = (   0.3803120   0.9192360   0.8827480  )

     number of k points=     1  Fermi-Dirac smearing, width (Ry)=  0.0100
                       cart. coord. in units 2pi/alat
        k(    1) = (   0.0000000   0.0000000   0.0000000), wk =   2.0000000

     Dense  grid:    91386 G-vectors     FFT dimensions: (  72,  72,  72)

     Estimated max dynamical RAM per process >     146.59 MB

     Estimated total dynamical RAM >     564.07 MB

     Initial potential from superposition of free atoms

     starting charge     255.9608, renormalised to     256.0000
     Starting wfcs are  256 randomized atomic wfcs

     total cpu time spent up to now is        4.2 secs

     Self-consistent Calculation

     iteration #  1     ecut=    30.00 Ry     beta= 0.50
     Davidson diagonalization with overlap
     ethr =  1.00E-02,  avg # of iterations =  3.0

     Threshold (ethr) on eigenvalues was too large:
     Diagonalizing with lowered threshold

     Davidson diagonalization with overlap
     ethr =  4.73E-04,  avg # of iterations =  4.0

     total cpu time spent up to now is        4.4 secs

     total energy              =    -501.08458390 Ry
     estimated scf accuracy    <       1.44774358 Ry

     iteration #  2     ecut=    30.00 Ry     beta= 0.50
     Davidson diagonalization with overlap
     ethr =  5.66E-04,  avg # of iterations =  5.0

     total cpu time spent up to now is        4.5 secs

     total energy              =    -500.52523597 Ry
     estimated scf accuracy    <       6.98503317 Ry

     iteration #  3     ecut=    30.00 Ry     beta= 0.50
     Davidson diagonalization with overlap
     ethr =  5.66E-04,  avg # of iterations =  4.0

     total cpu time spent up to now is        4.6 secs

     total energy              =    -501.16561445 Ry
     estimated scf accuracy    <       2.55767401 Ry

     iteration #  4     ecut=    30.00 Ry     beta= 0.50
     Davidson diagonalization with overlap
     ethr =  5.66E-04,  avg # of iterations =  2.0

     total cpu time spent up to now is        4.7 secs

     total energy              =    -501.33658519 Ry
     estimated scf accuracy    <       0.76424148 Ry

     iteration #  5     ecut=    30.00 Ry     beta= 0.50
     Davidson diagonalization with overlap
     ethr =  2.99E-04,  avg # of iterations =  2.0

     total cpu time spent up to now is        4.8 secs

     total energy              =    -501.36732884 Ry
     estimated scf accuracy    <       0.58998762 Ry

     iteration #  6     ecut=    30.00 Ry     beta= 0.50
     Davidson diagonalization with overlap
     ethr =  2.30E-04,  avg # of iterations =  2.0

     total cpu time spent up to now is        4.9 secs

     total energy              =    -501.42355676 Ry
     estimated scf accuracy    <       0.10742393 Ry

     iteration #  7     ecut=    30.00 Ry     beta= 0.50
     Davidson diagonalization with overlap
     ethr =  4.20E-05,  avg # of iterations =  2.0

     total cpu time spent up to now is        5.0 secs

     total energy              =    -501.43381252 Ry
     estimated scf accuracy    <       0.02324237 Ry

     iteration #  8     ecut=    30.00 Ry     beta= 0.50
     Davidson diagonalization with overlap
     ethr =  9.08E-06,  avg # of iterations =  9.0

     total cpu time spent up to now is        5.1 secs

     total energy              =    -501.43618550 Ry
     estimated scf accuracy    <       0.02329336 Ry

     iteration #  9     ecut=    30.00 Ry     beta= 0.50
     Davidson diagonalization with overlap
     ethr =  9.08E-06,  avg # of iterations =  2.0

     total cpu time spent up to now is        5.2 secs

     total energy              =    -501.43808082 Ry
     estimated scf accuracy    <       0.00203730 Ry

     iteration # 10     ecut=    30.00 Ry     beta= 0.50
     Davidson diagonalization with overlap
     ethr =  7.96E-07,  avg # of iterations = 10.0

     total cpu time spent up to now is        5.3 secs

     total energy              =    -501.43839467 Ry
     estimated scf accuracy    <       0.00067895 Ry

     iteration # 11     ecut=    30.00 Ry     beta= 0.50
     Davidson diagonalization with overlap
     ethr =  2.65E-07,  avg # of iterations =  3.0

     total cpu time spent up to now is        5.4 secs

     total energy              =    -501.43841752 Ry
     estimated scf accuracy    <       0.00093594 Ry

     iteration # 12     ecut=    30.00 Ry     beta= 0.50
     Davidson diagonalization with overlap
     ethr =  2.65E-07,  avg # of iterations =  2.0

     total cpu time spent up to now is        5.5 secs

     total energy              =    -501.43850458 Ry
     estimated scf accuracy    <       0.00021388 Ry

     iteration # 13     ecut=    30.00 Ry     beta= 0.50
     Davidson diagonalization with overlap
     ethr =  8.35E-08,  avg # of iterations =  2.0

     total cpu time spent up to now is        5.6 secs

     total energy              =    -501.43852092 Ry
     estimated scf accuracy    <       0.00009949 Ry

     iteration # 14     ecut=    30.00 Ry     beta= 0.50
     Davidson diagonalization with overlap
     ethr =  3.89E-08,  avg # of iterations =  2.0

     total cpu time spent up to now is        5.6 secs

     total energy              =    -501.43852947 Ry
     estimated scf accuracy    <       0.00002118 Ry

     iteration # 15     ecut=    30.00 Ry     beta= 0.50
     Davidson diagonalization with overlap
     ethr =  8.27E-09,  avg # of iterations =  2.0

     total cpu time spent up to now is        5.7 secs

     total energy              =    -501.43853086 Ry
     estimated scf accuracy    <       0.00002520 Ry

     iteration # 16     ecut=    30.00 Ry     beta= 0.50
     Davidson diagonalization with overlap
     ethr =  8.27E-09,  avg # of iterations =  2.0

     total cpu time spent up to now is        5.8 secs

     total energy              =    -501.43853325 Ry
     estimated scf accuracy    <       0.00000482 Ry

     iteration # 17     ecut=    30.00 Ry     beta= 0.50
     Davidson diagonalization with overlap
     ethr =  1.88E-09,  avg # of iterations =  2.0

     total cpu time spent up to now is        5.9 secs

     End of self-consistent calculation

          k = 0.0000 0.0000 0.0000 ( 11444 PWs)   bands (ev):

    -5.5146  -4.6747  -4.4958  -4.3566  -4.2514  -4.1513  -4.1160  -3.6393
    -3.4823  -3.4303  -3.3068  -3.2300  -3.1877  -3.1142  -3.0037  -2.9034
    -2.8293  -2.7739  -2.3995  -2.3106  -2.1584  -2.1319  -2.0188  -1.8789
    -1.7402  -1.5500  -1.2649  -1.1792  -1.0737  -0.9304  -0.8981  -0.5696
    -0.4853  -0.3910  -0.2868  -0.1900  -0.0957  -0.0316   0.0291   0.1995
     0.2122   0.3015   0.3605   0.4045   0.5629   0.5973   0.6252   0.8321
     0.8966   1.0517   1.1008   1.1396   1.2167   1.2950   1.3825   1.4884
     1.6489   1.7897   1.8334   1.9407   2.0239   2.1035   2.1515   2.2994
     2.3198   2.4333   2.4740   2.5971   2.6079   2.7486   2.8283   2.8681
     3.0228   3.0866   3.1358   3.2523   3.3589   3.4346   3.5580   3.6158
     3.8024   3.9623   4.0928   4.2160   4.2443   4.3456   4.3722   4.4883
     4.5556   4.6084   4.6680   4.7416   4.7731   4.8588   4.9701   5.0890
     5.1617   5.2010   5.2469   5.2792   5.3560   5.3728   5.5013   5.5213
     5.5686   5.6263   5.7219   5.7456   5.7532   5.7927   5.9205   5.9496
     6.0396   6.0889   6.1555   6.1735   6.2172   6.3119   6.3886   6.5071
     6.5671   6.5874   6.6318   6.7372   6.7949   6.8516   6.8880   6.9743
     7.0168   7.0353   7.1408   7.1750   7.2011   7.2303   7.3319   7.3542
     7.4271   7.6125   7.6838   7.7007   7.7419   7.7837   7.8549   7.9465
     8.0790   8.1122   8.1764   8.2177   8.2464   8.3095   8.3512   8.4571
     8.5017   8.5614

     the Fermi energy is     6.9761 ev

!    total energy              =    -501.43853312 Ry
     estimated scf accuracy    <       0.00000094 Ry
     smearing contrib. (-TS)   =      -0.15792443 Ry
     internal energy E=F+TS    =    -501.28060869 Ry

     The total energy is F=E-TS. E is the sum of the following terms:
     one-electron contribution =     171.89554067 Ry
     hartree contribution      =      30.90380320 Ry
     xc contribution           =    -151.08733875 Ry
     ewald contribution        =    -552.99261381 Ry

     convergence has been achieved in  17 iterations

     Forces acting on atoms (cartesian axes, Ry/au):

     atom    1 type  1   force =     0.02974891   -0.05690206   -0.01365743
     atom    2 type  1   force =    -0.02448482   -0.00023553    0.00532360
     atom    3 type  1   force =     0.01197359   -0.00239093    0.02012237
     atom    4 type  1   force =     0.05271234   -0.01799568    0.01301931
     atom    5 type  1   force =     0.00850936    0.04318320   -0.02390705
     atom    6 type  1   force =     0.00405602    0.03664808    0.00297737
     atom    7 type  1   force =    -0.00192208   -0.00919372    0.03761091
     atom    8 type  1   force =    -0.01111974    0.02349137    0.01527049
     atom    9 type  1   force =    -0.02491800   -0.00493875   -0.02698366
     atom   10 type  1   force =    -0.03405083    0.02345144    0.00068672
     atom   11 type  1   force =    -0.05682635    0.05988589   -0.05894908
     atom   12 type  1   force =     0.06555185   -0.07933828    0.03199140
     atom   13 type  1   force =     0.05185785   -0.00987792   -0.01073223
     atom   14 type  1   force =    -0.00952924   -0.03468742    0.01500285
     atom   15 type  1   force =    -0.02214060    0.06039115    0.04564135
     atom   16 type  1   force =    -0.01923066    0.03561402    0.02184122
     atom   17 type  1   force =    -0.01404571   -0.04966746    0.01820936
     atom   18 type  1   force =    -0.00888663   -0.07353240    0.01806175
     atom   19 type  1   force =     0.06419435   -0.07122739   -0.11206845
     atom   20 type  1   force =     0.01434481    0.00173925   -0.01748033
     atom   21 type  1   force =    -0.02276256   -0.05734616    0.01246481
     atom   22 type  1   force =     0.02375795    0.00436948    0.04212132
     atom   23 type  1   force =    -0.01738093   -0.00277539   -0.01652399
     atom   24 type  1   force =    -0.02814195    0.01307450   -0.00687049
     atom   25 type  1   force =    -0.00061759   -0.03899868   -0.00232058
     atom   26 type  1   force =     0.01562679    0.02589508    0.04274135
     atom   27 type  1   force =    -0.00279009    0.02757109   -0.03435727
     atom   28 type  1   force =     0.00378152    0.03268196   -0.01113144
     atom   29 type  1   force =    -0.04291150   -0.04391609    0.03000336
     atom   30 type  1   force =    -0.04814260    0.02460395   -0.08698410
     atom   31 type  1   force =     0.01403570   -0.00810257    0.04558715
     atom   32 type  1   force =     0.01915818    0.00446388   -0.00320119
     atom   33 type  1   force =    -0.02293538   -0.01800608    0.00458569
     atom   34 type  1   force =     0.01966128   -0.01510511    0.01281965
     atom   35 type  1   force =     0.02102150    0.03051088   -0.00358508
     atom   36 type  1   force =     0.03564136   -0.06280661    0.00699410
     atom   37 type  1   force =    -0.02288520   -0.01995474   -0.04074583
     atom   38 type  1   force =    -0.01236684    0.01183645   -0.00285413
     atom   39 type  1   force =    -0.00340466   -0.00950077   -0.02338023
     atom   40 type  1   force =    -0.00615969   -0.04693305    0.01288548
     atom   41 type  1   force =    -0.00840767    0.01233774    0.02660351
     atom   42 type  1   force =    -0.01894360    0.00665603    0.00355417
     atom   43 type  1   force =    -0.00418247   -0.05108624    0.01927759
     atom   44 type  1   force =    -0.07034742   -0.05587885    0.00482667
     atom   45 type  1   force =    -0.00163661    0.01966585   -0.00124675
     atom   46 type  1   force =     0.00827319    0.04587530    0.01538817
     atom   47 type  1   force =     0.05282607    0.03684506   -0.03404714
     atom   48 type  1   force =    -0.00120051    0.00460482   -0.00339156
     atom   49 type  1   force =     0.01237893   -0.00832885    0.00983515
     atom   50 type  1   force =    -0.00342237   -0.02262656   -0.01591671
     atom   51 type  1   force =     0.01138397    0.00240381    0.01703230
     atom   52 type  1   force =    -0.00531732    0.02826871   -0.01061139
     atom   53 type  1   force =     0.00304432   -0.01319828    0.03535765
     atom   54 type  1   force =     0.00447513    0.00295024   -0.02944332
     atom   55 type  1   force =    -0.05027241    0.10570989    0.10284217
     atom   56 type  1   force =     0.01314188    0.00248772    0.01258476
     atom   57 type  1   force =     0.03937052    0.02088581   -0.00353683
     atom   58 type  1   force =     0.01353720    0.07510849   -0.04124831
     atom   59 type  1   force =    -0.00767720   -0.00014918   -0.01285815
     atom   60 type  1   force =     0.00836361    0.00045840   -0.02320356
     atom   61 type  1   force =     0.00120782   -0.00302341   -0.01359578
     atom   62 type  1   force =     0.01533621    0.03135428   -0.01766303
     atom   63 type  1   force =    -0.02292936    0.02584186   -0.00948733
     atom   64 type  1   force =     0.01301839    0.00685846    0.00871868

     Total force =     0.441581     Total SCF correction =     0.001830


     Computing stress (Cartesian axis) and pressure

          total   stress  (Ry/bohr**3)                   (kbar)     P=      -20.67
  -0.00020512   0.00005143   0.00000465          -30.17        7.57        0.68
   0.00005143  -0.00012211   0.00001287            7.57      -17.96        1.89
   0.00000465   0.00001287  -0.00009432            0.68        1.89      -13.88

 
     init_run     :      1.03s CPU      4.15s WALL (       1 calls)
     electrons    :      1.52s CPU      1.67s WALL (       1 calls)
     forces       :      0.03s CPU      0.03s WALL (       1 calls)
     stress       :      0.14s CPU      0.14s WALL (       1 calls)

     Called by init_run:
     wfcinit      :      0.52s CPU      3.49s WALL (       1 calls)
                                        3.49s GPU  (       1 calls)
     potinit      :      0.04s CPU      0.11s WALL (       1 calls)
     hinit0       :      0.45s CPU      0.47s WALL (       1 calls)

     Called by electrons:
     c_bands      :      0.98s CPU      1.06s WALL (      18 calls)
     sum_band     :      0.28s CPU      0.32s WALL (      18 calls)
     v_of_rho     :      0.12s CPU      0.20s WALL (      18 calls)
     mix_rho      :      0.12s CPU      0.13s WALL (      18 calls)

     Called by c_bands:
     init_us_2    :      0.04s CPU      0.05s WALL (      37 calls)
     init_us_2:gp :      0.04s CPU      0.05s WALL (      37 calls)
     regterg      :      0.84s CPU      0.92s WALL (      18 calls)

     Called by *egterg:
     rdiaghg      :      0.36s CPU      0.98s WALL (      77 calls)
                                        0.97s GPU  (      77 calls)
     h_psi        :      0.86s CPU      3.25s WALL (      79 calls)
                                        3.25s GPU  (      79 calls)
     g_psi        :      0.00s CPU      0.00s WALL (      60 calls)
                                        0.00s GPU  (      60 calls)

     Called by h_psi:
     h_psi:calbec :      0.49s CPU      2.82s WALL (      79 calls)
                                        2.82s GPU  (      79 calls)
     vloc_psi     :      0.32s CPU      0.38s WALL (      79 calls)
                                        0.38s GPU  (      79 calls)
     add_vuspsi   :      0.03s CPU      0.05s WALL (      79 calls)
                                        0.05s GPU  (      79 calls)

     General routines
     calbec       :      0.50s CPU      2.83s WALL (      84 calls)
     fft          :      0.54s CPU      0.64s WALL (     151 calls)
                                        0.11s GPU  (      96 calls)
     ffts         :      0.03s CPU      0.03s WALL (      18 calls)
     fftw         :      0.40s CPU      0.52s WALL (    1886 calls)
                                        0.45s GPU  (    1886 calls)
 
     Parallel routines
 
     PWSCF        :      2.76s CPU      6.07s WALL

 
   This run was terminated on:  10:49:18  10May2023            

=------------------------------------------------------------------------------=
   JOB DONE.
=------------------------------------------------------------------------------=
