An instance of this daemon is already running
An instance of this daemon is already running

     Program PWSCF v.7.1 starts on 10May2023 at 10:45:31 

     This program is part of the open-source Quantum ESPRESSO suite
     for quantum simulation of materials; please cite
         "P. Giannozzi et al., J. Phys.:Condens. Matter 21 395502 (2009);
         "P. Giannozzi et al., J. Phys.:Condens. Matter 29 465901 (2017);
         "P. Giannozzi et al., J. Chem. Phys. 152 154105 (2020);
          URL http://www.quantum-espresso.org", 
     in publications or presentations arising from this work. More details at
     http://www.quantum-espresso.org/quote

     Parallel version (MPI & OpenMP), running on       4 processor cores
     Number of MPI processes:                 4
     Threads/MPI process:                     1

     MPI processes distributed on     1 nodes
     153202 MiB available memory on the printing compute node when the environment starts
 
     Reading input from pw-si-33.in
Warning: card &CELL ignored
Warning: card / ignored

     Current dimensions of program PWSCF are:
     Max number of different atomic species (ntypx) = 10
     Max number of k-points (npk) =  40000
     Max angular momentum in pseudopotentials (lmaxx) =  4

     IMPORTANT: XC functional enforced from input :
     Exchange-correlation= PBE
                           (   1   4   3   4   0   0   0)
     Any further DFT definition will be discarded
     Please, verify this is what you really want


     gamma-point specific algorithms are used
 
     K-points division:     npool     =       2
     R & G space division:  proc/nbgrp/npool/nimage =       2
     Subspace diagonalization in iterative solution of the eigenvalue problem:
     a serial algorithm will be used

     Message from routine divide_et_impera:
     suboptimal parallelization: some nodes have no k-points
 
     Parallelization info
     --------------------
     sticks:   dense  smooth     PW     G-vecs:    dense   smooth      PW
     Min        1916    1916    502                89460    89460   12150
     Max        1917    1917    503                89465    89465   12153
     Sum        3833    3833   1005               178925   178925   24303
 
     Using Slab Decomposition
 


     bravais-lattice index     =            0
     lattice parameter (alat)  =      20.0478  a.u.
     unit-cell volume          =    8057.5032 (a.u.)^3
     number of atoms/cell      =           64
     number of atomic types    =            1
     number of electrons       =       256.00
     number of Kohn-Sham states=          154
     kinetic-energy cutoff     =      30.0000  Ry
     charge density cutoff     =     120.0000  Ry
     scf convergence threshold =      1.0E-06
     mixing beta               =       0.5000
     number of iterations used =            8  plain     mixing
     Exchange-correlation= PBE
                           (   1   4   3   4   0   0   0)

     GPU acceleration is ACTIVE.
     GPU-aware MPI enabled

     Message from routine print_cuda_info:
     High GPU oversubscription detected. Are you sure this is what you want?

     celldm(1)=  20.047805  celldm(2)=   0.000000  celldm(3)=   0.000000
     celldm(4)=   0.000000  celldm(5)=   0.000000  celldm(6)=   0.000000

     crystal axes: (cart. coord. in units of alat)
               a(1) = (   1.000000   0.000000   0.000000 )  
               a(2) = (   0.000000   1.000000   0.000000 )  
               a(3) = (   0.000000   0.000000   1.000000 )  

     reciprocal axes: (cart. coord. in units 2 pi/alat)
               b(1) = (  1.000000  0.000000  0.000000 )  
               b(2) = (  0.000000  1.000000  0.000000 )  
               b(3) = (  0.000000  0.000000  1.000000 )  


     PseudoPot. # 1 for Si read from file:
     /home/ppiaggi/pseudos/Si_ONCV_PBE_sr.upf
     MD5 check sum: 8553c464762ac42b85b1eed164b4d029
     Pseudo is Norm-conserving, Zval =  4.0
     Generated using ONCVPSP code by D. R. Hamann
     Using radial grid of 1510 points,  4 beta functions with: 
                l(1) =   0
                l(2) =   0
                l(3) =   1
                l(4) =   1

     atomic species   valence    mass     pseudopotential
        Si             4.00    28.08500     Si( 1.00)

     No symmetry found



   Cartesian axes

     site n.     atom                  positions (alat units)
         1           Si  tau(   1) = (   0.3434980   0.3852200   0.2617450  )
         2           Si  tau(   2) = (   0.5072950   0.9563370   0.1772560  )
         3           Si  tau(   3) = (   0.7653320   0.9220870   0.9265210  )
         4           Si  tau(   4) = (   0.7229400   0.0441158   0.5574390  )
         5           Si  tau(   5) = (   0.7289550   0.1353660   0.1940930  )
         6           Si  tau(   6) = (   0.4796070   0.8839970   0.9269100  )
         7           Si  tau(   7) = (   0.5039680   0.0004235   0.4642710  )
         8           Si  tau(   8) = (   0.9745590   0.0042842   0.5892030  )
         9           Si  tau(   9) = (   0.1741950   0.6091340   0.1449140  )
        10           Si  tau(  10) = (   0.7096770   0.2596600   0.9681840  )
        11           Si  tau(  11) = (   0.4964050   0.1850680   0.2512460  )
        12           Si  tau(  12) = (   0.1020490   0.6307320   0.3502510  )
        13           Si  tau(  13) = (   0.1766490   0.3126130   0.8937030  )
        14           Si  tau(  14) = (   0.4842090   0.4235900   0.8042820  )
        15           Si  tau(  15) = (   0.2694860   0.8656460   0.1785990  )
        16           Si  tau(  16) = (   0.3900620   0.8293600   0.4179520  )
        17           Si  tau(  17) = (   0.8669470   0.5037380   0.9417470  )
        18           Si  tau(  18) = (   0.4959880   0.7211900   0.6113040  )
        19           Si  tau(  19) = (   0.8066330   0.6699980   0.7137360  )
        20           Si  tau(  20) = (   0.5128560   0.2134630   0.8540110  )
        21           Si  tau(  21) = (   0.7054420   0.2730530   0.6274590  )
        22           Si  tau(  22) = (   0.9343800   0.4617450   0.3268070  )
        23           Si  tau(  23) = (   0.9044170   0.1270470   0.0486575  )
        24           Si  tau(  24) = (   0.0872427   0.2022010   0.5933890  )
        25           Si  tau(  25) = (   0.9149020   0.3820860   0.5762800  )
        26           Si  tau(  26) = (   0.1102220   0.3604180   0.2139230  )
        27           Si  tau(  27) = (   0.2483370   0.8334780   0.9439590  )
        28           Si  tau(  28) = (   0.0334568   0.4621900   0.7566960  )
        29           Si  tau(  29) = (   0.7805890   0.1439520   0.7956640  )
        30           Si  tau(  30) = (   0.0080045   0.7501220   0.8040300  )
        31           Si  tau(  31) = (   0.3788020   0.5394660   0.4440480  )
        32           Si  tau(  32) = (   0.2911840   0.0423837   0.6694510  )
        33           Si  tau(  33) = (   0.9671270   0.9720780   0.8068290  )
        34           Si  tau(  34) = (   0.8617210   0.6445870   0.4876350  )
        35           Si  tau(  35) = (   0.9789390   0.8464550   0.4104560  )
        36           Si  tau(  36) = (   0.7708860   0.2643880   0.3640540  )
        37           Si  tau(  37) = (   0.1302140   0.1842100   0.3848840  )
        38           Si  tau(  38) = (   0.0194319   0.6929660   0.0325729  )
        39           Si  tau(  39) = (   0.7191410   0.4548660   0.7599680  )
        40           Si  tau(  40) = (   0.3704740   0.6785890   0.8019390  )
        41           Si  tau(  41) = (   0.5051260   0.5582750   0.9932700  )
        42           Si  tau(  42) = (   0.4182770   0.6653650   0.2011470  )
        43           Si  tau(  43) = (   0.5025130   0.3436700   0.5297430  )
        44           Si  tau(  44) = (   0.6355390   0.6477340   0.4200770  )
        45           Si  tau(  45) = (   0.6864140   0.7819130   0.2422640  )
        46           Si  tau(  46) = (   0.4072860   0.1959830   0.0438397  )
        47           Si  tau(  47) = (   0.1959740   0.1193560   0.0467232  )
        48           Si  tau(  48) = (   0.1957180   0.5001090   0.5424890  )
        49           Si  tau(  49) = (   0.3677410   0.1705590   0.4525750  )
        50           Si  tau(  50) = (   0.5004210   0.0034185   0.7512880  )
        51           Si  tau(  51) = (   0.8300280   0.6118190   0.1512070  )
        52           Si  tau(  52) = (   0.2024770   0.6807870   0.6733280  )
        53           Si  tau(  53) = (   0.9934670   0.3332510   0.0334119  )
        54           Si  tau(  54) = (   0.6544440   0.8489640   0.6878880  )
        55           Si  tau(  55) = (   0.2775790   0.3165940   0.6687310  )
        56           Si  tau(  56) = (   0.6433640   0.4370120   0.0845586  )
        57           Si  tau(  57) = (   0.7625670   0.9728110   0.3459840  )
        58           Si  tau(  58) = (   0.1680650   0.0229488   0.8407890  )
        59           Si  tau(  59) = (   0.6485610   0.7297580   0.0016903  )
        60           Si  tau(  60) = (   0.9213040   0.8969730   0.1325710  )
        61           Si  tau(  61) = (   0.0997216   0.0202863   0.2312720  )
        62           Si  tau(  62) = (   0.5895170   0.4220910   0.2947540  )
        63           Si  tau(  63) = (   0.2938020   0.4469160   0.0132431  )
        64           Si  tau(  64) = (   0.2061010   0.8600210   0.5589860  )

     number of k points=     1  Fermi-Dirac smearing, width (Ry)=  0.0100
                       cart. coord. in units 2pi/alat
        k(    1) = (   0.0000000   0.0000000   0.0000000), wk =   2.0000000

     Dense  grid:    89463 G-vectors     FFT dimensions: (  72,  72,  72)

     Estimated max dynamical RAM per process >     143.77 MB

     Estimated total dynamical RAM >     553.24 MB

     Initial potential from superposition of free atoms

     starting charge     255.9608, renormalised to     256.0000
     Starting wfcs are  256 randomized atomic wfcs

     total cpu time spent up to now is        4.3 secs

     Self-consistent Calculation

     iteration #  1     ecut=    30.00 Ry     beta= 0.50
     Davidson diagonalization with overlap
     ethr =  1.00E-02,  avg # of iterations =  3.0

     Threshold (ethr) on eigenvalues was too large:
     Diagonalizing with lowered threshold

     Davidson diagonalization with overlap
     ethr =  4.19E-04,  avg # of iterations =  4.0

     total cpu time spent up to now is        4.5 secs

     total energy              =    -501.24890843 Ry
     estimated scf accuracy    <       1.29285075 Ry

     iteration #  2     ecut=    30.00 Ry     beta= 0.50
     Davidson diagonalization with overlap
     ethr =  5.05E-04,  avg # of iterations =  4.0

     total cpu time spent up to now is        4.6 secs

     total energy              =    -500.84769175 Ry
     estimated scf accuracy    <       4.42589121 Ry

     iteration #  3     ecut=    30.00 Ry     beta= 0.50
     Davidson diagonalization with overlap
     ethr =  5.05E-04,  avg # of iterations =  5.0

     total cpu time spent up to now is        4.7 secs

     total energy              =    -501.27155272 Ry
     estimated scf accuracy    <       2.31419102 Ry

     iteration #  4     ecut=    30.00 Ry     beta= 0.50
     Davidson diagonalization with overlap
     ethr =  5.05E-04,  avg # of iterations =  2.0

     total cpu time spent up to now is        4.8 secs

     total energy              =    -501.43140696 Ry
     estimated scf accuracy    <       0.60814849 Ry

     iteration #  5     ecut=    30.00 Ry     beta= 0.50
     Davidson diagonalization with overlap
     ethr =  2.38E-04,  avg # of iterations =  2.0

     total cpu time spent up to now is        4.9 secs

     total energy              =    -501.46540552 Ry
     estimated scf accuracy    <       0.37261877 Ry

     iteration #  6     ecut=    30.00 Ry     beta= 0.50
     Davidson diagonalization with overlap
     ethr =  1.46E-04,  avg # of iterations =  2.0

     total cpu time spent up to now is        5.0 secs

     total energy              =    -501.50251719 Ry
     estimated scf accuracy    <       0.11196353 Ry

     iteration #  7     ecut=    30.00 Ry     beta= 0.50
     Davidson diagonalization with overlap
     ethr =  4.37E-05,  avg # of iterations =  3.0

     total cpu time spent up to now is        5.1 secs

     total energy              =    -501.51262159 Ry
     estimated scf accuracy    <       0.01113919 Ry

     iteration #  8     ecut=    30.00 Ry     beta= 0.50
     Davidson diagonalization with overlap
     ethr =  4.35E-06,  avg # of iterations = 15.0

     total cpu time spent up to now is        5.2 secs

     total energy              =    -501.51340831 Ry
     estimated scf accuracy    <       0.02641685 Ry

     iteration #  9     ecut=    30.00 Ry     beta= 0.50
     Davidson diagonalization with overlap
     ethr =  4.35E-06,  avg # of iterations =  3.0

     total cpu time spent up to now is        5.3 secs

     total energy              =    -501.51555684 Ry
     estimated scf accuracy    <       0.00158169 Ry

     iteration # 10     ecut=    30.00 Ry     beta= 0.50
     Davidson diagonalization with overlap
     ethr =  6.18E-07,  avg # of iterations =  4.0

     total cpu time spent up to now is        5.4 secs

     total energy              =    -501.51568155 Ry
     estimated scf accuracy    <       0.00161942 Ry

     iteration # 11     ecut=    30.00 Ry     beta= 0.50
     Davidson diagonalization with overlap
     ethr =  6.18E-07,  avg # of iterations =  2.0

     total cpu time spent up to now is        5.5 secs

     total energy              =    -501.51578878 Ry
     estimated scf accuracy    <       0.00082555 Ry

     iteration # 12     ecut=    30.00 Ry     beta= 0.50
     Davidson diagonalization with overlap
     ethr =  3.22E-07,  avg # of iterations =  2.0

     total cpu time spent up to now is        5.6 secs

     total energy              =    -501.51586288 Ry
     estimated scf accuracy    <       0.00014963 Ry

     iteration # 13     ecut=    30.00 Ry     beta= 0.50
     Davidson diagonalization with overlap
     ethr =  5.84E-08,  avg # of iterations =  3.0

     total cpu time spent up to now is        5.7 secs

     total energy              =    -501.51587471 Ry
     estimated scf accuracy    <       0.00014471 Ry

     iteration # 14     ecut=    30.00 Ry     beta= 0.50
     Davidson diagonalization with overlap
     ethr =  5.65E-08,  avg # of iterations =  2.0

     total cpu time spent up to now is        5.8 secs

     total energy              =    -501.51588556 Ry
     estimated scf accuracy    <       0.00001339 Ry

     iteration # 15     ecut=    30.00 Ry     beta= 0.50
     Davidson diagonalization with overlap
     ethr =  5.23E-09,  avg # of iterations =  4.0

     total cpu time spent up to now is        5.9 secs

     total energy              =    -501.51588559 Ry
     estimated scf accuracy    <       0.00002239 Ry

     iteration # 16     ecut=    30.00 Ry     beta= 0.50
     Davidson diagonalization with overlap
     ethr =  5.23E-09,  avg # of iterations =  3.0

     total cpu time spent up to now is        6.0 secs

     total energy              =    -501.51588680 Ry
     estimated scf accuracy    <       0.00003081 Ry

     iteration # 17     ecut=    30.00 Ry     beta= 0.50
     Davidson diagonalization with overlap
     ethr =  5.23E-09,  avg # of iterations =  2.0

     total cpu time spent up to now is        6.0 secs

     total energy              =    -501.51588866 Ry
     estimated scf accuracy    <       0.00000385 Ry

     iteration # 18     ecut=    30.00 Ry     beta= 0.50
     Davidson diagonalization with overlap
     ethr =  1.51E-09,  avg # of iterations =  2.0

     total cpu time spent up to now is        6.1 secs

     total energy              =    -501.51588911 Ry
     estimated scf accuracy    <       0.00000155 Ry

     iteration # 19     ecut=    30.00 Ry     beta= 0.50
     Davidson diagonalization with overlap
     ethr =  6.06E-10,  avg # of iterations =  2.0

     total cpu time spent up to now is        6.2 secs

     End of self-consistent calculation

          k = 0.0000 0.0000 0.0000 ( 11168 PWs)   bands (ev):

    -5.3257  -4.3686  -4.2869  -4.1714  -4.0832  -4.0217  -3.9138  -3.3998
    -3.2519  -3.1665  -3.0293  -2.9921  -2.9340  -2.8819  -2.7983  -2.7276
    -2.6932  -2.5473  -2.4545  -2.1403  -2.0605  -1.8571  -1.7949  -1.6892
    -1.5909  -1.4176  -1.3233  -1.0619  -0.7232  -0.6034  -0.5049  -0.3841
    -0.2380  -0.0813  -0.0583   0.0365   0.1258   0.2015   0.2683   0.3144
     0.4259   0.5663   0.6312   0.6928   0.7578   0.8321   0.9198   0.9982
     1.1093   1.1692   1.2342   1.2783   1.3969   1.4943   1.6096   1.6757
     1.8411   1.9712   2.0310   2.2164   2.3292   2.3674   2.4665   2.5842
     2.6102   2.6698   2.7207   2.7847   2.9243   2.9602   3.1058   3.1217
     3.2143   3.2366   3.2846   3.4166   3.4690   3.5222   3.5950   3.6596
     3.8496   4.0384   4.2329   4.3164   4.4927   4.5781   4.6298   4.6707
     4.7618   4.7990   4.8914   4.9286   5.0574   5.1802   5.2355   5.3379
     5.3903   5.4344   5.4785   5.6010   5.6190   5.6439   5.7361   5.8474
     5.8776   5.9064   5.9250   6.0335   6.0577   6.1194   6.1768   6.2304
     6.3028   6.3833   6.4450   6.4663   6.5342   6.5989   6.6476   6.7004
     6.7322   6.7889   6.8630   6.9511   7.0193   7.1103   7.1328   7.2019
     7.2396   7.3286   7.3603   7.4214   7.4669   7.4933   7.6133   7.7155
     7.7382   7.7674   7.8464   7.9153   7.9465   8.0445   8.1584   8.1862
     8.2746   8.3021   8.4087   8.5089   8.5841   8.6449   8.6939   8.7429
     8.8379   8.9482

     the Fermi energy is     7.2203 ev

!    total energy              =    -501.51588908 Ry
     estimated scf accuracy    <       0.00000025 Ry
     smearing contrib. (-TS)   =      -0.15058866 Ry
     internal energy E=F+TS    =    -501.36530042 Ry

     The total energy is F=E-TS. E is the sum of the following terms:
     one-electron contribution =     192.61697003 Ry
     hartree contribution      =      22.84958392 Ry
     xc contribution           =    -151.46050224 Ry
     ewald contribution        =    -565.37135214 Ry

     convergence has been achieved in  19 iterations

     Forces acting on atoms (cartesian axes, Ry/au):

     atom    1 type  1   force =    -0.00017503    0.00284935   -0.02435194
     atom    2 type  1   force =    -0.00457406   -0.00582822   -0.01250526
     atom    3 type  1   force =     0.01751110    0.02477134   -0.00816834
     atom    4 type  1   force =    -0.01985017   -0.02942250   -0.00649297
     atom    5 type  1   force =    -0.01394634   -0.02365957   -0.01796577
     atom    6 type  1   force =    -0.01280968   -0.03617766    0.06039441
     atom    7 type  1   force =     0.07495671    0.02161652   -0.00099444
     atom    8 type  1   force =    -0.00912682    0.00181265   -0.01150654
     atom    9 type  1   force =     0.08759758   -0.03747392    0.00571776
     atom   10 type  1   force =    -0.00542434    0.00982391    0.01319190
     atom   11 type  1   force =     0.02236215    0.00447414   -0.01644077
     atom   12 type  1   force =    -0.02821079   -0.00635908    0.03933481
     atom   13 type  1   force =    -0.02384335   -0.00696393   -0.05175987
     atom   14 type  1   force =     0.00791312    0.02859618   -0.02868681
     atom   15 type  1   force =     0.03576702   -0.01347405   -0.01790943
     atom   16 type  1   force =    -0.03900131   -0.06550121    0.00690665
     atom   17 type  1   force =     0.00510514   -0.00814252   -0.02348022
     atom   18 type  1   force =    -0.02230769   -0.00463172   -0.05310033
     atom   19 type  1   force =     0.01836771   -0.00813951   -0.00654235
     atom   20 type  1   force =     0.02948265   -0.03024914   -0.00145829
     atom   21 type  1   force =    -0.00183466    0.00829463   -0.05733913
     atom   22 type  1   force =    -0.01772371    0.01378519    0.01361342
     atom   23 type  1   force =    -0.01037819   -0.00579161    0.00092288
     atom   24 type  1   force =    -0.05463986    0.01384200    0.01944256
     atom   25 type  1   force =     0.00696669   -0.01593793   -0.01335178
     atom   26 type  1   force =     0.01962949    0.00096633    0.05183288
     atom   27 type  1   force =     0.01081514    0.00569500    0.02244534
     atom   28 type  1   force =     0.00300235    0.01675635    0.00959503
     atom   29 type  1   force =     0.01944332   -0.04711759    0.02479781
     atom   30 type  1   force =     0.00401549   -0.03974630    0.00499590
     atom   31 type  1   force =     0.06267866   -0.00294002   -0.02748935
     atom   32 type  1   force =     0.03818101    0.01061390   -0.03263277
     atom   33 type  1   force =    -0.05995512   -0.01190018    0.00022557
     atom   34 type  1   force =    -0.01281313    0.01246513    0.00254355
     atom   35 type  1   force =     0.00920032   -0.02279751    0.00862716
     atom   36 type  1   force =    -0.00682031    0.05973492    0.03746838
     atom   37 type  1   force =     0.04032266    0.01727461   -0.05817723
     atom   38 type  1   force =    -0.04883326    0.05043304   -0.04381971
     atom   39 type  1   force =    -0.00207467    0.02935979    0.03283651
     atom   40 type  1   force =     0.04531277    0.00065435    0.03311044
     atom   41 type  1   force =    -0.07019489    0.03372166   -0.04373841
     atom   42 type  1   force =    -0.02196605    0.01056164    0.03121788
     atom   43 type  1   force =    -0.01465859    0.01172966   -0.00415932
     atom   44 type  1   force =    -0.00070292   -0.02486735   -0.01636323
     atom   45 type  1   force =    -0.02146707    0.00920898   -0.02414392
     atom   46 type  1   force =    -0.03348920   -0.00076074    0.02911283
     atom   47 type  1   force =     0.01156749   -0.00209755   -0.02600819
     atom   48 type  1   force =    -0.06158779    0.00709656    0.01004229
     atom   49 type  1   force =    -0.03412065    0.03729118   -0.00480574
     atom   50 type  1   force =    -0.00598712    0.04266691   -0.03303793
     atom   51 type  1   force =    -0.00887517   -0.02295012    0.00859522
     atom   52 type  1   force =    -0.07423925   -0.02621987    0.02534342
     atom   53 type  1   force =    -0.00276743   -0.02049579   -0.01790039
     atom   54 type  1   force =     0.03928967    0.02867299   -0.00723809
     atom   55 type  1   force =     0.00831330   -0.02063735    0.02397446
     atom   56 type  1   force =     0.08494135   -0.02578200    0.02851540
     atom   57 type  1   force =     0.00419616   -0.03202463   -0.01847905
     atom   58 type  1   force =     0.02122658    0.00490494    0.07687007
     atom   59 type  1   force =    -0.00970562    0.02909557    0.01153396
     atom   60 type  1   force =    -0.01615281    0.00050487    0.00620000
     atom   61 type  1   force =    -0.00516178   -0.01881966   -0.01577989
     atom   62 type  1   force =     0.00888901   -0.00521424    0.05525383
     atom   63 type  1   force =     0.03814902    0.03604086    0.07024882
     atom   64 type  1   force =     0.00021516    0.03680835   -0.03908366

     Total force =     0.408278     Total SCF correction =     0.000935


     Computing stress (Cartesian axis) and pressure

          total   stress  (Ry/bohr**3)                   (kbar)     P=      -15.25
  -0.00013442  -0.00001018  -0.00001990          -19.77       -1.50       -2.93
  -0.00001018  -0.00008886  -0.00000915           -1.50      -13.07       -1.35
  -0.00001990  -0.00000915  -0.00008775           -2.93       -1.35      -12.91

 
     init_run     :      0.92s CPU      4.23s WALL (       1 calls)
     electrons    :      1.69s CPU      1.91s WALL (       1 calls)
     forces       :      0.03s CPU      0.03s WALL (       1 calls)
     stress       :      0.14s CPU      0.14s WALL (       1 calls)

     Called by init_run:
     wfcinit      :      0.40s CPU      3.55s WALL (       1 calls)
                                        3.55s GPU  (       1 calls)
     potinit      :      0.05s CPU      0.14s WALL (       1 calls)
     hinit0       :      0.45s CPU      0.47s WALL (       1 calls)

     Called by electrons:
     c_bands      :      1.10s CPU      1.22s WALL (      20 calls)
     sum_band     :      0.31s CPU      0.37s WALL (      20 calls)
     v_of_rho     :      0.14s CPU      0.24s WALL (      20 calls)
     mix_rho      :      0.13s CPU      0.15s WALL (      20 calls)

     Called by c_bands:
     init_us_2    :      0.05s CPU      0.06s WALL (      41 calls)
     init_us_2:gp :      0.05s CPU      0.05s WALL (      41 calls)
     regterg      :      0.95s CPU      1.06s WALL (      20 calls)

     Called by *egterg:
     rdiaghg      :      0.39s CPU      1.07s WALL (      88 calls)
                                        1.05s GPU  (      88 calls)
     h_psi        :      0.80s CPU      3.32s WALL (      90 calls)
                                        3.32s GPU  (      90 calls)
     g_psi        :      0.00s CPU      0.00s WALL (      69 calls)
                                        0.00s GPU  (      69 calls)

     Called by h_psi:
     h_psi:calbec :      0.39s CPU      2.84s WALL (      90 calls)
                                        2.84s GPU  (      90 calls)
     vloc_psi     :      0.36s CPU      0.42s WALL (      90 calls)
                                        0.42s GPU  (      90 calls)
     add_vuspsi   :      0.03s CPU      0.05s WALL (      90 calls)
                                        0.05s GPU  (      90 calls)

     General routines
     calbec       :      0.40s CPU      2.84s WALL (      95 calls)
     fft          :      0.55s CPU      0.68s WALL (     167 calls)
                                        0.13s GPU  (     106 calls)
     ffts         :      0.03s CPU      0.03s WALL (      20 calls)
     fftw         :      0.44s CPU      0.58s WALL (    2104 calls)
                                        0.51s GPU  (    2104 calls)
 
     Parallel routines
 
     PWSCF        :      2.82s CPU      6.38s WALL

 
   This run was terminated on:  10:45:37  10May2023            

=------------------------------------------------------------------------------=
   JOB DONE.
=------------------------------------------------------------------------------=
