An instance of this daemon is already running
An instance of this daemon is already running
An instance of this daemon is already running

     Program PWSCF v.7.1 starts on 10May2023 at 10:45: 5 

     This program is part of the open-source Quantum ESPRESSO suite
     for quantum simulation of materials; please cite
         "P. Giannozzi et al., J. Phys.:Condens. Matter 21 395502 (2009);
         "P. Giannozzi et al., J. Phys.:Condens. Matter 29 465901 (2017);
         "P. Giannozzi et al., J. Chem. Phys. 152 154105 (2020);
          URL http://www.quantum-espresso.org", 
     in publications or presentations arising from this work. More details at
     http://www.quantum-espresso.org/quote

     Parallel version (MPI & OpenMP), running on       4 processor cores
     Number of MPI processes:                 4
     Threads/MPI process:                     1

     MPI processes distributed on     1 nodes
     153211 MiB available memory on the printing compute node when the environment starts
 
     Reading input from pw-si-30.in
Warning: card &CELL ignored
Warning: card / ignored

     Current dimensions of program PWSCF are:
     Max number of different atomic species (ntypx) = 10
     Max number of k-points (npk) =  40000
     Max angular momentum in pseudopotentials (lmaxx) =  4

     IMPORTANT: XC functional enforced from input :
     Exchange-correlation= PBE
                           (   1   4   3   4   0   0   0)
     Any further DFT definition will be discarded
     Please, verify this is what you really want


     gamma-point specific algorithms are used
 
     K-points division:     npool     =       2
     R & G space division:  proc/nbgrp/npool/nimage =       2
     Subspace diagonalization in iterative solution of the eigenvalue problem:
     a serial algorithm will be used

     Message from routine divide_et_impera:
     suboptimal parallelization: some nodes have no k-points
 
     Parallelization info
     --------------------
     sticks:   dense  smooth     PW     G-vecs:    dense   smooth      PW
     Min        1926    1926    504                89789    89789   12201
     Max        1927    1927    505                89790    89790   12204
     Sum        3853    3853   1009               179579   179579   24405
 
     Using Slab Decomposition
 


     bravais-lattice index     =            0
     lattice parameter (alat)  =      20.0820  a.u.
     unit-cell volume          =    8098.7476 (a.u.)^3
     number of atoms/cell      =           64
     number of atomic types    =            1
     number of electrons       =       256.00
     number of Kohn-Sham states=          154
     kinetic-energy cutoff     =      30.0000  Ry
     charge density cutoff     =     120.0000  Ry
     scf convergence threshold =      1.0E-06
     mixing beta               =       0.5000
     number of iterations used =            8  plain     mixing
     Exchange-correlation= PBE
                           (   1   4   3   4   0   0   0)

     GPU acceleration is ACTIVE.
     GPU-aware MPI enabled

     Message from routine print_cuda_info:
     High GPU oversubscription detected. Are you sure this is what you want?

     celldm(1)=  20.081953  celldm(2)=   0.000000  celldm(3)=   0.000000
     celldm(4)=   0.000000  celldm(5)=   0.000000  celldm(6)=   0.000000

     crystal axes: (cart. coord. in units of alat)
               a(1) = (   1.000000   0.000000   0.000000 )  
               a(2) = (   0.000000   1.000000   0.000000 )  
               a(3) = (   0.000000   0.000000   1.000000 )  

     reciprocal axes: (cart. coord. in units 2 pi/alat)
               b(1) = (  1.000000  0.000000  0.000000 )  
               b(2) = (  0.000000  1.000000  0.000000 )  
               b(3) = (  0.000000  0.000000  1.000000 )  


     PseudoPot. # 1 for Si read from file:
     /home/ppiaggi/pseudos/Si_ONCV_PBE_sr.upf
     MD5 check sum: 8553c464762ac42b85b1eed164b4d029
     Pseudo is Norm-conserving, Zval =  4.0
     Generated using ONCVPSP code by D. R. Hamann
     Using radial grid of 1510 points,  4 beta functions with: 
                l(1) =   0
                l(2) =   0
                l(3) =   1
                l(4) =   1

     atomic species   valence    mass     pseudopotential
        Si             4.00    28.08500     Si( 1.00)

     No symmetry found



   Cartesian axes

     site n.     atom                  positions (alat units)
         1           Si  tau(   1) = (   0.7286890   0.6929900   0.0179946  )
         2           Si  tau(   2) = (   0.9928120   0.5183020   0.0800051  )
         3           Si  tau(   3) = (   0.1790520   0.0992722   0.8820700  )
         4           Si  tau(   4) = (   0.8198970   0.0973780   0.0283410  )
         5           Si  tau(   5) = (   0.5012240   0.7023430   0.9412290  )
         6           Si  tau(   6) = (   0.2792510   0.9720050   0.6869380  )
         7           Si  tau(   7) = (   0.8490300   0.6929830   0.8274850  )
         8           Si  tau(   8) = (   0.4377700   0.5393000   0.7734820  )
         9           Si  tau(   9) = (   0.4650920   0.8007810   0.1588740  )
        10           Si  tau(  10) = (   0.1223790   0.7091830   0.8096730  )
        11           Si  tau(  11) = (   0.8482210   0.4927460   0.7139840  )
        12           Si  tau(  12) = (   0.2100170   0.6342760   0.1243920  )
        13           Si  tau(  13) = (   0.8422060   0.2178060   0.5604810  )
        14           Si  tau(  14) = (   0.6020640   0.1933110   0.6737040  )
        15           Si  tau(  15) = (   0.4528290   0.8692280   0.4742510  )
        16           Si  tau(  16) = (   0.2142950   0.1390510   0.5469090  )
        17           Si  tau(  17) = (   0.2963720   0.1340200   0.2297950  )
        18           Si  tau(  18) = (   0.2654440   0.6064120   0.3277050  )
        19           Si  tau(  19) = (   0.7591450   0.9878850   0.4343250  )
        20           Si  tau(  20) = (   0.0232847   0.1053370   0.4559470  )
        21           Si  tau(  21) = (   0.2686210   0.9095180   0.1797850  )
        22           Si  tau(  22) = (   0.0032040   0.6496070   0.5736640  )
        23           Si  tau(  23) = (   0.1340850   0.3807500   0.6673000  )
        24           Si  tau(  24) = (   0.6794560   0.3241230   0.9789390  )
        25           Si  tau(  25) = (   0.8122150   0.1068200   0.7761000  )
        26           Si  tau(  26) = (   0.9101980   0.8010180   0.2967380  )
        27           Si  tau(  27) = (   0.1857680   0.8299010   0.3688920  )
        28           Si  tau(  28) = (   0.0245883   0.0059001   0.0217290  )
        29           Si  tau(  29) = (   0.5805990   0.2470440   0.2627220  )
        30           Si  tau(  30) = (   0.6298440   0.6327070   0.5936020  )
        31           Si  tau(  31) = (   0.6884730   0.9096420   0.8372600  )
        32           Si  tau(  32) = (   0.0235647   0.2184490   0.7918880  )
        33           Si  tau(  33) = (   0.3524580   0.4872190   0.0119315  )
        34           Si  tau(  34) = (   0.5584540   0.9881810   0.0358721  )
        35           Si  tau(  35) = (   0.4995170   0.8295230   0.7062710  )
        36           Si  tau(  36) = (   0.5039200   0.5248300   0.2566620  )
        37           Si  tau(  37) = (   0.4914280   0.2079450   0.0664835  )
        38           Si  tau(  38) = (   0.2926910   0.8338330   0.9100960  )
        39           Si  tau(  39) = (   0.7605230   0.8156770   0.6049970  )
        40           Si  tau(  40) = (   0.8110650   0.6352600   0.3884720  )
        41           Si  tau(  41) = (   0.9916180   0.9144420   0.7660010  )
        42           Si  tau(  42) = (   0.2318950   0.7622910   0.5942070  )
        43           Si  tau(  43) = (   0.3921950   0.2101740   0.4076370  )
        44           Si  tau(  44) = (   0.6184010   0.4055660   0.7605020  )
        45           Si  tau(  45) = (   0.5730370   0.7235520   0.3526780  )
        46           Si  tau(  46) = (   0.7014490   0.4943110   0.1531560  )
        47           Si  tau(  47) = (   0.9879240   0.4250940   0.4946210  )
        48           Si  tau(  48) = (   0.0496774   0.1307560   0.2276020  )
        49           Si  tau(  49) = (   0.8694710   0.4286070   0.2935760  )
        50           Si  tau(  50) = (   0.8028460   0.1995630   0.2349030  )
        51           Si  tau(  51) = (   0.0132776   0.7872580   0.0576809  )
        52           Si  tau(  52) = (   0.1317590   0.5129030   0.8876220  )
        53           Si  tau(  53) = (   0.2605190   0.2751160   0.9874640  )
        54           Si  tau(  54) = (   0.7316430   0.8926010   0.1768240  )
        55           Si  tau(  55) = (   0.3521050   0.2892810   0.7389540  )
        56           Si  tau(  56) = (   0.4619180   0.0746943   0.8315910  )
        57           Si  tau(  57) = (   0.1030470   0.3350690   0.1620840  )
        58           Si  tau(  58) = (   0.6908460   0.4028160   0.4960590  )
        59           Si  tau(  59) = (   0.9120110   0.3580120   0.9125300  )
        60           Si  tau(  60) = (   0.4410720   0.4173390   0.4825210  )
        61           Si  tau(  61) = (   0.1977190   0.3871780   0.3511160  )
        62           Si  tau(  62) = (   0.2845710   0.5293370   0.6059570  )
        63           Si  tau(  63) = (   0.5472550   0.0695390   0.4825970  )
        64           Si  tau(  64) = (   0.9862280   0.8908620   0.4830260  )

     number of k points=     1  Fermi-Dirac smearing, width (Ry)=  0.0100
                       cart. coord. in units 2pi/alat
        k(    1) = (   0.0000000   0.0000000   0.0000000), wk =   2.0000000

     Dense  grid:    89790 G-vectors     FFT dimensions: (  72,  72,  72)

     Estimated max dynamical RAM per process >     144.40 MB

     Estimated total dynamical RAM >     555.70 MB

     Initial potential from superposition of free atoms

     starting charge     255.9608, renormalised to     256.0000
     Starting wfcs are  256 randomized atomic wfcs

     total cpu time spent up to now is        4.1 secs

     Self-consistent Calculation

     iteration #  1     ecut=    30.00 Ry     beta= 0.50
     Davidson diagonalization with overlap
     ethr =  1.00E-02,  avg # of iterations =  3.0

     Threshold (ethr) on eigenvalues was too large:
     Diagonalizing with lowered threshold

     Davidson diagonalization with overlap
     ethr =  3.80E-04,  avg # of iterations =  5.0

     total cpu time spent up to now is        4.3 secs

     total energy              =    -501.18679664 Ry
     estimated scf accuracy    <       1.14709462 Ry

     iteration #  2     ecut=    30.00 Ry     beta= 0.50
     Davidson diagonalization with overlap
     ethr =  4.48E-04,  avg # of iterations =  5.0

     total cpu time spent up to now is        4.4 secs

     total energy              =    -500.60101513 Ry
     estimated scf accuracy    <       7.40184016 Ry

     iteration #  3     ecut=    30.00 Ry     beta= 0.50
     Davidson diagonalization with overlap
     ethr =  4.48E-04,  avg # of iterations =  4.0

     total cpu time spent up to now is        4.5 secs

     total energy              =    -501.27882427 Ry
     estimated scf accuracy    <       1.62357584 Ry

     iteration #  4     ecut=    30.00 Ry     beta= 0.50
     Davidson diagonalization with overlap
     ethr =  4.48E-04,  avg # of iterations =  2.0

     total cpu time spent up to now is        4.6 secs

     total energy              =    -501.34438458 Ry
     estimated scf accuracy    <       0.60768682 Ry

     iteration #  5     ecut=    30.00 Ry     beta= 0.50
     Davidson diagonalization with overlap
     ethr =  2.37E-04,  avg # of iterations =  2.0

     total cpu time spent up to now is        4.7 secs

     total energy              =    -501.38259980 Ry
     estimated scf accuracy    <       0.46934174 Ry

     iteration #  6     ecut=    30.00 Ry     beta= 0.50
     Davidson diagonalization with overlap
     ethr =  1.83E-04,  avg # of iterations =  2.0

     total cpu time spent up to now is        4.8 secs

     total energy              =    -501.42195660 Ry
     estimated scf accuracy    <       0.08174718 Ry

     iteration #  7     ecut=    30.00 Ry     beta= 0.50
     Davidson diagonalization with overlap
     ethr =  3.19E-05,  avg # of iterations =  2.0

     total cpu time spent up to now is        4.8 secs

     total energy              =    -501.43064495 Ry
     estimated scf accuracy    <       0.02927712 Ry

     iteration #  8     ecut=    30.00 Ry     beta= 0.50
     Davidson diagonalization with overlap
     ethr =  1.14E-05,  avg # of iterations = 19.0

     total cpu time spent up to now is        5.0 secs

     total energy              =    -501.43355231 Ry
     estimated scf accuracy    <       0.01910701 Ry

     iteration #  9     ecut=    30.00 Ry     beta= 0.50
     Davidson diagonalization with overlap
     ethr =  7.46E-06,  avg # of iterations =  2.0

     total cpu time spent up to now is        5.1 secs

     total energy              =    -501.43512098 Ry
     estimated scf accuracy    <       0.00164006 Ry

     iteration # 10     ecut=    30.00 Ry     beta= 0.50
     Davidson diagonalization with overlap
     ethr =  6.41E-07,  avg # of iterations =  9.0

     total cpu time spent up to now is        5.2 secs

     total energy              =    -501.43530912 Ry
     estimated scf accuracy    <       0.00195833 Ry

     iteration # 11     ecut=    30.00 Ry     beta= 0.50
     Davidson diagonalization with overlap
     ethr =  6.41E-07,  avg # of iterations =  2.0

     total cpu time spent up to now is        5.3 secs

     total energy              =    -501.43546502 Ry
     estimated scf accuracy    <       0.00065066 Ry

     iteration # 12     ecut=    30.00 Ry     beta= 0.50
     Davidson diagonalization with overlap
     ethr =  2.54E-07,  avg # of iterations =  2.0

     total cpu time spent up to now is        5.4 secs

     total energy              =    -501.43552689 Ry
     estimated scf accuracy    <       0.00017766 Ry

     iteration # 13     ecut=    30.00 Ry     beta= 0.50
     Davidson diagonalization with overlap
     ethr =  6.94E-08,  avg # of iterations =  2.0

     total cpu time spent up to now is        5.5 secs

     total energy              =    -501.43554167 Ry
     estimated scf accuracy    <       0.00011790 Ry

     iteration # 14     ecut=    30.00 Ry     beta= 0.50
     Davidson diagonalization with overlap
     ethr =  4.61E-08,  avg # of iterations =  2.0

     total cpu time spent up to now is        5.6 secs

     total energy              =    -501.43555026 Ry
     estimated scf accuracy    <       0.00002562 Ry

     iteration # 15     ecut=    30.00 Ry     beta= 0.50
     Davidson diagonalization with overlap
     ethr =  1.00E-08,  avg # of iterations =  2.0

     total cpu time spent up to now is        5.7 secs

     total energy              =    -501.43555222 Ry
     estimated scf accuracy    <       0.00002401 Ry

     iteration # 16     ecut=    30.00 Ry     beta= 0.50
     Davidson diagonalization with overlap
     ethr =  9.38E-09,  avg # of iterations =  2.0

     total cpu time spent up to now is        5.7 secs

     total energy              =    -501.43555391 Ry
     estimated scf accuracy    <       0.00001371 Ry

     iteration # 17     ecut=    30.00 Ry     beta= 0.50
     Davidson diagonalization with overlap
     ethr =  5.36E-09,  avg # of iterations =  1.0

     total cpu time spent up to now is        5.8 secs

     End of self-consistent calculation

          k = 0.0000 0.0000 0.0000 ( 11288 PWs)   bands (ev):

    -5.2211  -4.2107  -4.0723  -4.0379  -4.0019  -3.9978  -3.9044  -3.1405
    -3.1087  -3.0688  -3.0267  -2.9480  -2.9170  -2.8422  -2.7255  -2.6861
    -2.5628  -2.4702  -2.3555  -1.9430  -1.9022  -1.8376  -1.6973  -1.5362
    -1.4740  -1.3574  -1.2226  -0.9357  -0.6205  -0.5458  -0.4987  -0.4266
    -0.3535  -0.0529   0.0867   0.1150   0.2550   0.3121   0.3332   0.3838
     0.5568   0.5979   0.6420   0.7006   0.8134   0.8806   0.9295   1.0133
     1.0735   1.2772   1.3425   1.4657   1.4735   1.6375   1.6664   1.7225
     1.8618   1.8903   1.9342   2.1034   2.2011   2.2916   2.3091   2.5001
     2.6244   2.6599   2.7591   2.8150   2.8614   2.8978   3.0069   3.0595
     3.1362   3.2095   3.2578   3.3709   3.4761   3.4921   3.6168   3.6819
     3.8058   4.2114   4.2761   4.4295   4.5597   4.5760   4.6769   4.7507
     4.8353   5.0129   5.0312   5.1689   5.2190   5.2560   5.3076   5.3281
     5.3802   5.4341   5.5170   5.5515   5.6316   5.6633   5.7216   5.7636
     5.8068   5.8546   5.9341   5.9677   6.0585   6.1506   6.2210   6.2630
     6.2969   6.3807   6.4069   6.4534   6.5265   6.5902   6.6769   6.7181
     6.7862   6.8397   6.9116   6.9461   6.9787   7.0240   7.0621   7.1147
     7.2419   7.2977   7.3262   7.3991   7.4130   7.4977   7.5512   7.6001
     7.6697   7.7379   7.8182   7.8777   7.9011   7.9336   8.0734   8.1130
     8.2208   8.2578   8.4170   8.4514   8.4920   8.5560   8.5905   8.6297
     8.6931   8.7836

     the Fermi energy is     7.1845 ev

!    total energy              =    -501.43555465 Ry
     estimated scf accuracy    <       0.00000077 Ry
     smearing contrib. (-TS)   =      -0.15732167 Ry
     internal energy E=F+TS    =    -501.27823298 Ry

     The total energy is F=E-TS. E is the sum of the following terms:
     one-electron contribution =     199.19557589 Ry
     hartree contribution      =      19.29858980 Ry
     xc contribution           =    -150.54269217 Ry
     ewald contribution        =    -569.22970651 Ry

     convergence has been achieved in  17 iterations

     Forces acting on atoms (cartesian axes, Ry/au):

     atom    1 type  1   force =    -0.01790553    0.00855719    0.01495240
     atom    2 type  1   force =     0.00355663    0.00496300   -0.01021934
     atom    3 type  1   force =     0.00452519   -0.05258336   -0.00521116
     atom    4 type  1   force =    -0.03115966   -0.00007308    0.00174965
     atom    5 type  1   force =    -0.01157563    0.00977905    0.00491848
     atom    6 type  1   force =     0.02311343    0.01118673    0.04521245
     atom    7 type  1   force =     0.01023384    0.02643526   -0.02447934
     atom    8 type  1   force =     0.01486908   -0.00188988    0.02921575
     atom    9 type  1   force =     0.00497289    0.00600413   -0.02955612
     atom   10 type  1   force =    -0.02857814    0.04523002   -0.02088259
     atom   11 type  1   force =    -0.01401430    0.00620781   -0.00004951
     atom   12 type  1   force =    -0.03832078    0.00353009   -0.06809725
     atom   13 type  1   force =     0.01040342    0.00558069    0.00291116
     atom   14 type  1   force =     0.00393605   -0.01249607    0.01566574
     atom   15 type  1   force =    -0.02285702   -0.01052287    0.04949979
     atom   16 type  1   force =     0.05915130    0.03434556    0.02051937
     atom   17 type  1   force =    -0.03814871   -0.02950879   -0.05156665
     atom   18 type  1   force =     0.02191506    0.00175130    0.03673852
     atom   19 type  1   force =    -0.00436392    0.00627417   -0.01731090
     atom   20 type  1   force =    -0.02345059    0.00618139   -0.04048584
     atom   21 type  1   force =     0.02527473    0.03184721   -0.02636745
     atom   22 type  1   force =    -0.02296952   -0.01328065    0.00971741
     atom   23 type  1   force =    -0.00364425   -0.03181610    0.02831562
     atom   24 type  1   force =     0.01218766    0.01568044    0.00854242
     atom   25 type  1   force =    -0.00656132   -0.01771588    0.00218024
     atom   26 type  1   force =     0.02182831    0.03103174   -0.06212390
     atom   27 type  1   force =    -0.01630397   -0.03621768    0.03691629
     atom   28 type  1   force =     0.00910046    0.01850018    0.00789800
     atom   29 type  1   force =     0.01314133    0.02654948    0.02592879
     atom   30 type  1   force =     0.00392877   -0.01929151   -0.01002791
     atom   31 type  1   force =    -0.02297358    0.00794074    0.00567387
     atom   32 type  1   force =    -0.01869535    0.00952781   -0.02090131
     atom   33 type  1   force =    -0.01380267    0.01511917   -0.03716163
     atom   34 type  1   force =     0.00654746   -0.01066041   -0.01680778
     atom   35 type  1   force =     0.01014400    0.01788635   -0.01078541
     atom   36 type  1   force =    -0.03316043   -0.00510452    0.03594474
     atom   37 type  1   force =    -0.02157143   -0.01057693   -0.02604403
     atom   38 type  1   force =     0.01579666    0.01274591    0.00914885
     atom   39 type  1   force =     0.01596392   -0.00056183    0.01921831
     atom   40 type  1   force =    -0.04450967   -0.03118564    0.03716645
     atom   41 type  1   force =    -0.01013200   -0.01782764   -0.00060935
     atom   42 type  1   force =    -0.01833595   -0.02419210   -0.01415258
     atom   43 type  1   force =    -0.01591401    0.02599502    0.03603761
     atom   44 type  1   force =     0.02553781   -0.00166930    0.00018258
     atom   45 type  1   force =     0.03531618   -0.03114222   -0.00274980
     atom   46 type  1   force =    -0.00909109   -0.00451827   -0.04212052
     atom   47 type  1   force =     0.00910470    0.00583149    0.00871114
     atom   48 type  1   force =     0.01113725   -0.00382736    0.01274997
     atom   49 type  1   force =    -0.01057868   -0.00866307   -0.00492518
     atom   50 type  1   force =     0.00085558    0.00599348    0.00572246
     atom   51 type  1   force =     0.00649705   -0.05200298    0.01753729
     atom   52 type  1   force =     0.00938813   -0.05208869    0.01673526
     atom   53 type  1   force =     0.03413628    0.02217617    0.02957584
     atom   54 type  1   force =     0.00277079   -0.00727716    0.00312311
     atom   55 type  1   force =    -0.00255032   -0.00982855   -0.00400621
     atom   56 type  1   force =    -0.00654516   -0.00494648   -0.02760667
     atom   57 type  1   force =     0.01112303   -0.01558906   -0.01882647
     atom   58 type  1   force =    -0.00948959    0.01570000    0.01041363
     atom   59 type  1   force =    -0.02095724    0.04168191    0.01164086
     atom   60 type  1   force =     0.03158357    0.00188258   -0.03493323
     atom   61 type  1   force =    -0.00986015    0.01398023    0.03247444
     atom   62 type  1   force =     0.03892454    0.02169662   -0.01351884
     atom   63 type  1   force =     0.02669558    0.00395468    0.00246793
     atom   64 type  1   force =     0.01436000   -0.00468959    0.00612056

     Total force =     0.312889     Total SCF correction =     0.001655


     Computing stress (Cartesian axis) and pressure

          total   stress  (Ry/bohr**3)                   (kbar)     P=      -39.03
  -0.00023995   0.00002331   0.00002915          -35.30        3.43        4.29
   0.00002331  -0.00023020  -0.00000139            3.43      -33.86       -0.20
   0.00002915  -0.00000139  -0.00032575            4.29       -0.20      -47.92

 
     init_run     :      0.93s CPU      4.02s WALL (       1 calls)
     electrons    :      1.58s CPU      1.76s WALL (       1 calls)
     forces       :      0.03s CPU      0.03s WALL (       1 calls)
     stress       :      0.14s CPU      0.14s WALL (       1 calls)

     Called by init_run:
     wfcinit      :      0.42s CPU      3.36s WALL (       1 calls)
                                        3.36s GPU  (       1 calls)
     potinit      :      0.04s CPU      0.11s WALL (       1 calls)
     hinit0       :      0.45s CPU      0.47s WALL (       1 calls)

     Called by electrons:
     c_bands      :      1.04s CPU      1.14s WALL (      18 calls)
     sum_band     :      0.28s CPU      0.33s WALL (      18 calls)
     v_of_rho     :      0.12s CPU      0.20s WALL (      18 calls)
     mix_rho      :      0.12s CPU      0.14s WALL (      18 calls)

     Called by c_bands:
     init_us_2    :      0.04s CPU      0.05s WALL (      37 calls)
     init_us_2:gp :      0.04s CPU      0.05s WALL (      37 calls)
     regterg      :      0.89s CPU      0.99s WALL (      18 calls)

     Called by *egterg:
     rdiaghg      :      0.40s CPU      0.98s WALL (      85 calls)
                                        0.96s GPU  (      85 calls)
     h_psi        :      0.76s CPU      3.15s WALL (      87 calls)
                                        3.15s GPU  (      87 calls)
     g_psi        :      0.00s CPU      0.00s WALL (      68 calls)
                                        0.00s GPU  (      68 calls)

     Called by h_psi:
     h_psi:calbec :      0.39s CPU      2.71s WALL (      87 calls)
                                        2.71s GPU  (      87 calls)
     vloc_psi     :      0.32s CPU      0.38s WALL (      87 calls)
                                        0.38s GPU  (      87 calls)
     add_vuspsi   :      0.03s CPU      0.05s WALL (      87 calls)
                                        0.05s GPU  (      87 calls)

     General routines
     calbec       :      0.39s CPU      2.72s WALL (      92 calls)
     fft          :      0.54s CPU      0.64s WALL (     151 calls)
                                        0.10s GPU  (      96 calls)
     ffts         :      0.02s CPU      0.03s WALL (      18 calls)
     fftw         :      0.40s CPU      0.53s WALL (    1904 calls)
                                        0.46s GPU  (    1904 calls)
 
     Parallel routines
 
     PWSCF        :      2.71s CPU      6.01s WALL

 
   This run was terminated on:  10:45:11  10May2023            

=------------------------------------------------------------------------------=
   JOB DONE.
=------------------------------------------------------------------------------=
