An instance of this daemon is already running

     Program PWSCF v.7.1 starts on 10May2023 at 10:55:20 

     This program is part of the open-source Quantum ESPRESSO suite
     for quantum simulation of materials; please cite
         "P. Giannozzi et al., J. Phys.:Condens. Matter 21 395502 (2009);
         "P. Giannozzi et al., J. Phys.:Condens. Matter 29 465901 (2017);
         "P. Giannozzi et al., J. Chem. Phys. 152 154105 (2020);
          URL http://www.quantum-espresso.org", 
     in publications or presentations arising from this work. More details at
     http://www.quantum-espresso.org/quote

     Parallel version (MPI & OpenMP), running on       4 processor cores
     Number of MPI processes:                 4
     Threads/MPI process:                     1

     MPI processes distributed on     1 nodes
     153175 MiB available memory on the printing compute node when the environment starts
 
     Reading input from pw-si-99.in
Warning: card &CELL ignored
Warning: card / ignored

     Current dimensions of program PWSCF are:
     Max number of different atomic species (ntypx) = 10
     Max number of k-points (npk) =  40000
     Max angular momentum in pseudopotentials (lmaxx) =  4

     IMPORTANT: XC functional enforced from input :
     Exchange-correlation= PBE
                           (   1   4   3   4   0   0   0)
     Any further DFT definition will be discarded
     Please, verify this is what you really want


     gamma-point specific algorithms are used
 
     K-points division:     npool     =       2
     R & G space division:  proc/nbgrp/npool/nimage =       2
     Subspace diagonalization in iterative solution of the eigenvalue problem:
     a serial algorithm will be used

     Message from routine divide_et_impera:
     suboptimal parallelization: some nodes have no k-points
 
     Parallelization info
     --------------------
     sticks:   dense  smooth     PW     G-vecs:    dense   smooth      PW
     Min        1933    1933    515                90543    90543   12286
     Max        1936    1936    518                90548    90548   12287
     Sum        3869    3869   1033               181091   181091   24573
 
     Using Slab Decomposition
 


     bravais-lattice index     =            0
     lattice parameter (alat)  =      20.1379  a.u.
     unit-cell volume          =    8166.6113 (a.u.)^3
     number of atoms/cell      =           64
     number of atomic types    =            1
     number of electrons       =       256.00
     number of Kohn-Sham states=          154
     kinetic-energy cutoff     =      30.0000  Ry
     charge density cutoff     =     120.0000  Ry
     scf convergence threshold =      1.0E-06
     mixing beta               =       0.5000
     number of iterations used =            8  plain     mixing
     Exchange-correlation= PBE
                           (   1   4   3   4   0   0   0)

     GPU acceleration is ACTIVE.
     GPU-aware MPI enabled

     Message from routine print_cuda_info:
     High GPU oversubscription detected. Are you sure this is what you want?

     celldm(1)=  20.137890  celldm(2)=   0.000000  celldm(3)=   0.000000
     celldm(4)=   0.000000  celldm(5)=   0.000000  celldm(6)=   0.000000

     crystal axes: (cart. coord. in units of alat)
               a(1) = (   1.000000   0.000000   0.000000 )  
               a(2) = (   0.000000   1.000000   0.000000 )  
               a(3) = (   0.000000   0.000000   1.000000 )  

     reciprocal axes: (cart. coord. in units 2 pi/alat)
               b(1) = (  1.000000  0.000000  0.000000 )  
               b(2) = (  0.000000  1.000000  0.000000 )  
               b(3) = (  0.000000  0.000000  1.000000 )  


     PseudoPot. # 1 for Si read from file:
     /home/ppiaggi/pseudos/Si_ONCV_PBE_sr.upf
     MD5 check sum: 8553c464762ac42b85b1eed164b4d029
     Pseudo is Norm-conserving, Zval =  4.0
     Generated using ONCVPSP code by D. R. Hamann
     Using radial grid of 1510 points,  4 beta functions with: 
                l(1) =   0
                l(2) =   0
                l(3) =   1
                l(4) =   1

     atomic species   valence    mass     pseudopotential
        Si             4.00    28.08500     Si( 1.00)

     No symmetry found



   Cartesian axes

     site n.     atom                  positions (alat units)
         1           Si  tau(   1) = (   0.1178490   0.2631360   0.7403910  )
         2           Si  tau(   2) = (   0.8941310   0.0264201   0.7289990  )
         3           Si  tau(   3) = (   0.3407900   0.3880690   0.8976600  )
         4           Si  tau(   4) = (   0.1511560   0.7020740   0.2676010  )
         5           Si  tau(   5) = (   0.7090640   0.2432380   0.7744030  )
         6           Si  tau(   6) = (   0.7132470   0.5458520   0.3444820  )
         7           Si  tau(   7) = (   0.4921500   0.0820265   0.8102510  )
         8           Si  tau(   8) = (   0.1958050   0.8187160   0.6474360  )
         9           Si  tau(   9) = (   0.7075310   0.3190940   0.3894510  )
        10           Si  tau(  10) = (   0.0884841   0.9274200   0.0417656  )
        11           Si  tau(  11) = (   0.1128210   0.3551790   0.9507040  )
        12           Si  tau(  12) = (   0.2711800   0.3554180   0.1609330  )
        13           Si  tau(  13) = (   0.7815040   0.9430350   0.8968210  )
        14           Si  tau(  14) = (   0.0441264   0.4506030   0.3428390  )
        15           Si  tau(  15) = (   0.1018830   0.7124160   0.8527410  )
        16           Si  tau(  16) = (   0.6440660   0.0517772   0.6224570  )
        17           Si  tau(  17) = (   0.2959150   0.4726590   0.6917450  )
        18           Si  tau(  18) = (   0.7321580   0.8740070   0.2360510  )
        19           Si  tau(  19) = (   0.9234310   0.2464690   0.6111650  )
        20           Si  tau(  20) = (   0.4777970   0.1850590   0.5124250  )
        21           Si  tau(  21) = (   0.5838430   0.7790790   0.0658862  )
        22           Si  tau(  22) = (   0.5765180   0.5309600   0.9955650  )
        23           Si  tau(  23) = (   0.2700440   0.9190590   0.1875680  )
        24           Si  tau(  24) = (   0.1258310   0.6267990   0.4907200  )
        25           Si  tau(  25) = (   0.9029240   0.2840020   0.2208710  )
        26           Si  tau(  26) = (   0.6716270   0.2404910   0.0901572  )
        27           Si  tau(  27) = (   0.6992060   0.6455390   0.8051060  )
        28           Si  tau(  28) = (   0.9371620   0.8045520   0.1790140  )
        29           Si  tau(  29) = (   0.7533030   0.9565260   0.4589320  )
        30           Si  tau(  30) = (   0.8261100   0.0504178   0.0788374  )
        31           Si  tau(  31) = (   0.2585550   0.3281210   0.5250290  )
        32           Si  tau(  32) = (   0.6045640   0.8531880   0.7602100  )
        33           Si  tau(  33) = (   0.0663658   0.5461940   0.7048200  )
        34           Si  tau(  34) = (   0.8911880   0.4268650   0.8295020  )
        35           Si  tau(  35) = (   0.0888777   0.9498830   0.3584910  )
        36           Si  tau(  36) = (   0.5232390   0.2647340   0.9218670  )
        37           Si  tau(  37) = (   0.8052060   0.4765670   0.0234320  )
        38           Si  tau(  38) = (   0.2806240   0.9754710   0.5073870  )
        39           Si  tau(  39) = (   0.9797060   0.9023960   0.5750270  )
        40           Si  tau(  40) = (   0.5559270   0.0360740   0.1730600  )
        41           Si  tau(  41) = (   0.4113310   0.7430560   0.7869970  )
        42           Si  tau(  42) = (   0.4531880   0.1875780   0.2727900  )
        43           Si  tau(  43) = (   0.3727390   0.6721920   0.4993870  )
        44           Si  tau(  44) = (   0.8850550   0.7527660   0.9197280  )
        45           Si  tau(  45) = (   0.6246400   0.3383090   0.5906240  )
        46           Si  tau(  46) = (   0.8889080   0.5690720   0.2132750  )
        47           Si  tau(  47) = (   0.1214500   0.0023477   0.8102010  )
        48           Si  tau(  48) = (   0.5399800   0.5527030   0.6530870  )
        49           Si  tau(  49) = (   0.3280170   0.4753570   0.3537550  )
        50           Si  tau(  50) = (   0.0606548   0.1587240   0.0828692  )
        51           Si  tau(  51) = (   0.3531770   0.5828980   0.0607601  )
        52           Si  tau(  52) = (   0.2283650   0.1426830   0.2406810  )
        53           Si  tau(  53) = (   0.2892670   0.7721030   0.9627590  )
        54           Si  tau(  54) = (   0.3081350   0.1469040   0.6994890  )
        55           Si  tau(  55) = (   0.6522480   0.7083660   0.5045370  )
        56           Si  tau(  56) = (   0.1040910   0.2188780   0.4346590  )
        57           Si  tau(  57) = (   0.4947760   0.9060030   0.4010380  )
        58           Si  tau(  58) = (   0.8753170   0.4749050   0.5297400  )
        59           Si  tau(  59) = (   0.8898900   0.1034070   0.3916660  )
        60           Si  tau(  60) = (   0.4096870   0.7246700   0.2373250  )
        61           Si  tau(  61) = (   0.0928006   0.5772900   0.0544290  )
        62           Si  tau(  62) = (   0.5510010   0.4185520   0.2246480  )
        63           Si  tau(  63) = (   0.4338860   0.9682250   0.9946520  )
        64           Si  tau(  64) = (   0.8677210   0.7023450   0.6270010  )

     number of k points=     1  Fermi-Dirac smearing, width (Ry)=  0.0100
                       cart. coord. in units 2pi/alat
        k(    1) = (   0.0000000   0.0000000   0.0000000), wk =   2.0000000

     Dense  grid:    90546 G-vectors     FFT dimensions: (  72,  72,  72)

     Estimated max dynamical RAM per process >     145.48 MB

     Estimated total dynamical RAM >     559.82 MB

     Initial potential from superposition of free atoms

     starting charge     255.9608, renormalised to     256.0000
     Starting wfcs are  256 randomized atomic wfcs

     total cpu time spent up to now is        4.5 secs

     Self-consistent Calculation

     iteration #  1     ecut=    30.00 Ry     beta= 0.50
     Davidson diagonalization with overlap
     ethr =  1.00E-02,  avg # of iterations =  3.0

     Threshold (ethr) on eigenvalues was too large:
     Diagonalizing with lowered threshold

     Davidson diagonalization with overlap
     ethr =  3.26E-04,  avg # of iterations =  5.0

     total cpu time spent up to now is        4.7 secs

     total energy              =    -501.28494885 Ry
     estimated scf accuracy    <       1.02474680 Ry

     iteration #  2     ecut=    30.00 Ry     beta= 0.50
     Davidson diagonalization with overlap
     ethr =  4.00E-04,  avg # of iterations =  3.0

     total cpu time spent up to now is        4.8 secs

     total energy              =    -501.03556085 Ry
     estimated scf accuracy    <       2.42339548 Ry

     iteration #  3     ecut=    30.00 Ry     beta= 0.50
     Davidson diagonalization with overlap
     ethr =  4.00E-04,  avg # of iterations =  3.0

     total cpu time spent up to now is        4.9 secs

     total energy              =    -501.25367750 Ry
     estimated scf accuracy    <       2.17654547 Ry

     iteration #  4     ecut=    30.00 Ry     beta= 0.50
     Davidson diagonalization with overlap
     ethr =  4.00E-04,  avg # of iterations =  2.0

     total cpu time spent up to now is        5.0 secs

     total energy              =    -501.39432688 Ry
     estimated scf accuracy    <       0.51130125 Ry

     iteration #  5     ecut=    30.00 Ry     beta= 0.50
     Davidson diagonalization with overlap
     ethr =  2.00E-04,  avg # of iterations =  2.0

     total cpu time spent up to now is        5.0 secs

     total energy              =    -501.42350736 Ry
     estimated scf accuracy    <       0.36685404 Ry

     iteration #  6     ecut=    30.00 Ry     beta= 0.50
     Davidson diagonalization with overlap
     ethr =  1.43E-04,  avg # of iterations =  2.0

     total cpu time spent up to now is        5.1 secs

     total energy              =    -501.45774399 Ry
     estimated scf accuracy    <       0.08888495 Ry

     iteration #  7     ecut=    30.00 Ry     beta= 0.50
     Davidson diagonalization with overlap
     ethr =  3.47E-05,  avg # of iterations =  2.0

     total cpu time spent up to now is        5.2 secs

     total energy              =    -501.46424406 Ry
     estimated scf accuracy    <       0.03191899 Ry

     iteration #  8     ecut=    30.00 Ry     beta= 0.50
     Davidson diagonalization with overlap
     ethr =  1.25E-05,  avg # of iterations =  3.0

     total cpu time spent up to now is        5.3 secs

     total energy              =    -501.46755366 Ry
     estimated scf accuracy    <       0.01211667 Ry

     iteration #  9     ecut=    30.00 Ry     beta= 0.50
     Davidson diagonalization with overlap
     c_bands:  1 eigenvalues not converged
     ethr =  4.73E-06,  avg # of iterations = 20.0

     total cpu time spent up to now is        5.5 secs

     total energy              =    -501.46864085 Ry
     estimated scf accuracy    <       0.00128809 Ry

     iteration # 10     ecut=    30.00 Ry     beta= 0.50
     Davidson diagonalization with overlap
     ethr =  5.03E-07,  avg # of iterations =  8.0

     total cpu time spent up to now is        5.6 secs

     total energy              =    -501.46875062 Ry
     estimated scf accuracy    <       0.00182446 Ry

     iteration # 11     ecut=    30.00 Ry     beta= 0.50
     Davidson diagonalization with overlap
     ethr =  5.03E-07,  avg # of iterations =  2.0

     total cpu time spent up to now is        5.7 secs

     total energy              =    -501.46891844 Ry
     estimated scf accuracy    <       0.00038819 Ry

     iteration # 12     ecut=    30.00 Ry     beta= 0.50
     Davidson diagonalization with overlap
     ethr =  1.52E-07,  avg # of iterations =  2.0

     total cpu time spent up to now is        5.8 secs

     total energy              =    -501.46895471 Ry
     estimated scf accuracy    <       0.00009390 Ry

     iteration # 13     ecut=    30.00 Ry     beta= 0.50
     Davidson diagonalization with overlap
     ethr =  3.67E-08,  avg # of iterations =  3.0

     total cpu time spent up to now is        5.9 secs

     total energy              =    -501.46895719 Ry
     estimated scf accuracy    <       0.00018163 Ry

     iteration # 14     ecut=    30.00 Ry     beta= 0.50
     Davidson diagonalization with overlap
     ethr =  3.67E-08,  avg # of iterations =  2.0

     total cpu time spent up to now is        5.9 secs

     total energy              =    -501.46896918 Ry
     estimated scf accuracy    <       0.00002806 Ry

     iteration # 15     ecut=    30.00 Ry     beta= 0.50
     Davidson diagonalization with overlap
     ethr =  1.10E-08,  avg # of iterations =  3.0

     total cpu time spent up to now is        6.0 secs

     total energy              =    -501.46897148 Ry
     estimated scf accuracy    <       0.00002776 Ry

     iteration # 16     ecut=    30.00 Ry     beta= 0.50
     Davidson diagonalization with overlap
     ethr =  1.08E-08,  avg # of iterations =  2.0

     total cpu time spent up to now is        6.1 secs

     total energy              =    -501.46897349 Ry
     estimated scf accuracy    <       0.00000329 Ry

     iteration # 17     ecut=    30.00 Ry     beta= 0.50
     Davidson diagonalization with overlap
     ethr =  1.28E-09,  avg # of iterations =  4.0

     total cpu time spent up to now is        6.2 secs

     total energy              =    -501.46897348 Ry
     estimated scf accuracy    <       0.00000790 Ry

     iteration # 18     ecut=    30.00 Ry     beta= 0.50
     Davidson diagonalization with overlap
     ethr =  1.28E-09,  avg # of iterations =  3.0

     total cpu time spent up to now is        6.3 secs

     total energy              =    -501.46897416 Ry
     estimated scf accuracy    <       0.00000226 Ry

     iteration # 19     ecut=    30.00 Ry     beta= 0.50
     Davidson diagonalization with overlap
     ethr =  8.84E-10,  avg # of iterations =  1.0

     total cpu time spent up to now is        6.4 secs

     End of self-consistent calculation

          k = 0.0000 0.0000 0.0000 ( 11372 PWs)   bands (ev):

    -5.3198  -4.4018  -4.2888  -4.2142  -4.1229  -4.0858  -3.7464  -3.3735
    -3.2428  -3.1882  -3.1710  -3.0693  -2.9505  -2.9183  -2.8546  -2.7330
    -2.7141  -2.5840  -2.3353  -2.0011  -1.9580  -1.8909  -1.7675  -1.6669
    -1.6424  -1.5118  -1.3026  -0.8854  -0.8063  -0.6294  -0.5188  -0.4354
    -0.2578  -0.1174  -0.0066   0.0380   0.1595   0.2269   0.2789   0.3603
     0.4266   0.4379   0.5322   0.5561   0.6758   0.7072   0.7571   0.8265
     0.9766   1.0695   1.1710   1.2138   1.3608   1.3990   1.5713   1.6056
     1.7515   1.8497   1.9784   2.0563   2.1544   2.2429   2.2991   2.4381
     2.4878   2.5576   2.6132   2.6910   2.7860   2.9047   2.9946   3.0088
     3.0550   3.1103   3.2113   3.3551   3.4021   3.5636   3.5794   3.7621
     3.8207   4.2057   4.2670   4.3893   4.4380   4.5212   4.5910   4.6350
     4.7260   4.7780   4.8467   4.9884   5.0188   5.0926   5.1057   5.1848
     5.2771   5.2904   5.3148   5.4384   5.5312   5.5584   5.6041   5.6684
     5.7749   5.8257   5.8720   5.9437   5.9750   6.0073   6.0424   6.1357
     6.1772   6.2442   6.3213   6.3753   6.4291   6.4871   6.5250   6.6448
     6.7337   6.7392   6.8460   6.8547   6.9121   6.9557   7.0254   7.0537
     7.1035   7.1957   7.2424   7.3112   7.3582   7.4229   7.4260   7.5295
     7.5964   7.6572   7.6892   7.8463   7.8599   7.9105   7.9729   7.9993
     8.1215   8.2010   8.2676   8.3516   8.3946   8.4644   8.5111   8.5756
     8.6325   8.7408

     the Fermi energy is     7.1031 ev

!    total energy              =    -501.46897425 Ry
     estimated scf accuracy    <       0.00000015 Ry
     smearing contrib. (-TS)   =      -0.15966506 Ry
     internal energy E=F+TS    =    -501.30930919 Ry

     The total energy is F=E-TS. E is the sum of the following terms:
     one-electron contribution =     191.50791341 Ry
     hartree contribution      =      22.22383921 Ry
     xc contribution           =    -150.49335842 Ry
     ewald contribution        =    -564.54770340 Ry

     convergence has been achieved in  19 iterations

     Forces acting on atoms (cartesian axes, Ry/au):

     atom    1 type  1   force =    -0.00120438    0.00246125   -0.00267859
     atom    2 type  1   force =     0.02920746    0.05125154    0.01156639
     atom    3 type  1   force =    -0.01561481    0.01436202    0.01337913
     atom    4 type  1   force =    -0.01470275    0.01573513    0.00002053
     atom    5 type  1   force =     0.02113335   -0.00676131   -0.00609828
     atom    6 type  1   force =    -0.00831737    0.00572144    0.03433089
     atom    7 type  1   force =     0.00045737   -0.01874657   -0.01174196
     atom    8 type  1   force =     0.01815060    0.00027470    0.01547857
     atom    9 type  1   force =     0.02941998    0.00986242   -0.01106659
     atom   10 type  1   force =    -0.00539620    0.00695083   -0.02227124
     atom   11 type  1   force =    -0.01374154   -0.01235320    0.01449369
     atom   12 type  1   force =     0.01264300    0.02311259   -0.02185932
     atom   13 type  1   force =    -0.03128009   -0.01210402   -0.03020404
     atom   14 type  1   force =    -0.01831253   -0.01102021    0.02837055
     atom   15 type  1   force =    -0.03131510    0.00065732    0.00279291
     atom   16 type  1   force =    -0.02965532    0.01228691    0.04066422
     atom   17 type  1   force =    -0.00150375    0.00189174   -0.00433099
     atom   18 type  1   force =    -0.01959698    0.03590095   -0.01236900
     atom   19 type  1   force =     0.01464404   -0.00485830   -0.00277545
     atom   20 type  1   force =    -0.02423704   -0.00834646   -0.02213402
     atom   21 type  1   force =    -0.02289835   -0.00270179    0.01396212
     atom   22 type  1   force =     0.01415633    0.00917021    0.00578657
     atom   23 type  1   force =     0.00341769   -0.00270708   -0.01667061
     atom   24 type  1   force =     0.03518344   -0.00267902   -0.00611979
     atom   25 type  1   force =    -0.01402020   -0.01743422    0.00986509
     atom   26 type  1   force =     0.02481259    0.00517208    0.01787972
     atom   27 type  1   force =     0.00818428    0.00275016    0.00827057
     atom   28 type  1   force =     0.02668703   -0.02237119   -0.01929679
     atom   29 type  1   force =    -0.01897466   -0.05325910   -0.02957883
     atom   30 type  1   force =    -0.01198250    0.03266047    0.03727680
     atom   31 type  1   force =     0.06828400    0.02055489    0.02267554
     atom   32 type  1   force =     0.01062373    0.02359193    0.00661786
     atom   33 type  1   force =    -0.00799323   -0.01917886   -0.00807972
     atom   34 type  1   force =     0.02725854   -0.02540794   -0.02495241
     atom   35 type  1   force =    -0.01149407    0.01384833    0.00926777
     atom   36 type  1   force =     0.02996990    0.02595834    0.00364944
     atom   37 type  1   force =    -0.02729053   -0.01264703    0.02732693
     atom   38 type  1   force =     0.02059939    0.01921388    0.02109879
     atom   39 type  1   force =    -0.00242282   -0.04281964   -0.02226794
     atom   40 type  1   force =     0.05140976   -0.04356574   -0.00899857
     atom   41 type  1   force =    -0.00342662    0.00415419   -0.05514101
     atom   42 type  1   force =    -0.02631997    0.06083837    0.07907507
     atom   43 type  1   force =    -0.01522994   -0.01325122   -0.02987555
     atom   44 type  1   force =     0.02101169   -0.01554848    0.01535142
     atom   45 type  1   force =    -0.02079211    0.03441805    0.00232575
     atom   46 type  1   force =     0.03339972    0.01114846   -0.03605780
     atom   47 type  1   force =    -0.02911294    0.00461301    0.00458576
     atom   48 type  1   force =    -0.02197753   -0.00016275   -0.01033858
     atom   49 type  1   force =     0.00308835    0.01367992    0.01204440
     atom   50 type  1   force =    -0.00872759    0.01102964    0.00428911
     atom   51 type  1   force =    -0.00064313   -0.02683970   -0.00379175
     atom   52 type  1   force =    -0.02419175   -0.01027843    0.01870942
     atom   53 type  1   force =    -0.00703251    0.02765666    0.02241441
     atom   54 type  1   force =    -0.01198592   -0.04005169   -0.04812156
     atom   55 type  1   force =     0.00288347    0.00531679    0.00157449
     atom   56 type  1   force =    -0.04231660   -0.02120118   -0.03113851
     atom   57 type  1   force =    -0.01318868   -0.03132904   -0.00631486
     atom   58 type  1   force =     0.01943258   -0.01370097   -0.03204565
     atom   59 type  1   force =     0.05484085    0.05772114   -0.02459349
     atom   60 type  1   force =     0.00092944    0.03766350    0.02255322
     atom   61 type  1   force =     0.02381048   -0.01519848    0.01074099
     atom   62 type  1   force =    -0.01061572   -0.02334702   -0.01034714
     atom   63 type  1   force =    -0.00899601   -0.05878731    0.03390259
     atom   64 type  1   force =    -0.02912781   -0.01297089   -0.00108068

     Total force =     0.325601     Total SCF correction =     0.000747


     Computing stress (Cartesian axis) and pressure

          total   stress  (Ry/bohr**3)                   (kbar)     P=      -40.86
  -0.00034508   0.00001183  -0.00002936          -50.76        1.74       -4.32
   0.00001183  -0.00029721   0.00001879            1.74      -43.72        2.76
  -0.00002936   0.00001879  -0.00019103           -4.32        2.76      -28.10

 
     init_run     :      0.91s CPU      4.39s WALL (       1 calls)
     electrons    :      1.74s CPU      1.92s WALL (       1 calls)
     forces       :      0.03s CPU      0.03s WALL (       1 calls)
     stress       :      0.14s CPU      0.14s WALL (       1 calls)

     Called by init_run:
     wfcinit      :      0.41s CPU      3.73s WALL (       1 calls)
                                        3.73s GPU  (       1 calls)
     potinit      :      0.03s CPU      0.12s WALL (       1 calls)
     hinit0       :      0.45s CPU      0.48s WALL (       1 calls)

     Called by electrons:
     c_bands      :      1.14s CPU      1.23s WALL (      20 calls)
     sum_band     :      0.32s CPU      0.38s WALL (      20 calls)
     v_of_rho     :      0.13s CPU      0.21s WALL (      20 calls)
     mix_rho      :      0.13s CPU      0.15s WALL (      20 calls)

     Called by c_bands:
     init_us_2    :      0.05s CPU      0.05s WALL (      41 calls)
     init_us_2:gp :      0.05s CPU      0.05s WALL (      41 calls)
     regterg      :      0.98s CPU      1.07s WALL (      20 calls)

     Called by *egterg:
     rdiaghg      :      0.41s CPU      1.12s WALL (      94 calls)
                                        1.11s GPU  (      94 calls)
     h_psi        :      0.80s CPU      3.47s WALL (      96 calls)
                                        3.47s GPU  (      96 calls)
     g_psi        :      0.00s CPU      0.00s WALL (      75 calls)
                                        0.00s GPU  (      75 calls)

     Called by h_psi:
     h_psi:calbec :      0.38s CPU      2.97s WALL (      96 calls)
                                        2.97s GPU  (      96 calls)
     vloc_psi     :      0.36s CPU      0.44s WALL (      96 calls)
                                        0.44s GPU  (      96 calls)
     add_vuspsi   :      0.04s CPU      0.05s WALL (      96 calls)
                                        0.05s GPU  (      96 calls)

     General routines
     calbec       :      0.39s CPU      2.97s WALL (     101 calls)
     fft          :      0.54s CPU      0.66s WALL (     167 calls)
                                        0.11s GPU  (     106 calls)
     ffts         :      0.03s CPU      0.03s WALL (      20 calls)
     fftw         :      0.45s CPU      0.60s WALL (    2118 calls)
                                        0.52s GPU  (    2118 calls)
 
     Parallel routines
 
     PWSCF        :      2.86s CPU      6.56s WALL

 
   This run was terminated on:  10:55:26  10May2023            

=------------------------------------------------------------------------------=
   JOB DONE.
=------------------------------------------------------------------------------=
