An instance of this daemon is already running
An instance of this daemon is already running

     Program PWSCF v.7.1 starts on 10May2023 at 10:54: 8 

     This program is part of the open-source Quantum ESPRESSO suite
     for quantum simulation of materials; please cite
         "P. Giannozzi et al., J. Phys.:Condens. Matter 21 395502 (2009);
         "P. Giannozzi et al., J. Phys.:Condens. Matter 29 465901 (2017);
         "P. Giannozzi et al., J. Chem. Phys. 152 154105 (2020);
          URL http://www.quantum-espresso.org", 
     in publications or presentations arising from this work. More details at
     http://www.quantum-espresso.org/quote

     Parallel version (MPI & OpenMP), running on       4 processor cores
     Number of MPI processes:                 4
     Threads/MPI process:                     1

     MPI processes distributed on     1 nodes
     153134 MiB available memory on the printing compute node when the environment starts
 
     Reading input from pw-si-91.in
Warning: card &CELL ignored
Warning: card / ignored

     Current dimensions of program PWSCF are:
     Max number of different atomic species (ntypx) = 10
     Max number of k-points (npk) =  40000
     Max angular momentum in pseudopotentials (lmaxx) =  4

     IMPORTANT: XC functional enforced from input :
     Exchange-correlation= PBE
                           (   1   4   3   4   0   0   0)
     Any further DFT definition will be discarded
     Please, verify this is what you really want


     gamma-point specific algorithms are used
 
     K-points division:     npool     =       2
     R & G space division:  proc/nbgrp/npool/nimage =       2
     Subspace diagonalization in iterative solution of the eigenvalue problem:
     a serial algorithm will be used

     Message from routine divide_et_impera:
     suboptimal parallelization: some nodes have no k-points
 
     Parallelization info
     --------------------
     sticks:   dense  smooth     PW     G-vecs:    dense   smooth      PW
     Min        1933    1933    515                90495    90495   12286
     Max        1936    1936    518                90500    90500   12287
     Sum        3869    3869   1033               180995   180995   24573
 
     Using Slab Decomposition
 


     bravais-lattice index     =            0
     lattice parameter (alat)  =      20.1219  a.u.
     unit-cell volume          =    8147.1453 (a.u.)^3
     number of atoms/cell      =           64
     number of atomic types    =            1
     number of electrons       =       256.00
     number of Kohn-Sham states=          154
     kinetic-energy cutoff     =      30.0000  Ry
     charge density cutoff     =     120.0000  Ry
     scf convergence threshold =      1.0E-06
     mixing beta               =       0.5000
     number of iterations used =            8  plain     mixing
     Exchange-correlation= PBE
                           (   1   4   3   4   0   0   0)

     GPU acceleration is ACTIVE.
     GPU-aware MPI enabled

     Message from routine print_cuda_info:
     High GPU oversubscription detected. Are you sure this is what you want?

     celldm(1)=  20.121877  celldm(2)=   0.000000  celldm(3)=   0.000000
     celldm(4)=   0.000000  celldm(5)=   0.000000  celldm(6)=   0.000000

     crystal axes: (cart. coord. in units of alat)
               a(1) = (   1.000000   0.000000   0.000000 )  
               a(2) = (   0.000000   1.000000   0.000000 )  
               a(3) = (   0.000000   0.000000   1.000000 )  

     reciprocal axes: (cart. coord. in units 2 pi/alat)
               b(1) = (  1.000000  0.000000  0.000000 )  
               b(2) = (  0.000000  1.000000  0.000000 )  
               b(3) = (  0.000000  0.000000  1.000000 )  


     PseudoPot. # 1 for Si read from file:
     /home/ppiaggi/pseudos/Si_ONCV_PBE_sr.upf
     MD5 check sum: 8553c464762ac42b85b1eed164b4d029
     Pseudo is Norm-conserving, Zval =  4.0
     Generated using ONCVPSP code by D. R. Hamann
     Using radial grid of 1510 points,  4 beta functions with: 
                l(1) =   0
                l(2) =   0
                l(3) =   1
                l(4) =   1

     atomic species   valence    mass     pseudopotential
        Si             4.00    28.08500     Si( 1.00)

     No symmetry found



   Cartesian axes

     site n.     atom                  positions (alat units)
         1           Si  tau(   1) = (   0.7289680   0.5623890   0.9014520  )
         2           Si  tau(   2) = (   0.5443360   0.6336930   0.2297560  )
         3           Si  tau(   3) = (   0.7226560   0.1406200   0.0454376  )
         4           Si  tau(   4) = (   0.1514030   0.1547170   0.5747500  )
         5           Si  tau(   5) = (   0.8497250   0.1469740   0.3718350  )
         6           Si  tau(   6) = (   0.2992690   0.8661730   0.0812769  )
         7           Si  tau(   7) = (   0.3929520   0.7258970   0.5486280  )
         8           Si  tau(   8) = (   0.5248670   0.8515440   0.1278570  )
         9           Si  tau(   9) = (   0.2946020   0.2192290   0.4225580  )
        10           Si  tau(  10) = (   0.6870090   0.1049570   0.6598770  )
        11           Si  tau(  11) = (   0.6437120   0.5477710   0.4131830  )
        12           Si  tau(  12) = (   0.3420810   0.9344760   0.4826340  )
        13           Si  tau(  13) = (   0.1201780   0.7797730   0.3243280  )
        14           Si  tau(  14) = (   0.1992100   0.9846000   0.2991730  )
        15           Si  tau(  15) = (   0.8849320   0.9241840   0.4895290  )
        16           Si  tau(  16) = (   0.1066240   0.9921630   0.9852610  )
        17           Si  tau(  17) = (   0.7030780   0.9254750   0.9909340  )
        18           Si  tau(  18) = (   0.1617470   0.2746500   0.7972480  )
        19           Si  tau(  19) = (   0.9573210   0.1665180   0.0715986  )
        20           Si  tau(  20) = (   0.1504800   0.4025580   0.3903580  )
        21           Si  tau(  21) = (   0.9677290   0.0199868   0.2461570  )
        22           Si  tau(  22) = (   0.8461350   0.3822180   0.9060780  )
        23           Si  tau(  23) = (   0.1824050   0.5110290   0.8374370  )
        24           Si  tau(  24) = (   0.3539210   0.6580560   0.7538640  )
        25           Si  tau(  25) = (   0.4701710   0.2914650   0.9017550  )
        26           Si  tau(  26) = (   0.8625310   0.9437010   0.6938630  )
        27           Si  tau(  27) = (   0.5228720   0.1239130   0.1909830  )
        28           Si  tau(  28) = (   0.0123725   0.6259310   0.7080290  )
        29           Si  tau(  29) = (   0.6443100   0.4973090   0.6462230  )
        30           Si  tau(  30) = (   0.3011410   0.1510720   0.9237300  )
        31           Si  tau(  31) = (   0.4867460   0.3443030   0.4311030  )
        32           Si  tau(  32) = (   0.9670390   0.1135450   0.8244700  )
        33           Si  tau(  33) = (   0.8809090   0.4271130   0.6737290  )
        34           Si  tau(  34) = (   0.3059110   0.1631300   0.1619290  )
        35           Si  tau(  35) = (   0.6159210   0.7487150   0.6183780  )
        36           Si  tau(  36) = (   0.9672870   0.3222380   0.2787310  )
        37           Si  tau(  37) = (   0.2579290   0.4537080   0.6096450  )
        38           Si  tau(  38) = (   0.1363200   0.6538460   0.5350400  )
        39           Si  tau(  39) = (   0.0222605   0.5713500   0.1423490  )
        40           Si  tau(  40) = (   0.4355650   0.4584030   0.0844986  )
        41           Si  tau(  41) = (   0.9150060   0.2111510   0.5852910  )
        42           Si  tau(  42) = (   0.5146350   0.5594560   0.8630010  )
        43           Si  tau(  43) = (   0.5958650   0.3394990   0.2296910  )
        44           Si  tau(  44) = (   0.0523663   0.7339670   0.9552650  )
        45           Si  tau(  45) = (   0.3805150   0.5566600   0.3781370  )
        46           Si  tau(  46) = (   0.6102200   0.1307430   0.4321030  )
        47           Si  tau(  47) = (   0.4300760   0.1038200   0.6494410  )
        48           Si  tau(  48) = (   0.8210280   0.7518540   0.8071560  )
        49           Si  tau(  49) = (   0.8765610   0.6696780   0.3033250  )
        50           Si  tau(  50) = (   0.4422470   0.3441550   0.6688230  )
        51           Si  tau(  51) = (   0.2448470   0.3648900   0.1575750  )
        52           Si  tau(  52) = (   0.2441970   0.6379820   0.1674260  )
        53           Si  tau(  53) = (   0.8014900   0.3854760   0.1411710  )
        54           Si  tau(  54) = (   0.5168560   0.9297060   0.3522660  )
        55           Si  tau(  55) = (   0.0784773   0.3691910   0.0166022  )
        56           Si  tau(  56) = (   0.9154090   0.4901200   0.4415560  )
        57           Si  tau(  57) = (   0.3684530   0.9614000   0.8379870  )
        58           Si  tau(  58) = (   0.1162420   0.9033080   0.5918550  )
        59           Si  tau(  59) = (   0.7510400   0.6233070   0.1280580  )
        60           Si  tau(  60) = (   0.6014680   0.9136330   0.7860710  )
        61           Si  tau(  61) = (   0.6762500   0.2372910   0.8405990  )
        62           Si  tau(  62) = (   0.1864910   0.7994570   0.7814330  )
        63           Si  tau(  63) = (   0.6865990   0.8171760   0.4204780  )
        64           Si  tau(  64) = (   0.9012650   0.8256040   0.1069200  )

     number of k points=     1  Fermi-Dirac smearing, width (Ry)=  0.0100
                       cart. coord. in units 2pi/alat
        k(    1) = (   0.0000000   0.0000000   0.0000000), wk =   2.0000000

     Dense  grid:    90498 G-vectors     FFT dimensions: (  72,  72,  72)

     Estimated max dynamical RAM per process >     145.20 MB

     Estimated total dynamical RAM >     558.69 MB

     Initial potential from superposition of free atoms

     starting charge     255.9608, renormalised to     256.0000
     Starting wfcs are  256 randomized atomic wfcs

     total cpu time spent up to now is        4.1 secs

     Self-consistent Calculation

     iteration #  1     ecut=    30.00 Ry     beta= 0.50
     Davidson diagonalization with overlap
     ethr =  1.00E-02,  avg # of iterations =  3.0

     Threshold (ethr) on eigenvalues was too large:
     Diagonalizing with lowered threshold

     Davidson diagonalization with overlap
     ethr =  3.85E-04,  avg # of iterations =  5.0

     total cpu time spent up to now is        4.3 secs

     total energy              =    -501.43963292 Ry
     estimated scf accuracy    <       1.17213638 Ry

     iteration #  2     ecut=    30.00 Ry     beta= 0.50
     Davidson diagonalization with overlap
     ethr =  4.58E-04,  avg # of iterations =  3.0

     total cpu time spent up to now is        4.4 secs

     total energy              =    -501.14364260 Ry
     estimated scf accuracy    <       3.14625802 Ry

     iteration #  3     ecut=    30.00 Ry     beta= 0.50
     Davidson diagonalization with overlap
     ethr =  4.58E-04,  avg # of iterations =  3.0

     total cpu time spent up to now is        4.5 secs

     total energy              =    -501.44277432 Ry
     estimated scf accuracy    <       2.20925174 Ry

     iteration #  4     ecut=    30.00 Ry     beta= 0.50
     Davidson diagonalization with overlap
     ethr =  4.58E-04,  avg # of iterations =  2.0

     total cpu time spent up to now is        4.6 secs

     total energy              =    -501.60670692 Ry
     estimated scf accuracy    <       0.46448158 Ry

     iteration #  5     ecut=    30.00 Ry     beta= 0.50
     Davidson diagonalization with overlap
     ethr =  1.81E-04,  avg # of iterations =  2.0

     total cpu time spent up to now is        4.7 secs

     total energy              =    -501.64508192 Ry
     estimated scf accuracy    <       0.13379916 Ry

     iteration #  6     ecut=    30.00 Ry     beta= 0.50
     Davidson diagonalization with overlap
     ethr =  5.23E-05,  avg # of iterations =  3.0

     total cpu time spent up to now is        4.8 secs

     total energy              =    -501.65678089 Ry
     estimated scf accuracy    <       0.15021892 Ry

     iteration #  7     ecut=    30.00 Ry     beta= 0.50
     Davidson diagonalization with overlap
     ethr =  5.23E-05,  avg # of iterations =  1.0

     total cpu time spent up to now is        4.8 secs

     total energy              =    -501.66932488 Ry
     estimated scf accuracy    <       0.00674120 Ry

     iteration #  8     ecut=    30.00 Ry     beta= 0.50
     Davidson diagonalization with overlap
     ethr =  2.63E-06,  avg # of iterations = 20.0

     total cpu time spent up to now is        5.0 secs

     total energy              =    -501.67023466 Ry
     estimated scf accuracy    <       0.01238074 Ry

     iteration #  9     ecut=    30.00 Ry     beta= 0.50
     Davidson diagonalization with overlap
     ethr =  2.63E-06,  avg # of iterations =  3.0

     total cpu time spent up to now is        5.1 secs

     total energy              =    -501.67121003 Ry
     estimated scf accuracy    <       0.00426171 Ry

     iteration # 10     ecut=    30.00 Ry     beta= 0.50
     Davidson diagonalization with overlap
     ethr =  1.66E-06,  avg # of iterations =  2.0

     total cpu time spent up to now is        5.2 secs

     total energy              =    -501.67155097 Ry
     estimated scf accuracy    <       0.00052423 Ry

     iteration # 11     ecut=    30.00 Ry     beta= 0.50
     Davidson diagonalization with overlap
     ethr =  2.05E-07,  avg # of iterations =  2.0

     total cpu time spent up to now is        5.3 secs

     total energy              =    -501.67161827 Ry
     estimated scf accuracy    <       0.00006544 Ry

     iteration # 12     ecut=    30.00 Ry     beta= 0.50
     Davidson diagonalization with overlap
     ethr =  2.56E-08,  avg # of iterations =  5.0

     total cpu time spent up to now is        5.4 secs

     total energy              =    -501.67160907 Ry
     estimated scf accuracy    <       0.00040250 Ry

     iteration # 13     ecut=    30.00 Ry     beta= 0.50
     Davidson diagonalization with overlap
     ethr =  2.56E-08,  avg # of iterations =  3.0

     total cpu time spent up to now is        5.5 secs

     total energy              =    -501.67163749 Ry
     estimated scf accuracy    <       0.00003364 Ry

     iteration # 14     ecut=    30.00 Ry     beta= 0.50
     Davidson diagonalization with overlap
     ethr =  1.31E-08,  avg # of iterations =  2.0

     total cpu time spent up to now is        5.6 secs

     total energy              =    -501.67163937 Ry
     estimated scf accuracy    <       0.00001285 Ry

     iteration # 15     ecut=    30.00 Ry     beta= 0.50
     Davidson diagonalization with overlap
     ethr =  5.02E-09,  avg # of iterations =  2.0

     total cpu time spent up to now is        5.7 secs

     total energy              =    -501.67163936 Ry
     estimated scf accuracy    <       0.00001002 Ry

     iteration # 16     ecut=    30.00 Ry     beta= 0.50
     Davidson diagonalization with overlap
     ethr =  3.91E-09,  avg # of iterations =  3.0

     total cpu time spent up to now is        5.7 secs

     total energy              =    -501.67163984 Ry
     estimated scf accuracy    <       0.00001791 Ry

     iteration # 17     ecut=    30.00 Ry     beta= 0.50
     Davidson diagonalization with overlap
     ethr =  3.91E-09,  avg # of iterations =  2.0

     total cpu time spent up to now is        5.8 secs

     total energy              =    -501.67164089 Ry
     estimated scf accuracy    <       0.00000437 Ry

     iteration # 18     ecut=    30.00 Ry     beta= 0.50
     Davidson diagonalization with overlap
     ethr =  1.71E-09,  avg # of iterations =  2.0

     total cpu time spent up to now is        5.9 secs

     End of self-consistent calculation

          k = 0.0000 0.0000 0.0000 ( 11324 PWs)   bands (ev):

    -5.3525  -4.4575  -4.3125  -4.2362  -4.2085  -4.0792  -3.8448  -3.4153
    -3.2818  -3.1922  -3.1392  -3.0454  -2.9829  -2.8643  -2.8341  -2.7525
    -2.7286  -2.6117  -2.4902  -2.1167  -1.9960  -1.9538  -1.8274  -1.7566
    -1.6174  -1.5482  -1.3939  -0.9555  -0.8810  -0.7137  -0.5270  -0.3727
    -0.3397  -0.2057  -0.1361  -0.0023   0.1164   0.1599   0.2160   0.3022
     0.3994   0.4386   0.5084   0.5534   0.7097   0.7588   0.8693   0.9748
     1.0276   1.0879   1.1394   1.2957   1.3870   1.3944   1.4946   1.5413
     1.6214   1.7410   1.7974   1.8793   2.1769   2.2931   2.3541   2.4638
     2.5431   2.6139   2.6477   2.8037   2.8281   2.8848   2.9388   3.0811
     3.1202   3.2004   3.2895   3.3810   3.4432   3.4751   3.5973   3.6221
     3.7087   4.1047   4.2330   4.2847   4.4369   4.4970   4.6013   4.6519
     4.7203   4.7456   4.8108   4.8413   4.9503   5.0275   5.0753   5.1827
     5.2669   5.3219   5.3731   5.4366   5.4837   5.5620   5.5896   5.6401
     5.7289   5.7315   5.8069   5.9033   5.9231   6.0067   6.0301   6.0669
     6.0970   6.1726   6.2208   6.3227   6.4174   6.4603   6.5417   6.5919
     6.6813   6.6914   6.7767   6.8773   6.9597   7.0074   7.0691   7.1177
     7.1531   7.2317   7.2781   7.3182   7.4181   7.5019   7.5349   7.5643
     7.6512   7.7690   7.8748   7.8956   7.9495   8.0267   8.0971   8.1757
     8.2296   8.2450   8.3107   8.3297   8.4461   8.4619   8.5614   8.6021
     8.6577   8.7464

     the Fermi energy is     7.1406 ev

!    total energy              =    -501.67164076 Ry
     estimated scf accuracy    <       0.00000060 Ry
     smearing contrib. (-TS)   =      -0.14640561 Ry
     internal energy E=F+TS    =    -501.52523516 Ry

     The total energy is F=E-TS. E is the sum of the following terms:
     one-electron contribution =     188.36851030 Ry
     hartree contribution      =      23.91570494 Ry
     xc contribution           =    -151.02642254 Ry
     ewald contribution        =    -562.78302785 Ry

     convergence has been achieved in  18 iterations

     Forces acting on atoms (cartesian axes, Ry/au):

     atom    1 type  1   force =     0.00598706    0.06637057    0.01891892
     atom    2 type  1   force =    -0.00669591    0.00830704   -0.02299898
     atom    3 type  1   force =    -0.00881924    0.00929710   -0.01316872
     atom    4 type  1   force =    -0.04760108   -0.01391708    0.04793215
     atom    5 type  1   force =    -0.04966831    0.01635957    0.05569641
     atom    6 type  1   force =    -0.02089044   -0.00413862   -0.00278640
     atom    7 type  1   force =     0.01025068   -0.02455304   -0.01638111
     atom    8 type  1   force =    -0.00637570   -0.00039930    0.02261707
     atom    9 type  1   force =     0.00324436    0.02466951   -0.02697092
     atom   10 type  1   force =    -0.00846634   -0.02619082    0.01053474
     atom   11 type  1   force =     0.01671054   -0.00040177    0.00542562
     atom   12 type  1   force =    -0.01891528    0.02126020    0.01702863
     atom   13 type  1   force =    -0.03465821   -0.04974173    0.01595054
     atom   14 type  1   force =     0.00211699    0.02939408   -0.02140451
     atom   15 type  1   force =     0.01869038    0.00393761   -0.06134807
     atom   16 type  1   force =     0.00411822    0.00295870   -0.00112234
     atom   17 type  1   force =     0.00315160   -0.02794538    0.02038731
     atom   18 type  1   force =    -0.01959747   -0.01021565   -0.00981105
     atom   19 type  1   force =     0.01363053    0.00204135   -0.02314660
     atom   20 type  1   force =     0.02282487   -0.00603350   -0.02485346
     atom   21 type  1   force =     0.06068197   -0.04995877   -0.04417037
     atom   22 type  1   force =    -0.00720127   -0.03048302   -0.00987679
     atom   23 type  1   force =    -0.02970020   -0.00115530   -0.01830216
     atom   24 type  1   force =    -0.03101521   -0.03395950   -0.01412710
     atom   25 type  1   force =     0.00995235    0.04487718   -0.01694051
     atom   26 type  1   force =     0.00377799    0.03344810    0.06904191
     atom   27 type  1   force =     0.02967544   -0.00338340    0.00589157
     atom   28 type  1   force =    -0.02984772   -0.02170290    0.05032764
     atom   29 type  1   force =    -0.00104817    0.01054471    0.00591243
     atom   30 type  1   force =    -0.01207393   -0.00449359    0.03324885
     atom   31 type  1   force =    -0.00149711   -0.00801887    0.01423308
     atom   32 type  1   force =     0.02371071   -0.01094897    0.01372598
     atom   33 type  1   force =    -0.02177245    0.00885915   -0.01629572
     atom   34 type  1   force =     0.01172113   -0.06943518    0.00277638
     atom   35 type  1   force =    -0.00570132   -0.02134651    0.01962991
     atom   36 type  1   force =    -0.01523235    0.00984202   -0.00033603
     atom   37 type  1   force =     0.00003009    0.02194153    0.02313248
     atom   38 type  1   force =     0.01768352    0.01392857   -0.04493135
     atom   39 type  1   force =     0.01597071   -0.00830224   -0.02829987
     atom   40 type  1   force =     0.02872904    0.01054556   -0.02922513
     atom   41 type  1   force =     0.01604778   -0.00746891    0.00263047
     atom   42 type  1   force =    -0.00745624   -0.04038758    0.02489048
     atom   43 type  1   force =     0.00286294   -0.00479092   -0.00834421
     atom   44 type  1   force =    -0.03425946   -0.00731666    0.00014547
     atom   45 type  1   force =    -0.01332377    0.01718786    0.00991945
     atom   46 type  1   force =     0.01757456    0.00404690   -0.01116061
     atom   47 type  1   force =     0.00289013   -0.01960171   -0.01923488
     atom   48 type  1   force =     0.03494655   -0.02403732    0.00496088
     atom   49 type  1   force =     0.01468058    0.02885923    0.01472731
     atom   50 type  1   force =     0.02273539    0.00099418    0.00193976
     atom   51 type  1   force =    -0.01018942    0.04184477    0.03793937
     atom   52 type  1   force =    -0.01508844    0.01837596    0.01787491
     atom   53 type  1   force =    -0.03347450    0.01189550   -0.00569000
     atom   54 type  1   force =     0.00707739    0.05970120   -0.04159647
     atom   55 type  1   force =    -0.03270474    0.00317899   -0.03574336
     atom   56 type  1   force =     0.01353140    0.00171375   -0.00184652
     atom   57 type  1   force =     0.01444738   -0.03094195   -0.00428034
     atom   58 type  1   force =    -0.01867609    0.02254879   -0.00643640
     atom   59 type  1   force =     0.01446743   -0.03473656   -0.02350687
     atom   60 type  1   force =    -0.01596273    0.01992185   -0.01395142
     atom   61 type  1   force =     0.01287449    0.01506957    0.03402982
     atom   62 type  1   force =     0.00983485    0.03099094    0.01054018
     atom   63 type  1   force =     0.07872776   -0.04233237    0.01575085
     atom   64 type  1   force =    -0.00744374    0.02342709   -0.00947232

     Total force =     0.340909     Total SCF correction =     0.001514


     Computing stress (Cartesian axis) and pressure

          total   stress  (Ry/bohr**3)                   (kbar)     P=      -32.91
  -0.00023456  -0.00007239  -0.00000808          -34.50      -10.65       -1.19
  -0.00007239  -0.00017984   0.00001768          -10.65      -26.46        2.60
  -0.00000808   0.00001768  -0.00025667           -1.19        2.60      -37.76

 
     init_run     :      1.03s CPU      4.06s WALL (       1 calls)
     electrons    :      1.63s CPU      1.78s WALL (       1 calls)
     forces       :      0.03s CPU      0.03s WALL (       1 calls)
     stress       :      0.14s CPU      0.14s WALL (       1 calls)

     Called by init_run:
     wfcinit      :      0.51s CPU      3.41s WALL (       1 calls)
                                        3.41s GPU  (       1 calls)
     potinit      :      0.04s CPU      0.11s WALL (       1 calls)
     hinit0       :      0.45s CPU      0.47s WALL (       1 calls)

     Called by electrons:
     c_bands      :      1.07s CPU      1.16s WALL (      19 calls)
     sum_band     :      0.29s CPU      0.32s WALL (      19 calls)
     v_of_rho     :      0.13s CPU      0.21s WALL (      19 calls)
     mix_rho      :      0.13s CPU      0.14s WALL (      19 calls)

     Called by c_bands:
     init_us_2    :      0.05s CPU      0.05s WALL (      39 calls)
     init_us_2:gp :      0.05s CPU      0.05s WALL (      39 calls)
     regterg      :      0.93s CPU      1.02s WALL (      19 calls)

     Called by *egterg:
     rdiaghg      :      0.39s CPU      1.00s WALL (      86 calls)
                                        0.99s GPU  (      86 calls)
     h_psi        :      0.89s CPU      3.24s WALL (      88 calls)
                                        3.24s GPU  (      88 calls)
     g_psi        :      0.00s CPU      0.00s WALL (      68 calls)
                                        0.00s GPU  (      68 calls)

     Called by h_psi:
     h_psi:calbec :      0.48s CPU      2.78s WALL (      88 calls)
                                        2.77s GPU  (      88 calls)
     vloc_psi     :      0.35s CPU      0.41s WALL (      88 calls)
                                        0.41s GPU  (      88 calls)
     add_vuspsi   :      0.03s CPU      0.05s WALL (      88 calls)
                                        0.05s GPU  (      88 calls)

     General routines
     calbec       :      0.49s CPU      2.78s WALL (      93 calls)
     fft          :      0.55s CPU      0.64s WALL (     159 calls)
                                        0.11s GPU  (     101 calls)
     ffts         :      0.03s CPU      0.03s WALL (      19 calls)
     fftw         :      0.42s CPU      0.55s WALL (    2011 calls)
                                        0.48s GPU  (    2011 calls)
 
     Parallel routines
 
     PWSCF        :      2.86s CPU      6.08s WALL

 
   This run was terminated on:  10:54:14  10May2023            

=------------------------------------------------------------------------------=
   JOB DONE.
=------------------------------------------------------------------------------=
