LAMMPS data file via write_data, version 23 Jun 2022, timestep = 1000

64 atoms
1 atom types

-0.5585543378913718 11.419954337891546 xlo xhi
-0.5585543378913718 11.419954337891546 ylo yhi
-0.5585543378913718 11.419954337891546 zlo zhi

Masses

1 28.0855

Atoms # atomic

44 1 3.9426538195687026 2.9229695557567354 -0.48367834033205637 0 0 0
25 1 2.287578063135542 1.4659869327216044 1.467343235088359 0 0 0
53 1 3.6035555023192396 -0.0889155311711407 3.050745255329505 0 0 0
32 1 2.8625448301897993 2.292063587232632 3.778799590235626 0 0 0
49 1 0.3629110848047602 0.5281983828573149 3.421782803976151 1 0 0
55 1 -0.03190612561895623 3.9573367131665256 4.994736494185438 1 0 0
45 1 3.012745813051532 3.6071530786693105 1.5961277872819952 0 0 0
16 1 4.23198890315277 1.3372225171759826 5.117496674951636 0 1 0
24 1 1.1558151689990097 1.8755336678131815 5.153689644800377 0 0 0
52 1 9.84767905665213 3.7458375360774117 0.297811737711017 -1 0 0
42 1 8.74186225297871 1.8575992751955681 1.684487437549432 0 0 0
40 1 10.768509604137375 2.745937121650438 2.5342790666068025 0 0 0
18 1 6.52866835320503 5.341944389114824 1.0496279435212341 0 0 0
4 1 9.726734360227049 4.601873863937818 4.040086942065551 0 0 0
34 1 8.604430722358352 -0.4206697076317847 2.6061890688165716 0 0 1
13 1 9.202162770626874 1.3202138673596793 3.9558783603112158 0 0 1
5 1 1.7181892982288218 10.565163338208421 2.797409452979775 0 -1 0
17 1 5.315999959639303 11.34280255803975 4.427226153467141 0 -1 0
41 1 3.940693497612929 9.604336024990854 3.0143605797350963 0 0 0
7 1 4.374975364698106 7.763286289434618 1.1739082573660362 0 0 0
64 1 4.336317172970519 5.465336033192654 0.46015511775132123 0 0 0
27 1 2.6792620052470686 11.10274787645773 0.8086258366026344 1 0 0
3 1 -0.12049074489030104 10.262917289009227 4.169564205195961 1 0 0
29 1 7.76479524698721 11.330161807379302 5.140377600044399 0 -1 0
47 1 8.627410957311984 5.442072556458225 -0.38969716199718263 0 0 0
57 1 7.658177306490541 8.977341137290228 3.7240568272979218 0 0 0
12 1 8.158479664376351 5.796036067903855 2.8133260684586867 0 0 0
50 1 6.540692763836443 7.5429797765045885 2.443672013563323 0 0 0
28 1 6.15977449301234 9.595109052214866 1.6415739736432746 0 0 0
62 1 10.136698532872845 9.14612013368874 4.951408788528753 -1 0 0
6 1 8.438724843972409 10.023953841444776 0.6088158738497262 0 0 1
2 1 10.082375762769903 8.850356832943394 2.4319066723878238 0 0 0
60 1 9.59182410239029 7.128767494739202 4.140957183058016 0 0 0
8 1 4.679626622833253 3.562466423847428 9.095079962420911 0 0 -1
56 1 1.802107077941772 2.3969858693048174 7.389368767318024 0 0 0
43 1 2.3820455284857083 3.5676656673943024 9.348565139291285 0 0 0
48 1 0.2801853499999625 4.032263774895787 7.621504558044724 0 0 0
51 1 0.4997873150143155 4.927879076616145 10.066115944489372 0 0 0
33 1 4.328322637128859 2.272112696304191 7.200428212169859 0 1 0
19 1 2.625587032623119 0.7373257740943904 11.419299770318627 0 1 0
63 1 8.499603127385665 2.2483325443129267 11.228596158052895 0 1 -1
21 1 6.190132091613695 1.071252465247588 5.944475027444714 0 0 0
37 1 9.268637926546592 -0.010420108668237171 10.803231088469776 0 0 0
31 1 6.296223462997807 2.5332438702713804 10.479110119493548 0 0 0
14 1 8.010353255068257 2.2588598503675046 8.555311971109091 0 0 0
39 1 10.558368162669279 5.217395160205579 6.294405831120791 0 0 0
1 1 8.38665105608305 -0.03850932412791108 8.758922466316474 0 0 0
15 1 10.023520063513274 3.019674933302475 8.315227908886765 0 0 0
36 1 5.9709885363591155 4.9596605610376026 10.850585358974044 0 0 0
35 1 10.119057507742774 4.880816487449836 9.909475018263763 0 0 0
58 1 6.012167073893323 0.4440297838039744 8.177352381094444 0 1 0
26 1 -0.30346233980207216 6.245682998845985 8.311444913039914 0 0 0
20 1 4.629585903614355 8.920639249828863 11.04188309344454 0 0 -1
23 1 3.075888740639869 7.293430725250977 11.106595332505346 0 0 -1
46 1 -0.43883219149788183 9.84927525350021 6.530100010535916 0 0 0
59 1 0.8042804305555078 9.474767401661119 8.505456455134716 0 0 0
9 1 -0.5227356407055836 9.404662270617752 10.316671178993019 0 -1 0
22 1 1.1933559404457765 10.966139758911204 10.339445752199165 1 -1 0
61 1 0.7911855488531725 7.412127050161969 9.78249153048495 0 0 0
54 1 2.9287998865328313 9.386162071041031 9.599129510700482 0 0 0
38 1 4.956830701262226 10.921140579372736 9.763347723622744 0 0 0
30 1 7.177880603845702 10.558122971479595 10.496394515800908 0 -1 0
11 1 11.12712611083888 7.507234348138568 6.1736434953572035 0 0 0
10 1 9.158638323191763 10.011747630372128 9.689463671255385 0 0 0

Velocities

44 4.235859587401924 5.298826014444129 -2.266160875489976
25 -4.617115828594006 2.689990872957182 9.036968684790487
53 -1.9635376550542007 -0.7117280676312256 13.465808153370489
32 0.14812654489781418 -0.6115969474476171 -10.171217982058058
49 1.3514302850087192 5.0584602594368375 -0.09678354707367869
55 -2.061118995285355 6.459231491996356 -2.3343216153744555
45 8.031955507781317 -11.458680104129284 -4.685017766349766
16 2.0574312836298647 -2.6372014410255766 -11.691512032556576
24 -3.9490268212032724 5.460268620477693 17.543334269328422
52 9.252731226547105 -3.5848083240256097 -9.079806927292223
42 -12.262653548353308 -13.654935011034652 -9.620017667197706
40 1.2005258642106387 3.2687102562447365 3.574024649615572
18 -5.7200867494822685 2.966033713718215 2.2388499819529937
4 1.6809072645154073 -10.502235078040371 0.316225834614996
34 -4.805030274066153 11.903929534243847 -7.465372297854225
13 8.420539465652197 14.1149391496884 -12.211531946732082
5 -9.507394953540622 -5.600454606985197 -5.11594160338909
17 -1.3822029010924357 10.755709164060429 5.772051953857742
41 -1.2838696545376396 1.1182762500446808 2.025763913863445
7 0.6452129269962614 4.837511228684283 3.8258716664152677
64 -3.1912309256373095 -4.421133021809348 -6.340604676671813
27 -2.586033588869039 -8.22594740147349 12.18330656056206
3 1.2690043011704035 2.35994333769861 -6.7807532221919
29 -2.674981035879461 3.3455512610943265 -6.2710935262155525
47 -5.479094920856792 -11.1577555151578 11.107115835193168
57 -1.5826725010961926 -1.73784382021596 8.506799846835309
12 4.996165316051975 12.90090350890035 1.6197177976012336
50 15.424473473380338 -0.28450204134684726 -1.985483999435806
28 2.533647029050491 -2.8506752564310798 3.490952892859035
62 -2.7119990133522043 -11.79915848174718 -6.886302820272462
6 7.969998524201129 -7.034990720739621 15.78139367879201
2 -5.689099657102861 4.218666222699181 -4.444189017889209
60 9.24728256558845 3.8660218250261726 4.222943585550714
8 -6.6487686753288555 -16.46738434893279 4.863060568289077
56 -1.5836561653973538 -4.0038890039026676 -4.372589770182765
43 -2.3390268298250296 -2.8187124534249213 -3.707851971496313
48 5.861004960208767 17.21668846523397 -7.550143899403989
51 5.847276162788928 -6.196081356276097 8.564317348211421
33 4.757549241063473 11.692444763746137 -11.134513491556628
19 -11.575142365484723 2.1126569348515734 4.806595979291963
63 0.6035833606499948 4.638932442680011 -4.600611371384339
21 -5.9790655409978335 2.3585860195961184 -8.261746325455835
37 0.03592550938706755 -2.032621344526518 0.3540963976105056
31 4.6272721189064185 3.93964697738096 -2.1053484732209187
14 2.8433396003087594 -7.84844646065361 -4.045292728603385
39 -11.565352495935969 7.081141640559526 6.755403852195104
1 -12.798454838194617 -11.795032733600957 -7.194316048180181
15 4.317906105431728 -10.27552132066847 7.482280542280234
36 -2.6957084008029284 -2.9114992140831837 -7.364744792732311
35 7.989058854102601 5.2701926604523415 -2.2236704940421537
58 4.294123964590351 12.585018253666764 6.39787664234216
26 1.4972497199060424 -0.7044727391803189 -0.3243492692343884
20 -0.3787770045085065 -12.148698062301175 -1.2532575384772318
23 7.917105914396145 0.7425804981623995 8.325434505167005
46 -3.035901575769345 -0.5277707340790077 5.16321049731678
59 -7.228536504829437 3.9396618243943955 4.963963757952421
9 7.949870941647837 -2.8993951211306284 12.434458285856675
22 -4.220523958952975 0.4156268185204849 -3.563933589333266
61 2.7145696655807416 12.92767794346084 5.210346497297452
54 -3.153160702073409 7.361901766840006 -2.208026911380565
38 -0.3983322683146635 1.0308659261582285 -15.970915747941493
30 6.569520998341095 4.79129220413609 1.4006684595852676
11 1.1836994978297883 -6.194484910259505 -3.184402825223992
10 -2.40679143080482 -15.630232208994927 5.078984133295304
