2.2395152282762214 1.8101030764115118 7.068783821194802 8.442677578040565 6.124367157306434 4.782370300484498 9.734204382330738 3.4680924667236477 8.54740591351072 4.978503223908917 7.8246548459874585 0.620439623052536 10.613387718616933 10.022694363068803 1.568370682406712 2.388457624349475 5.314616672616047 6.278288370485544 2.447380842445747 0.16298049560868072 2.3631414217177378 10.086195928199373 6.952831500205574 10.179050867223603 5.338374289023343 5.539789087986149 8.239130546534598 8.511309489493257 6.923521420373703 2.4707271652660365 8.718038634540793 0.7735458255184489 0.4040667257412638 3.467919290476488 9.374203435030942 6.5422630887349875 9.077087112481207 0.2594699711201873 5.81963107988165 6.089970025214231 8.097807905336396 7.484677402265565 1.0638249333599874 2.2214399574788715 9.026985059474661 10.32363138657151 4.630462261178625 3.9491436107884517 7.384148590789046 1.252551325163672 7.173901803221067 4.17385061499431 0.6310650681673615 7.004210728034927 5.342487224893398 0.8972737600051716 0.43422753388730906 4.768104907124673 4.273286251410631 5.741907415453044 3.07612967830734 3.8586157275854363 8.624566755136053 1.6400981192773938 8.940126348008354 4.964876417960496 1.7836179341114424 10.145941733469655 9.35735122147916 7.116602112441923 10.116588359575996 9.712265116518624 8.26250933990123 5.0641280546142085 9.33679736564433 0.23762378754092306 4.08848554865976 0.20818057846904806 0.8495030922260194 5.440515804301542 8.145734431737992 4.6552048174916445 10.331359376601034 2.754368211083614 4.819798016902005 9.006842497226835 9.449686631761912 2.2166667871665173 5.368496132513777 0.033187063065170455 9.786871608498346 4.28940246591198 6.1785713226675885 10.601189616707583 8.990758753271828 10.462064149145226 7.6116913560421535 2.2126620864509365 10.008840263295983 7.5430053270122235 7.962351609510744 0.7262275806850027 6.336908530149286 7.635016031831548 3.201909751322912 6.386707524723302 3.25997791169883 6.999221087413623 8.079591928838227 7.816071798237578 9.329664668964417 0.7980383586246305 9.718661814148106 7.035631393379064 5.877504416979512 9.759314938168972 5.808233918115416 5.275976722468419 4.836130701712305 2.1198071474267057 9.918442262278338 7.014644596926332 7.514193128890938 6.314579617781062 6.014963063162952 5.748314936597973 3.3391194566510594 6.565100706329244 1.8003510889933008 1.3700081148001046 3.464282589286123 4.939192215803542 1.7715064203256734 8.205740001379015 2.1883632942712654 1.3323639280736477 4.854952795075533 2.320951358503324 2.217456903794186 6.423594065368434 4.165170155605403 6.288527416098894 5.963789482127102 10.405565398509198 2.9666389960402784 9.006853320742284 0.5006806716804169 10.015074608193752 0.6229636668548965 3.5171987563090235 3.578286677494798 3.6002042962760155 3.3545537896792155 7.062636064420613 9.938444118825347 1.5561292864355727 8.734144025526696 9.650040726210861 7.996175095284229 5.157264405040075 2.440258969281282 1.9237499886104192 2.9610648855848085 2.281965055861375 1.0017812957601973 6.523365230763626 3.607217934286006 4.126584323035012 5.213221979903727 1.4338452089095484 4.788842762722112 4.124452090491852 8.300456585060218 4.237850061835466 0.3620844740234427 1.1100056267198997 5.613150875689406 7.169161103455056 0.899354039674184 3.2213704320975434 9.537508636103048 0.9855276226126641 8.72419721483043 10.365972979002187 8.004855554673135 3.9551506618618224 5.46626494755118 2.478346920141087 9.313624219071201 1.0972771725536221 2.232469119719889 2.6536553998444874
2.2692651071526018 0.35255211629949895 10.348206242816596 1.134368823538861 10.197594413935228 6.8889472517284105 0.9820625291669408 2.678167541451784 1.3778685693569142 5.344961725038967 5.132494213626356 1.9001089872459422 9.701408325994962 10.24052746628015 8.968722326980362 4.663549240803331 4.5831665231419265 8.352132488197169 2.0921813757631926 5.1993058231111595 8.615291110556063 9.927754630627854 1.8866917215911816 8.305012721507886 6.923759616670492 1.392945136497235 9.541478035790712 10.483016246954683 6.14681092637221 5.722601161149948 7.565249966488647 1.0710846033048176 0.8484942539551336 2.6868376664326243 7.952043032649107 8.037238823493793 0.7727235153234614 3.033291025616323 7.332310410919754 4.940861375171505 9.653662200466758 4.239691115630988 7.210697897405228 9.802230121557967 5.896783862127517 8.497557626342216 7.802310303892539 6.092042988597168 7.2551473974654295 4.967410198940467 3.7567135070658417 10.59865087962057 0.8675025964036227 10.914061015647265 3.9108417364464105 10.005203351622738 8.75043077724095 8.297155764142486 7.199544314571828 2.630289550904861 6.167887351864291 2.9171399216271165 1.7070915660945316 3.7540652179398815 1.640994225461128 3.595321712904113 7.524393788188564 9.49092977861471 0.6051373619073606 0.5658064223238064 1.838429124739659 4.975519897591747 7.170072482887905 4.860203938721101 7.7862337603602585 3.3655579065360612 2.8823055791819145 1.582534067161925 0.2916557517794437 8.521952654805418 8.340319580270167 2.42652513072777 9.405722999018465 5.0469028277255115 6.290642695541059 7.829903059059701 7.330222548123355 10.713043783360176 5.112263922004395 9.256275977802458 6.87782663514969 8.415691427220212 4.260866439887109 7.038372295441299 0.6400662076159783 7.374419306897677 4.552244176252085 0.9767648520398645 9.823943894640529 8.971755222410922 2.7582645515726285 10.098849492417063 1.6000171708938862 6.384860251416503 6.390332649693383 2.96828157138736 2.344801785376046 8.216553271449882 8.230838648477883 9.784703062819766 2.7585172928585084 2.5562473428935775 1.1403467043875013 6.239852685830735 3.8963915281450094 10.009159302184338 0.7104579523590301 5.122230719669315 8.282244028275565 1.5694794303086443 9.877821743539211 9.045226015341086 0.4223625560850267 5.529045291172097 4.640011334961809 6.069614946663205 7.200797032249667 5.975540244558041 1.00468617087867 4.312436650958191 6.574657968360833 9.10800475300337 4.5824192880358465 10.181067331588986 6.417452888543465 1.6888612272564907 3.3635909200068204 3.4393693507645846 10.461489282648643 4.595539857398487 1.991392546454867 1.2769039200236285 9.593938335738155 0.8454415787717655 5.483518893459014 8.345044743440969 10.06766341548978 0.7761542035604938 0.7380704872789997 2.851493119807673 2.7615391995375083 10.093278195376143 2.7278696647576663 9.525731154805232 0.14194609940115163 4.392017189755716 7.456285506019681 1.9750852391398261 5.20585511904092 3.7883940778133236 3.5204993035320693 4.8932471146620236 5.061737642331512 2.2941436406844433 6.542548836302511 8.464701259177815 3.4785662275791065 1.8488244837154195 6.456649765357987 0.8941832851913041 3.3357344348022195 5.044265527351111 6.522373488438351 3.72460437500752 9.28963782753862 6.901870023562971 8.5449521118205 10.828997089821302 6.612338397460075 3.34387709970818 8.284859351146846 2.832075995801152 7.292915736577152 10.440808452212721 8.647180467583183 4.746206630037655 4.176033277843904 6.864167616960609 5.974606200675441 9.267462526890538 6.462539736194147 10.858688696536424
4.357691905336346 9.791089573108524 9.155802609341796 9.638726829436413 10.275003302885851 3.2228004153949996 3.0803001473516796 3.675560900766062 1.5830632600804917 6.604433445464458 5.340372883864462 4.293199796235626 7.383873484656617 1.3696336331324341 8.266624858963587 3.326100876777033 5.728086699763175 7.847942652115819 2.212086953767634 1.5710586590946216 10.384545286881915 0.0380178319084213 0.06627757602271243 6.60494451090498 4.745492711097276 6.75014146467701 9.115395818342257 0.9510753868383239 7.394518869045355 1.7857387653120407 2.163111661339773 1.1741565389992963 2.3160507128490675 10.437359006980076 7.6029357051831905 9.700152545894003 8.080140341837074 4.869779476739027 7.999631224355752 4.2852076026444905 8.71184984752015 1.929576502486939 1.4928112780309257 3.3350934537836583 3.556689254047285 8.487774836183355 8.723810953574912 9.064387137885086 7.828641776436545 2.2634000987425615 1.5611853097330548 10.581501208672734 0.05134576617325898 0.9999375924453033 4.174208538456302 1.3630441510695381 7.637590291543669 9.76727609832677 2.258409055397893 7.891557194284591 8.15454929523047 4.899258166297626 2.291758793825124 5.274282336045514 2.3943742100422027 5.386086056459206 9.54960571559566 6.993919679805832 1.9634481800874688 1.401374059108661 5.079218443757905 1.9988856752078945 3.1667463229292756 3.757907679086708 9.789436765726412 4.5250060315769085 1.4052016130461848 2.7930052536490795 3.3926916163037246 8.045344396950496 10.748771839982188 9.302173926253749 8.86365803082063 6.176421575893976 1.1951863381901229 6.660911613508488 7.7320504081779555 5.310133033011469 6.592298359685263 6.1057966815069955 6.387241506975539 4.269038362005008 6.380880373300962 6.131404322196963 10.851909195372565 5.932023557996863 10.723610022336079 0.8488818714529952 9.589175229171369 7.9423592738189965 7.124317483268289 3.583656111334384 10.375096013098654 4.6112782274300725 7.016036852274364 4.431655035685882 0.5870554346608164 0.287249224024936 8.458731095935837 0.150808887258269 5.4525028162614655 1.2915384843276172 3.9420217224678225 6.054864117179266 1.6016682168620349 9.277436184185946 0.5911113369866583 6.5010677416857625 9.483275945655619 10.46812079700637 6.068380167021147 10.851800458044794 1.4317987634188638 9.657473144744058 4.2445398420583 4.111488847798242 6.29242255715961 8.062285672617149 7.983733827035696 9.114960869031174 5.374820869302176 10.538169383556165 0.34380242082512713 7.38692900356697 5.671902122504126 0.8390879003407008 5.170438188024629 9.620284978646527 6.562449963212245 4.89481080959181 9.78892570028589 1.9588268436572198 8.47257335776103 3.7944869161487254 2.7569153345620308 7.616854083137823 5.680046548354142 3.5052238768134782 0.5972408601530849 4.893712562581328 2.7153233066897906 10.116660006186361 7.25492188765351 0.9430473099290235 10.533830764178118 3.5408462253911144 5.428711088945266 3.2156781204260283 8.69112451284708 4.684230100631342 4.162965098764826 3.4052833988595554 2.940333459045413 2.7426489971585326 5.636627733375356 0.5115308362844955 2.7551102949210393 1.095354597563971 8.394782673473971 2.53976689100422 5.921791375453652 6.193036639577317 10.0828970659136 3.658380402978314 8.801057951223118 6.336026225595605 5.869119013881593 9.353530566159787 2.854115631856135 10.505733038682207 1.469595858551911 1.6035167514341342 7.736813103134305 3.9957379623864795 5.780476344283031 1.8068120594339754 6.673503396064319 6.1897745197442005 1.4241327818110394 7.829772644645358 1.4626584170401493 3.7081168567005682
8.45003848939471 10.68027710948147 2.0295872693507886 1.1928448943247802 3.761230095284979 1.053380935462449 2.0723592075768096 9.531282163027411 8.135433896923681 8.436187698808281 6.660509812236099 9.870811645162231 7.341572349986794 1.639467556819305 6.418066532042013 4.2094534387670866 7.734131195451737 5.297644285665621 4.358578106283726 2.9516448521163277 10.532001782897018 3.446614613827638 0.5609809745203193 9.883039976788458 10.529671539826658 7.18808119895981 8.292583747350855 10.447786362774805 5.159844163911471 10.601876408048845 1.3499729667793343 1.0578987758825042 2.6547348623991875 1.2350941612079174 2.286393122487878 7.340810120945088 5.33006079791075 7.677062018200572 9.980899296757208 1.7564261587759482 9.521863189869185 5.56943338396539 2.6374758190977 5.451832331816451 2.0334855264497995 10.504158644902125 0.307600796476383 0.23476654484547368 5.61576602071481 6.41636785017764 1.012242345182941 2.507287098774301 7.507008718995945 0.5323995632536032 6.243124077984158 1.0187724702731 8.48987040131701 9.141118894550686 0.28218590242864017 7.3195983756130385 10.204352184826503 2.1810639579104074 5.443447812357685 5.144447137269008 2.976798410492628 7.150949755642413 6.583437567133304 7.923098663876985 2.6436716523081394 3.948542437791094 3.0350980431968337 2.803717973093797 3.077009751504358 0.3314411431036873 6.559536242182662 3.259552718006655 9.603214806591845 3.5126127598530745 4.094487521305188 7.123106617647521 3.1220030429376373 8.84454646340916 5.9620357853755745 3.8599060892269867 0.6869665461280248 5.250386085079844 7.294488373181979 7.4938657125196695 6.716490090856255 7.375317318561754 5.540131121804946 5.258792382511231 6.758695801794152 7.1812973604886245 8.7382590680364 6.409986904199929 1.9738901043746937 1.17402872598095 0.4417737968906429 7.8557393945627885 5.896451420829921 1.4033507776713803 1.1220991502681457 6.756637783381546 4.450176259124177 3.0977968263703137 3.9629921226245792 7.986799233790993 1.802116345333073 2.675674383073485 4.86271639446813 10.73044266941204 5.426722329385391 2.3608955668214926 7.206625142645888 4.557726776908906 9.208336607042853 6.661348264181975 2.074014333495943 0.6175253026313385 4.906403007544198 0.3240888995471166 2.9176929928014763 2.741628973153681 6.1789661706451255 6.220268095719285 2.6517295021776035 7.617706153824288 8.916664219740865 8.679992102291127 2.864119180155849 10.40213973216292 10.443071431702538 7.290415892302005 0.9430047257302533 10.025696586436906 0.21453807497722524 3.671570182007723 4.49178307581502 9.442471590682342 0.017128375465766704 2.3367002392404794 5.409158394467221 9.55884218737824 9.744836962540834 7.333449166199469 5.7085184061041305 10.459481134071838 10.134172668057992 5.724971664418671 6.20211615554037 10.631930010264684 1.131921015919844 0.028762168439463554 8.38725259433075 3.022249039350931 5.1006298563572186 5.190768885032118 10.074283243352514 6.0971136605522025 4.299690468318777 2.4276450529023252 4.27520113810739 1.852390795126744 5.099682514548241 7.402376449542319 9.513380669533626 4.182895201156784 4.73736238406641 4.910148818834869 4.236523458733962 6.3024254974288905 9.40731105388707 8.38865727356475 8.923927173609693 4.603558520288061 6.787998063954595 10.054693956980667 2.9914658750523158 8.356600097867855 10.642056767533067 9.888408247039331 8.638755511134828 6.7009079514465215 6.163394920221701 4.927124748492294 0.7335550740557316 9.120048706040668 10.804084883827159 7.046350153147718 3.7683732703043957 4.934594593101013
8.013705862619604 8.932232804940524 5.2981313401803325 0.0848830834168979 6.17040778006761 0.4670366830980046 2.406448717725473 10.654013366423616 8.449214233034915 4.748012074558479 7.403077604379706 9.691538130289839 8.621499797982025 10.266862236519462 7.416065536032825 4.963051391109546 7.822904893434561 7.22256055766582 8.191529759626155 0.5651151141333856 5.279485622246882 7.446461205511991 0.9923290178290867 0.4849830508655177 8.091666030962202 6.740714809019855 6.865555329324423 10.075355401483705 7.8210044853749485 7.9072721518067075 10.47153075480236 0.3937493466871278 2.977255282510531 3.7849069888963744 2.553073344130508 8.047630861352335 2.926139735444281 5.952979379098745 3.8029119978268695 1.1000104822765526 8.406884000941385 0.47638669075129564 2.4885572053753373 4.891411436999487 1.6290623671232785 9.055498701424272 1.0110920180885015 9.10548486312938 7.491582322584493 5.500584525639454 0.27776472794035134 1.4057046930084245 9.30475622252298 6.264917787740771 4.7500970936867395 1.5513085287985822 10.585783287346233 6.929224429058739 10.053799344350391 9.019238915646875 4.19439605810694 2.905180949415418 4.107911202182654 4.561945836310525 4.854272033777356 10.299256049329877 1.283926544548488 7.415088183316454 3.197550584780753 5.753458251788739 4.770762673900691 2.0871150068629003 6.396827826027096 10.808109311371583 2.658138761140485 2.1743708854856565 7.093723750698752 6.721721587898362 9.909270596548243 8.443111208294903 10.038650377246626 8.244437120005752 4.971988738727035 4.907624632616634 2.879900092485265 2.20366974802756 5.74785476288154 7.214687438561712 5.838563954435477 8.91947292225456 5.987197583646387 4.720483306380672 6.080176405397232 4.951138547444435 7.159043490576274 3.118211263160609 4.082565188404744 2.846756975925632 1.882946024412814 7.602131774280778 7.97529590086619 10.365683455619285 1.6651158228827745 9.912517579461523 2.809954216416917 1.4420404951082055 2.9524196640400584 7.5504189561100805 0.3261426014532968 4.465817766918038 3.1692507939044736 9.89995316731883 6.798052835047005 2.5346665346388373 6.274256935919435 1.5440543997481775 8.173242404355374 7.4606328198993825 3.2069874682310546 1.3137792402963357 9.185052233716677 2.708038047048583 2.748087789470577 6.391560980833314 2.160014660029616 4.004648457960652 10.574511152684078 8.039160471143779 5.445961368268892 10.295802736398695 3.022365540108406 8.253092121282958 9.32927691622929 10.25787059152884 1.0840416248384985 5.203176094047491 7.8817523864347745 0.9264348117438317 7.443724617906151 8.621825582220817 1.7637307119646972 2.8189350019329122 6.724979430286268 0.2852827422241764 10.198556141119692 5.839736777695124 5.967400761402543 5.217955839013959 8.704846265739294 4.903237404867586 3.833546575747815 10.793231831133477 2.480249707286176 9.590946816825921 9.219683098300122 3.3968979604967373 3.137671441691036 9.815053794689993 0.5379892324642154 3.814357884083047 5.503299394296042 5.948472697128809 7.970300542538067 3.2510986541633056 8.424899869346508 7.466442638824483 6.805285245148158 3.447633425951065 1.2906159809183222 2.689652956506165 4.49923237034333 5.015318042486189 10.35026300164986 8.114156002913381 0.7002960261771685 5.440075533021408 8.383394957324583 10.622586046854947 0.3033605096346683 7.341341491128882 10.024239854417456 2.292359077300995 0.2540052834053509 7.026861965424289 2.7483918547601154 6.121627020046027 0.7128007112094153 1.0996738385631357 9.757400843898678 10.701143486301993 1.2000479625345277 4.93742303099135
8.67923544597227 8.389893783725295 8.057483315688271 0.16929370624119255 4.884185613503017 9.693546619711801 3.2409882804610133 2.343853809007924 8.482151002886928 3.883932997721065 7.740432511364904 9.814339954947334 6.852681438203504 6.214444959569245 8.202622765410345 9.549443644066603 10.463282990269288 6.15123106719998 10.433225242039981 2.639270973556566 6.04469476368143 7.8538492385426935 10.646000138437978 0.49711171201207205 6.0643216132222095 6.343750613819092 4.754890985573136 7.594598403484928 4.4228884913748825 9.55659972572501 1.2139647493771217 2.277828205047142 4.325382743909086 5.280008447668706 4.134197382005946 10.394776464315992 4.517758948368631 6.263920057259965 2.4357251069707218 10.607992413512658 9.123022771993234 9.784458627837495 2.095022846318718 5.761241156296691 2.1391281261856396 7.920558474341413 10.87747567349955 7.872197034967333 10.101013247762358 6.120820476731737 0.21258303843057627 3.051126076953881 7.277139625322792 4.373567762163697 4.772169228961003 1.1101960521702214 4.603146770190992 0.41097630569596716 7.571443131554794 4.992849996775146 6.624160956893015 10.757178522662521 3.810354364583073 2.5651630770601708 5.349220658099874 9.852281521952854 0.544264666717798 7.921793422177687 2.072694548386089 5.314774434523808 3.2422783598971203 3.9451511261763526 1.5116312831989767 0.9098500236387227 2.295790080272946 8.293137826017235 8.085435036803933 0.22541657223985384 9.639032493796286 0.20455808275878987 9.68012758831229 6.11551681682774 2.8008616926690006 6.100664363832554 2.906372548430644 10.315144381516264 6.0842571997220585 4.52291926611306 6.091600728819901 7.121425934752625 3.4862797944408985 4.565469834864674 4.640691389677709 2.964183544016212 8.074794638036039 1.4289338834484986 2.235001978296361 3.843047403284429 0.9564362254981589 7.274592545410477 4.861912447170222 3.3420003976762307 2.069364599756136 1.566884172552263 10.983626055819265 4.085736705752166 10.873748777350794 8.502626879065145 9.704760387117966 7.055962673110146 3.1767158613749413 10.940469039469482 0.336328119521202 0.6949106606312562 6.184287974460237 0.01856942545597074 9.709424520463894 8.622086029584704 3.8302017405231874 4.899446040336972 10.995799113062535 4.191468087913144 4.214424886083877 8.01216514062501 1.9363320493575331 3.7612431354512554 6.423834775737456 7.683669016176177 1.991320307031618 7.960374515741277 5.827156497057804 1.3612322788527735 9.154348547018717 2.4405215561562494 10.364928216166051 9.633971412931556 9.455741976989327 2.01239160448804 8.191045129445278 7.154912868491585 5.52267569749651 6.03778126106229 7.057374042065887 10.712466795197429 8.146862665338588 3.32348720645209 7.471158751457381 4.599243452922769 9.203889802629236 4.781398258773156 4.393712848742914 2.9144107356863906 1.310654549165381 8.346086214497475 8.91934458956779 4.043252294920353 1.7968270491384597 10.41444741913664 9.362701889110054 3.9702139514607313 3.5813707778339814 6.881283712197202 9.650742445600955 2.4905479698453057 2.0071210235439425 10.489591789709907 4.464104875410521 1.6898607191412076 2.781069448328719 1.5740512805306377 6.098437047199274 3.8170804197627786 8.355480639109128 7.620774887085946 2.1784369568670336 5.711247821567534 7.556182704720839 1.1744133396564596 3.3159672562347797 7.192589803817903 0.7239198058317272 10.248005119238842 7.0659304663600695 6.184001290141103 10.766109841835572 6.201257480889036 0.12897706991483934 2.6015389066304144 9.18823242827648 2.921721185824333 9.987409073145136 2.716576502843313
8.570831847816144 7.902812890044599 7.229441062163758 10.31661540945009 8.643368045764275 1.3862117239927025 3.0772058286995594 0.06469066397356767 10.614645267391639 5.822608501223067 5.3363734397380895 1.1205448272508722 2.4397869108342527 8.87698182807918 9.306044817797998 6.984501846084672 6.959372204373964 9.349957584562887 1.741680762987301 1.698804380255551 6.621318690884661 3.2981479464443537 3.9573629821199696 0.31649886247434317 5.298208864827098 6.958902092029035 7.226780653666323 6.966797842549535 1.0334533100414742 7.212976445719795 9.458628326841637 0.26603550755773997 2.788417952084441 6.584094340663525 4.219974148619767 9.419288471068326 0.5632383951470743 5.4351504540303965 5.199880594136767 9.44594597790005 10.637242713062621 0.032612975492248654 9.939884471218965 6.235719724328752 10.412304640385937 5.058547728256979 10.049463385073146 6.5226271515641585 7.742889217797194 5.322184594418438 7.134371524773498 0.3110808176990453 4.82778667312607 7.523143749657672 4.559673055316318 1.5077998713855048 5.221067702772965 10.517609805649863 8.0322967879579 3.5452774586759457 4.001008639597966 0.1297488703258974 3.173365171980335 5.522495190843768 8.025779321357758 0.540913400948721 5.433879013824796 1.0808417028473878 1.4005501505130138 4.53056882741667 3.550598275670815 2.261550225877598 1.0120674720958298 0.9019425868592436 1.2208817597786232 7.6078067092306565 8.986154735817287 2.1574203414759943 9.951220589354621 8.348436655550662 9.36843086284427 7.358145000959338 10.43664363860745 5.103560985283857 1.575891370799769 6.99735514496987 7.997786268091579 4.443501884261666 6.050089454310954 9.503919377526882 5.369965103657508 4.27247715005107 7.122426397463731 2.5498573057763134 9.029746971437906 2.3227930431759765 3.7303414570055353 2.049262449028074 9.840573238352876 5.366877320301046 3.818626418508763 4.379662764694707 10.598394338377188 2.647726148493191 0.5634745197566859 5.15589303677155 8.89563674067565 8.649351293790634 6.578057670779787 1.229023250843062 3.4160927231639624 2.4611342850425846 2.0093135840806498 2.621752441435906 9.313192662315203 10.30646525654823 6.852293433445082 8.6879218748177 6.820101422188975 2.19172785828428 9.153386518154031 3.901643984874499 8.619007678799813 9.820005823262266 2.842085550006589 3.9843089669815384 6.833093617903354 10.08914514073368 0.008417147848510513 6.814812658308531 5.377967697892763 3.1163533657863107 0.11684642333191252 8.188320664616697 5.648196821254692 10.279700906001748 1.0420018756591352 8.64820806604274 2.7838877785787686 4.774183181432776 8.103540176957479 8.364527318992979 2.4666901582099183 10.584889292831978 3.652228017147119 2.668774360300205 7.3911490244475955 4.271280500445798 8.076658298324766 5.097022149940765 2.358884850020694 6.822398562056237 1.3000956898990306 5.6508679141236025 7.885974320598987 3.092366951823495 1.0593554318098723 10.180026404505488 7.936853297565993 8.442683496337297 4.7379417933873995 4.826034436204065 8.313381232739081 2.4915313218907853 2.311382134439991 9.162094280906679 2.358265156475107 6.749670045421544 6.615965820775363 1.6713669143061032 9.468928060944155 2.5062543857842194 9.072409666740143 6.503256386078821 1.9068825147436728 3.077430200500548 4.715643510117736 1.164564437730516 4.002290764175043 9.759062168365206 0.16608641771455473 0.5960725371288687 5.302065922929804 1.904051156302628 9.628050405330887 4.429772466915466 1.3931565654518696 4.283941480644433 2.529856162373912 3.837783496564588 6.331804277009198 3.093050751597936
8.84786712816052 6.2522008626218035 1.6438426052405704 5.910493599430489 11.058150677741073 1.1588612528257662 2.618976820324265 7.74360019129331 1.220553937248711 7.0098437256921 6.727370741620932 8.590000344912863 10.898852658458349 9.351020746800067 0.8795144300923463 5.56306113109707 8.537598660710856 9.718950999887905 9.294920380746102 1.4384439495814818 4.617737848784255 0.37681705604052407 7.858835171387577 2.5637512921933685 3.7448046361308887 6.489879930252331 8.922571642451882 3.9533482787539187 10.020803305039697 8.499349417846584 10.465187748265036 9.777864135973001 3.656025197786112 5.330121691707976 2.8660576271533347 8.076271153912174 10.860293346456789 4.834730875398437 6.711966949836276 9.099322124604928 5.761306048802969 8.178051348227607 1.3917010271350179 6.879204953813177 9.597968666856014 3.9077791894700518 0.3641618056799889 5.711750356325376 9.993893733482032 7.071746814172493 10.167654263239783 2.48672125937233 8.230862766646746 5.588619687127973 0.7738007872924328 1.606634308765773 5.559606074995839 0.013889989960814909 4.806514583905049 2.094051918687856 8.107610284573981 8.827690486441151 5.029963692913518 7.590204559516853 7.908579120127098 2.5005082620839736 6.561151536237984 0.1231649982804588 6.392075265232863 7.886154477162376 4.160751309907631 0.9506642232026355 10.193711144669901 1.3197317655904621 7.5098966529587505 5.91052682112377 0.984028769764813 3.4884771246719213 8.12938156757084 2.017819206505563 8.71331927037219 8.01651640159729 5.90898754933508 3.775977658326292 4.524595294721898 6.089868595352741 6.358299877063777 4.102469385994876 0.8128850020478344 10.483681157524831 6.947519829096815 8.655369563392245 7.029112307795121 4.5960440830717175 3.216369308904446 10.477247222926064 10.560666894754828 3.1782197311200187 0.22639587320250026 4.926644226809394 3.635239491689923 5.835180020762307 0.6329308412727165 5.090825835004437 10.85168892789699 1.0175882169275727 10.279057674708968 5.674375951384173 3.5728934472991174 2.4824688826323533 4.49326723795785 5.697177106872745 9.109078228531803 3.9678661587177455 8.142936018429518 10.138264138583798 8.316862656653674 1.9920059508261723 4.0853269922618445 5.355248365726225 1.7928418996061644 5.52761358436617 3.2341761365030988 1.3954218567824976 8.927887113376853 7.968123468384533 2.9345829064944198 4.804421617228342 0.834907662523855 9.438382726231518 4.089811920854789 4.603795811503966 9.03747440561334 9.173251466053067 10.692689903853795 7.567204073868593 2.40777544223875 6.494398080538556 3.0915886289407513 2.4372209363835373 7.222473636588702 9.87791680223782 3.5344780959684416 8.52189587368667 2.1271075035025193 5.267831016805972 7.822534934529129 4.892835616947026 8.20234747991383 1.852408395659121 9.434230014571385 7.834937700020728 7.2079889783181565 8.93088813966991 0.833350672498749 2.451351229925752 4.59735080300744 9.120451121531689 6.549247096145601 1.1310768433450322 10.945983167326427 2.407011343293285 0.35964919234264364 6.559091791254557 5.13754660965538 6.491485645427582 3.74704156347848 2.7352748946035272 6.143776329650155 0.1085098019844033 9.551103931534186 9.422668865309573 10.358535038935045 6.01743423010225 4.2393316884151195 2.70615054349379 1.8037053933090739 6.578902994347835 4.660228394490742 9.923541261010488 3.4961291880243275 0.3714672560324959 2.2464730474613996 2.986508413092731 9.556153628912908 3.543226475199123 5.30476246583676 6.218403326657196 3.990490131842153 6.228624534290005 6.353106219014171 1.1638998763067283