-0.3972909742469545 1.0696516773143965 -0.48469125533949425 0.5496992847797629 -0.31516711106200557 -0.06207157251976407 0.4485109487641953 -0.21984191869543426 -0.6256018496453484 1.179005836970208 -0.39755862608604436 0.3181819866289295 0.33000134786136076 0.633717022553315 1.942163505516565 0.7899351937505169 -0.9233484512380614 0.117696618083236 -0.6024850611222269 -0.08805796928119673 -0.4457706670148968 -0.16593539848496583 -3.852097461575463 -0.29066938303095746 -0.08149008625569192 -0.1614835333611993 -0.44359628507139726 1.0983081647088246 -0.2569303389072995 1.426002975924196 0.7617597597575655 -1.6853696921871295 0.4672728027527307 0.07577041016309531 -1.6945662710847331 -0.0018702204395193596 -0.46713859116771156 -0.30968114824676984 -0.1495559286856779 0.056659400365257254 -0.9961199266738329 0.7129360533866432 -0.37448271810318734 -0.40204237288901074 1.1152321941576728 0.1099596544502945 0.3885741631992469 -0.923693493282306 0.6645121535573008 -1.1777825060860685 0.7711424865240462 1.5897753053195718 0.8806575972377543 0.13148467300626387 -0.054755498474325044 -2.1879673954933994 -1.9006597298458237 -1.800791141082944 0.19516961275973485 -0.10590348210304988 0.34738689032765974 0.46541775182186296 0.44755501260882924 0.10317477031797716 -0.7100690162514932 -0.9137836903677617 -0.5342904064238605 0.5000281428068808 -0.12153347533082294 -0.4698115100141844 0.47387308167806774 0.4137198092269391 -0.5757782412550019 0.39444090639266904 0.26870367739314366 -0.08049686910448717 -0.1076420620607114 0.13510992846367698 -0.18326386246108436 -0.41183904726445847 -0.06740789713101294 0.19861437677522567 -0.3405300153068264 0.19802559415129123 0.48788276569359845 0.7197790444504055 -0.9050190568012543 0.10159662719757988 -0.5512859125405924 -1.1829478523370915 0.24396863654030887 -0.00890964378480401 1.3312657948506104 0.8837292941845426 2.3702922910799824 -1.2294344259344052 0.4027471122655193 1.4227171060840722 -0.9846510068022848 -0.4601647309530397 -1.0261753512983165 -0.8813559088563594 -0.501452276847917 0.11026612994711976 0.1661691117623267 -0.004168015334760564 0.9981762949822292 0.8044675830387371 -0.7412886363874072 -0.6493642421722687 -1.7185384656296148 -0.3508229125924022 0.19042824142000753 0.5785792010389067 -0.23339806011331418 0.41417206627300934 -0.5485823975665004 0.28206364363981745 0.3617336459676351 -0.34810808476440047 -0.14866478432997624 0.2815612500821022 0.14654979486950245 0.06489721489401726 1.0933791028383235 0.5812246090815538 0.8018905663401802 -1.1321672793501145 0.03970811722289936 0.14396815018525527 -0.47557078109546486 0.32751046311870696 -2.4642997930763944 0.5545033910366256 1.7157519040234128 -0.43456605654832897 -0.47329946856278493 0.38636095759801203 -0.020912067562318823 0.9853668019223869 -0.27952776459184114 0.5087020164317948 -0.26726231696092684 0.5249210493938185 0.15321383715323936 1.5684186940206666 -1.2854939879321345 -0.17061583467977068 -0.03329784282118137 -0.06581149917817053 -0.808602431142717 -0.06230682845902173 0.6990199575261833 -0.7767814299773784 2.081906561876879 0.7945390110711155 0.6596864500338832 -0.01707186788062221 -1.0771559561112418 0.6479046269076068 1.8044377366965956 1.9227539906417015 -0.331955386263938 -0.08837112964624136 -0.6720382867310168 0.1771739475132626 -0.5121025574729116 -0.3989904734365645 -0.015935697393649972 -0.33994431800668545 0.03120882150263657 0.1460260611555485 0.44417658305489954 -0.09018555714716081 0.5547512453813737 0.1710413522529635 0.08696345066543734 0.003606743514651853 0.7627180099057768 0.4632289717006603 -0.06939793097784823 0.38291619358252116 0.5092247217044843 0.3251902996259625 -0.352937902052876 -0.7657634816003199 -1.4588395628382425 0.19774457257576264 -1.0882492378109259 -0.11219651420061322 0.31089676582142584 0.4839872872939342
-0.9170600471261883 -0.374779937628632 0.22031885833185283 -0.12423261942954088 0.1432793516483468 -0.49217445109041685 -0.6782960947152705 -0.5270550650176857 -1.7146489007672212 -1.5422219810206408 -1.0269793352568506 0.3067045821169492 0.3578055145578225 0.9657670254135885 0.6497838462081906 0.08794201252862274 -2.1885824033695793 -0.7742064701613506 -0.16918475866019897 -0.10558749352452783 -0.8439581849341916 2.9571054499929073 -2.5326929369388123 -0.48682064297767125 0.013939492899227605 0.6181279098658065 0.12675435741013008 -1.0604381291359284 0.11366872787076554 -0.7989834199957143 0.39942473276050566 -0.5161906114993562 0.40499579909037997 -0.6186719552947345 0.384433401557996 -0.19185828899831475 -0.1523610022346408 0.5394452111519226 0.011271716259077361 -0.38692068675622393 0.8298988786276482 -1.4393822254445792 0.14659221807166367 1.6432411384481957 2.2668236436706706 0.4787301526600529 -0.23943089657095537 0.27541708485757727 -0.4143877818282411 0.16123233658234168 -0.7789105605052392 0.3107772095244261 -0.2835942213517309 -0.10015603809631138 0.18342018553329056 -0.8550280695951081 -0.10276956445975849 1.295360339203253 0.09670896008797537 0.5810942541512767 -0.08572803559643946 -0.7412814372985556 0.647901027363181 0.6187999962321666 -1.0807755551417 -0.9002182929785013 -1.0902508416219867 0.13221538052470133 -0.994099039589062 0.22539395886191504 0.23881331759161453 1.0635615052562588 -0.06019363877076085 0.4511622703441133 0.676709209844125 -0.18005384016421894 -0.019702620635249937 0.03473174705423051 -0.24550281379664818 -0.35346137865651384 0.18852588219097208 0.18613578469224074 -0.817433913391418 0.07670989125822918 -0.5296277108408686 0.17108686077891827 0.2082621842776349 -0.07433856281257518 -0.7906677010411673 0.2567848144683707 0.015613281057224725 -2.775899498502116 -2.0872344018476956 -0.4377074303907881 0.3082199903202111 -0.5505066111724067 0.1608476995494133 0.5431427146081678 0.11083948595208654 -1.115326296533376 0.9805030460721823 2.1862211022262543 2.3623959190510413 -0.12273855138251764 0.915467505828088 0.7991142891466237 0.6963249271925234 0.6017913774893119 0.33373330409996715 0.38374357457982294 0.6662872431798524 0.33643681907405926 -1.0819826880759236 -0.313674328566563 -0.29322094580821756 0.9283680159398398 -1.0438542566353184 1.4892932513424095 -0.8797032037442849 0.7869290599343415 -0.13609260409192045 -0.5740833700510823 -0.5936993445097969 0.40510044298904424 0.8881875870662123 -0.6460709161329776 1.5390091305102978 0.12812938338078578 -0.5971230254793651 -0.6551746782064587 1.6562131252278316 0.686592787506424 -0.33575264852284115 0.8356753761001091 0.9892445397102382 0.29315769667045 0.4448484123109435 1.6304450151247918 0.7431804540934813 0.24543622222477082 -0.4108576571877956 -0.06575519201893837 0.6839219255424801 0.025558822305710823 0.1595392651506349 0.7730322473475912 -0.4075774437746271 -0.27098193190435915 -0.5782804388515653 -0.4968507735201636 -0.3805127263473511 0.7152701008364585 1.062170795556319 0.07877551553800627 -0.10915618471239266 0.028817952672956816 0.2202954612930851 0.06663476641041427 -0.041197300173916145 -0.7585762198232613 0.5310238198574467 -0.30726842504021923 0.29942373218481977 -1.1849666825393335 0.820063123484149 -0.7022911720782873 0.5539112659785815 -0.4037979221275368 -0.7568615511249998 -0.37508204225008307 -0.3804458776651577 0.42228055431275663 0.8490646529228216 0.31449631024722613 -0.10485858577830327 0.13839914073791001 -0.940007142840665 -0.717124637546694 0.07521890853499949 0.07006538935851804 -1.7660635077937714 0.6848966307509238 -1.223115425694913 0.27010158618193486 0.4648986460935993 0.12619822779634393 -0.5029890252074176 -0.18783219855805716 0.2491751204419128 0.13903446032906377 0.2588236992752704 0.7947529268541345
0.4230526565920908 0.01786119655113698 0.3630042851499426 -1.6546861470603438 -0.37873557984227035 -0.22233203210713967 0.7859751806615044 -1.6634294404706127 -1.6058282450173764 -0.1426761708467091 -0.03869561679798497 0.14719077088761104 -0.21168483680593864 0.4002857952092203 -0.8321020569265541 -1.1742798922494486 -1.8233446009034278 -1.651884930166123 -0.4826742249094655 0.41580883054548384 -0.16947452198647586 -0.5116305029324995 -0.6785457488322314 -0.4133374861868559 1.3042249886827344 0.726606094674568 2.1269692585434723 0.1066709563966937 -0.37909013496821165 0.9782142500380056 0.11583642494604568 1.0123767548523273 -0.23394673352793258 0.6398701866389045 -1.1604833526859883 0.7792355479448257 0.2595628914341401 0.18160061582604853 -0.5008267274487761 0.04557511752663764 0.4484510420605374 0.5053019896113103 -0.4753005581532137 -0.22471827295112914 0.8079565700286022 -1.2801895450000855 0.45865626472831333 -1.0689181415824816 -0.09244041461960854 0.719742020564883 -0.8043691097876597 0.37883199621081853 -0.20225583018255489 0.4801357747583279 -0.4857839741830408 -0.22941979219185651 -0.3776480032050464 -0.012586835526075094 0.34450494079417443 -0.04312125666950638 1.7176624907825642 -2.6450974533851737 0.23541380499176232 0.42146114373525484 -0.5231395320133635 -0.20797499205451922 -0.15511413949974576 -0.0353989483245842 -1.123428613925536 -0.7135106949431905 0.7062637835727902 -0.29284376497445697 0.006224640753473151 -0.1023677010356495 -0.037141642047303774 0.22567009534143717 0.6853784554833487 0.8419321556430984 1.1285548794085078 -0.3823955451923608 -0.792452560855732 0.5062209018811539 0.002131187410389878 0.688456323077724 -0.7034988192331433 -0.10815268314854277 0.8213540743814306 -0.5161175921695756 -0.27476659575777196 0.40900312047756004 0.25493104908908354 -0.43050782731855536 0.9832430707111648 -0.6417499201601206 0.5548507470737154 0.9866436117522814 0.4008774060466322 0.4464304120860828 0.4149367123531757 -0.5195109341218407 1.679620448408178 0.5621701635532641 -1.773228915193959 0.5453932012052414 1.9143020032196063 -3.4267318405794787 0.2785972823577718 -2.5408237935760627 1.0116936127423737 -0.9234492384819838 0.57577438460026 -0.07351812379380886 0.8872205951672526 -0.8461194542515684 -0.7126367769786696 0.5367573799071143 -0.32305422711956616 0.18785456715556037 -0.6908880724476681 -0.8356895171674963 2.798409249568858 -0.2592245342581148 1.8094840408712514 0.092411361153886 -0.10966706291054015 1.2127572223890404 0.10357354841829258 0.648586997686612 -0.3091533007677579 0.04041799880573039 0.6012622444587193 -0.09067715207159867 -0.7967416751493891 0.32484834290551146 -0.5072496002559845 -0.3406763110767036 -0.17428736999408695 -0.03682025415214304 0.1390761122002766 1.308640601251927 1.3829981902278956 -0.2734363069821227 -0.052896076668083096 -1.80083922071206 1.161685857634522 0.16518463636187036 1.4357297162936564 -0.40665878861509963 -0.9183833939233023 -0.12800597042904407 0.30117619609955226 0.11003524488323631 -0.4871582288227481 1.1711907118011635 -0.05932306324034944 1.356676007393599 -0.1493445840058202 -0.8913104489659102 -0.5363326336648699 -0.03626361031772464 -0.8412071045516156 0.5629882885791853 2.0553452664485827 -1.6871442675890491 -0.21055689384908252 0.5186172186629778 -0.3183701913803356 -0.5278348806065039 -0.3446725767202903 0.8143275065519524 -0.4039709573702913 0.3025805326462466 -0.44858165410113066 -0.23941804105514897 0.42836969792963 -0.17967897332330346 -0.6250302934125945 0.12415240101090877 0.11786528245061637 0.3281743219549509 1.1260840492705124 0.6151932527175147 0.027255236171527256 0.5070752794616493 1.6592701668866003 -0.25352388432891176 -2.2515618324155935 1.516987374823568 -1.8929261086469915 -0.43201012289569474 -0.09578284872928021 0.23551407801505245
0.07728376148382818 -0.29717581669090753 -0.12668185230098183 0.15780274207550243 -0.5998658783318249 -0.03916021513922933 -0.6325823947282396 2.3983520254306763 -0.6046008219136492 0.7723326501774053 -0.039408840814925676 -0.20431914046948685 0.14534111927338195 0.1585290787185657 0.03149729927733286 0.9158359449111001 0.6353648425693832 1.264420969311919 0.1602620022492724 -1.1183321732392353 0.13166542155850228 1.8620816124623092 -0.9660429047827944 -1.9149110975585149 -0.6324736370645172 1.0036895114909747 0.04018557107995015 -0.15270475872730477 -0.7873862020764181 -0.17086754567926057 -0.41115179138944674 0.12516592987708766 1.7264564349251106 0.5654740311155164 -0.08822869053110612 -0.24081312163046267 0.38519753341753016 -0.6502690133747252 -2.287787904627163 1.1581426203679537 -0.63100373738721 -0.3713667981820249 -0.08250541489408372 0.2051130971256919 0.2034382805264303 -0.1437362366801073 -0.15040079318447644 0.08928232860660108 -0.7461554775614053 -0.15909163609025503 1.4038377526810661 0.1695683672518628 0.8138981323240175 -0.06862274337472053 -0.19004977503466622 0.5941693421676799 0.35344980869228804 -0.7337763871707621 0.7486376205533107 0.17675999990429558 0.1708037823208607 -0.3920963174198925 0.3589018329457948 0.11875385570315676 -0.932357339604891 0.011185327192858155 0.28229709980686224 -0.2552290399454766 0.6172563058941305 -0.529370857635056 -0.023897632553204002 -0.4261701191751499 -0.6679152657015788 0.9080632429442168 0.17094056500904106 -0.8332659953276682 -0.6750315650313858 -0.014469654371084759 0.2030526150522374 0.22759893693303382 -1.6279603010297252 -0.11395566298356503 0.27144215937022925 -0.5009727661083372 -0.36883374734752605 0.06622210435302789 0.43299948339215744 0.5501060332998784 -1.1913057373834839 0.3909352072322557 -0.13710099075177679 0.1220096436362931 0.25123740228758024 0.5117390034859057 0.2785090935193397 -0.8667924092198878 -2.222155611339334 1.2552467590118188 1.146961921160786 0.7389448187455789 0.04803694880356888 0.691227458064958 -0.3146690883796645 0.04778215248028546 0.017455990692918325 -0.06348953591321323 -0.989330414555825 -0.8278347970097679 0.3588612095158465 -0.4818517290081701 -0.9232612908408938 0.5510570843592381 -0.6372144941836122 0.8416449634199826 0.8726879487687164 -0.12586449860600904 -0.30314694667267794 -0.5123923207991886 0.30058998457877906 -0.7386457994479214 -0.4098395003359265 0.5574516750316723 1.6675524615000508 -0.30533958344862255 -0.6912817083416611 0.07206442206641782 1.017630032831467 -1.7267904212257617 0.8885074322994763 -0.07610825311848828 0.4731755413904109 -0.4031150371278993 -0.6970206677079673 0.3013525737764165 -0.597760401953048 0.9327445477409808 0.6459886408318164 -0.604762544302494 -1.4389795906895217 1.6137439003200273 1.053103286037412 -0.5995385768993933 0.24734449499107727 0.8082738441587047 0.4483415130658665 0.4305160548486715 -0.18110850668097841 -0.7578447409738754 -0.6352002919670608 -0.7172333952104164 1.0782820992958848 -0.043935525040685625 -0.023136071796831123 0.06434237083181177 0.3568596057047854 0.411074401184292 -0.9891684350566642 -0.6860883370661798 -0.9882091564671883 1.0379093519057931 -0.6701930059921619 -0.32321774928062397 -0.09899081414361662 -0.08173305550443344 -0.040724217192239544 0.04489686051269042 0.604806767276868 -0.7107896964676017 -0.9578567694275762 0.2605820767272738 0.8561462423599513 -0.13353487066707326 0.4796464938267352 0.7784837573804658 0.23756581833775858 -0.3875092122698423 -0.14684470040210193 -0.5632873078768428 -0.11145243694573707 -0.09761887349675447 0.3905292300430887 -1.0855819753914078 0.810097784741321 -0.2366420209719086 1.602992575340794 -0.4370039765658603 0.22469333325046462 -0.13368373754011173 -0.20739520829164926 0.5478750870868306 -0.3380463296530243 0.040260133071627444
-0.9091168810197117 -0.956452689991198 -0.6055744986808281 -0.3357493060887315 -0.29339063861686243 -0.22616194737619114 0.6769462655555956 0.5586294973898573 -0.05467245184221552 -0.32342960818111394 -1.474738750567002 -1.6394934984803053 -1.5129355733516976 -1.446410078825638 -0.44307255135744333 -0.19554190849748904 0.6135019810580209 -0.17436681708177065 0.496121865773939 0.5703555275775338 0.026776239652579695 -0.6022086675323886 -0.6908448779145585 0.12146482687641662 -0.4847987274516361 0.4632598249385957 0.04304335224371942 0.07403671530144024 -0.2975748519015391 -1.1794300689918205 0.3951091361042873 0.24168369716087412 -2.529603242269895 -0.1981405224626007 -0.6757522452474943 0.24651351444934963 0.945053704125637 -0.5244996455856838 -0.4752879597477234 0.253138475965035 0.4787424939552271 0.5761865324370141 -0.46030357052374915 -1.1952549518392188 1.0637723357154842 -0.24452348060251436 0.6797899056519776 1.0569655972062957 -0.15336938889449717 -0.7588819239891382 1.3546576914119894 0.6521037525906189 1.2262796823555073 0.42781356831584383 0.594209451376996 -0.45755866078876045 -0.08694648138457285 2.097102295780711 -0.7010770971655281 1.8246062412246706 0.7576593644359468 0.9894695112368508 0.5413066898406935 0.9446263867802313 0.5835357737132336 0.1525507496479437 -0.580927132445793 1.6428513592089449 -0.05396051337685546 -0.14750213148044275 -0.06860217454943024 -0.4817643115006865 -0.5161209346036854 0.24164667327535155 0.12615169082912467 0.27207130831379595 -0.6427472510763834 0.6803961717774089 0.4718323970989552 0.5672208386032941 1.5032024052243338 -0.6308433005499458 -0.10738598018584732 -0.38032914958163533 2.2484973345576567 -1.3962506843624276 2.7681103414750003 -1.0781334895331627 -0.28432107221542646 -1.0643413208450767 0.0399675415318731 1.1855881181734162 0.14963254755988423 0.01629950849097193 -1.0900410396040259 0.22406829807195602 -0.30440113079475317 0.42048926674028875 -2.0040121633922454 -0.14190458278800722 0.1648910163808515 -0.47319019667843026 -0.07267994416322966 -1.0855385237479822 -0.029257868423852838 2.3488269221173548 0.6393227987758667 -0.442335930301735 -0.3168298434764092 0.05608553013965825 -0.3804088537796352 0.19385423638242097 -0.3182166965216068 -0.173271784245379 -0.8509731827994441 0.025207866724195296 -0.06500520122679126 -0.32437885946826067 0.43345868241676316 0.14405042548641642 1.0858257159710978 0.22192502647670814 0.39214079750458275 1.0103784934753761 -1.071900364139257 -1.504066552996842 -0.1787747163414792 0.4179076220560416 -1.03216884987759 -1.5413614327925584 0.2662482738741157 1.4687974453819026 -0.5138388234377279 -0.2613626636470402 -0.8698666772698372 -0.02703334996870828 1.0332847086495884 1.2007666256860676 -0.16294263440522905 0.6637104835916119 0.7562912804438265 0.3590728113060203 0.6530023531454883 -0.5473413260705476 0.7698271101467323 -1.1511263369511209 0.37345684794183426 1.2168483617392785 0.7654297524099849 0.2333067859510885 0.6444662906500191 0.9375229429662305 0.556705283783951 -0.9737991516894455 -1.8855642689652816 0.6385288421196617 0.022875361936276734 -0.20806138112073844 -1.3320039585682157 -0.5387530701809043 -0.18887966598596503 0.046664493936074476 -0.08678655876794086 0.4855901130046798 -0.0033496331985232637 0.1952122930722122 0.6187251771301732 -0.15839383869228205 -0.9764784982938214 3.0331831069837762 -1.9966922326920644 -2.7892283544005383 -0.4357963294110043 -0.8273442305265943 -0.40389922359209146 0.13103832949746463 -0.8179946709908944 2.1206993663743603 1.051625673050621 -0.8697502062966311 -0.4787913449152915 0.11637712794086409 0.05732583030466256 0.6526372564965857 -1.1017932950439475 1.175040938785189 -0.10819870589512978 0.07972836636957882 -0.8033602089071713 -2.3906019491716117 -1.487285219773445 3.7945242911466845
-0.29886554568850465 -0.044675231420187575 -0.7331356682629696 0.741010443025356 -0.03059947005341182 -0.7322802622412099 -0.8443682758884168 -2.1304507893341698 2.078811725001639 -0.8641367167645956 -0.8403460421029011 1.5284161854858 -0.2153633140987904 0.9084694772436999 0.3713760541534056 0.2224114791948234 -0.06170467609864857 -0.5782395583113009 -1.7528783765620652 -1.4895171944277572 -0.4270646059649613 0.41226585038923197 -0.33550762239157056 -0.36718849843461926 -1.1827460207389309 0.12751900349029652 0.19647470472440356 -0.29659654714866984 -0.05162080950008529 0.7689120545316306 0.9351163904072669 -0.9833723972001774 -0.22117015058855458 -0.2503984513260526 0.6367470676288906 0.5229965786775961 -0.33598481913830525 0.14921191508269788 0.6065952266358586 0.17505690117025982 -0.6023973865044271 -0.13161399949527655 -0.2076942275893068 1.5575696671213046 1.2226017192832879 -0.10125904135250303 -0.12266810315589842 0.5405649265786625 -0.6354458323189637 2.0884420490025515 0.5540426493501233 -0.18955792299991223 -0.46934973988641754 -0.364680644411101 -0.36049694534705656 -0.682172032730909 0.6498560942070227 0.48946990767506027 -0.15352031265006463 -0.6609434623694359 0.3517258840226459 -0.18061434065337928 -0.32046564045678355 0.9475936969386711 0.5767395767270067 0.561266163681756 0.7999519545565708 -0.34720048534846654 -0.324093467017358 1.0616653166748105 0.9596200319755861 -2.1099598684696694 0.5263968626083967 0.03229588391922825 0.7240553032282562 0.5676309295575193 0.7303349655893808 -0.3281753503962154 -1.2355317970813948 0.283656184937918 -0.029839966179567964 0.6176939076521814 -0.08928567104071075 1.0367600687926983 0.2250265482201673 -1.4442256695798095 0.3557221496662325 1.123544056457478 -0.015689128600482657 -0.8617630743260964 -0.5242327650775422 0.9419331562187843 0.4967445869596026 0.0762244669813784 -0.7048057109700249 -1.026446345571516 -0.2288677763431284 -0.9172299970451494 -1.3505045884755644 -1.1578551710345222 -0.27965734819117 -0.1626729256836102 0.011027461458755203 0.5000664522439839 -0.7332829924741113 -0.2691615908661687 0.256367524425294 -0.4967427871873896 -0.19725811985764738 -0.985852997530186 0.7855154674162665 -0.8048959288254074 0.3243186956542866 0.5905230036643442 0.4116480142995749 0.06568294402010623 -0.3991018022034481 0.43105495807127703 -0.08083085540513821 1.695407793149422 -0.34153403109130853 1.7368892002226604 -0.5355983266020066 -0.30139088321351964 -0.7487296660464847 -0.6911467254256936 0.24990377107782122 0.16632980570990707 0.4198130666088705 0.0403776324860982 -0.2557530307697466 -0.140412571623513 -0.6219274861175548 -0.08176416585268498 1.1037398772473572 -0.2549865849173673 0.25306262842177707 -0.6104433967373551 0.4075057099964272 0.03883677036153957 1.1667501595313068 -0.030922143500153196 -0.9162630051461897 -0.7937093160809685 -0.13827315668300705 -0.41953358769523874 -1.699424884728615 -0.5318997947044969 0.14409979066711312 -0.03104607067252718 0.2675978459234746 -0.04671077379297762 -0.20729313549614622 -0.046012719284688496 1.5397285251748256 -0.22846051360238073 0.0010675220325659035 0.16415979464178182 -0.09639399995071785 1.4250982047217393 1.9757536827671844 -2.0936814430246202 -0.7539886004525788 -2.6495734868786562 -0.7273298602144699 1.392214566619841 0.9929739248456834 0.9087767240714736 -0.24682101838743942 0.9565113111432751 -0.5819231778104752 0.12385235327198668 0.4029499723049447 -0.869282008410961 -0.39329907947874204 -0.7221151487827498 -0.29898947286087857 1.3803003316807583 0.9757922708600741 0.9732080550726657 -0.10646938190884889 -0.41654390893929555 0.5014067683219623 -1.1037748442503506 0.13643173259889405 -0.11228496014936146 1.0460515213969532 -0.8143329058685911 0.4862611709297755 0.36441042146884983 0.4921196865930815 1.2301875020503459
0.24995853557515663 -0.36695452804694223 0.5614494833371556 -0.04265768676952654 0.8110388084983515 -1.148695358912125 -0.6319097941412473 -0.8467863984116061 1.414254834249332 -0.9921267463540396 0.3077394511393668 -2.0173034811845127 1.0689397388490363 -0.40874909548522503 0.08484126211611195 0.37458556222963874 -0.43402252534003316 -0.13605120933102374 -0.5030808135902756 -0.12671887618650435 0.4827829825731878 -0.4055303314376113 1.6099772341887433 -0.18497930249029432 -0.012108096117443663 -0.844760369120513 -0.2871819387029893 1.0890046279197114 0.33686850729483925 -0.4887957644261711 0.041527429819825254 -0.56300988584574 -0.19076402749287147 -0.04878462560287082 0.6124565705126421 0.27814528242201775 -0.7417717466714129 0.17879014296044693 -0.15276337987938207 -0.7473191588522032 -0.7340679502692519 -0.049270306990037725 -0.10870932698296118 -0.1618576288711664 0.5588817226099794 0.29617899999527697 0.5537120054835819 -0.7158475706064832 -0.35004952476148743 0.6918208686745827 -0.11884358720348566 0.45914760254243503 0.6801899693038737 0.1488054236728986 -0.08032460519268102 -0.20285206900565708 0.20323284938384353 -0.3386603090879393 -0.7023554496573194 -1.6831274331201724 -0.27146735618120993 0.1821724291691185 0.17495868502949866 0.4015605481565859 -0.9334153485557602 -0.20998328073379968 -0.8885884220490569 0.02865468762221517 -0.8944124849300017 -0.16311232721387395 -0.9149969939495727 -0.4692360971266887 0.9737215043739746 -2.441248824794202 0.6691869333251507 0.21112793586120412 0.860526116595202 -0.32949458342827126 0.01875594045126447 0.3262755622703413 -0.912070821441713 -0.08010143343828141 -0.3736347682805952 0.19657420641674533 -0.4737661237865583 -0.31246565297044254 -0.6164217258079772 -0.09857480965212057 -0.6122537104732166 0.3714143635905087 0.995068345480867 0.9182558672065024 -0.29483868391729867 -0.205433199469272 -0.15451661512506293 -0.42042113250651464 1.0115696855699998 0.5893287262459269 -1.7432621936285395 0.09002923407495461 -0.6390212083750478 1.2491622433806358 -0.3283540420659248 2.0557376167909953 -0.09378381602138042 -0.7303575912972002 0.437429237028737 0.6035109312835799 0.09643616604256296 0.6693615112298021 0.7518651263516728 0.8782785554826164 0.44990140135381873 0.46411111719529746 -0.6360924647640271 -0.33309747028818115 -0.09428338136561827 0.7293229793850988 -0.16893536165355422 -0.5853627996196435 -0.4209119561000041 0.3147904444488772 -0.044465686512542776 1.1619702216441603 0.44135196912191094 1.5664793109061084 0.15937908542368678 0.16659077268077763 0.505145152318472 1.0659330908122286 0.8272940940149495 1.506700133964947 0.6347359507361326 -0.3079112008305407 3.1255954965789265 -0.5090992518702135 0.8465040912844969 0.2475234437711027 -0.3049233218468103 0.5164145545847042 0.39295429454481356 0.8141891812018752 0.4392814597461273 0.7377669963873938 0.2945023836238025 -0.5989009433153943 0.8362371621408502 0.14417692376195168 -0.3920821763525054 0.2672088380151721 -0.15389980747667042 -0.29693104766995315 -0.4909007265843158 0.6163865016946675 -0.5365138964377406 0.07961189539637256 -0.4278449357744115 -0.025315853056969304 0.12073874734366948 0.9191043312497269 0.0053291255223972735 0.4682580494841355 -0.8056508047135609 -0.6767331211035249 -0.8001345028810221 -0.28136584624184446 -0.15460069019843697 0.015619451704811809 -1.335149960396365 -0.33236419166658243 -0.5917062253391681 0.7934038690254077 -1.385540497033775 0.760255150187581 -0.5705378187916691 0.48472596523217165 -0.4523902292139434 -0.06782775827725093 0.5755208738285572 0.028100357780641926 -0.7618338075286105 -0.04497656471069028 -1.560163910211042 -0.9014138559484992 0.41230261716443833 -0.6600628595366955 -0.2675194272770554 0.14600806343341952 -0.3202838634632807 0.0978656994002379 -0.4487595744398917 -0.11406930574329387