An instance of this daemon is already running
An instance of this daemon is already running

     Program PWSCF v.7.1 starts on 11May2023 at 15:16:14 

     This program is part of the open-source Quantum ESPRESSO suite
     for quantum simulation of materials; please cite
         "P. Giannozzi et al., J. Phys.:Condens. Matter 21 395502 (2009);
         "P. Giannozzi et al., J. Phys.:Condens. Matter 29 465901 (2017);
         "P. Giannozzi et al., J. Chem. Phys. 152 154105 (2020);
          URL http://www.quantum-espresso.org", 
     in publications or presentations arising from this work. More details at
     http://www.quantum-espresso.org/quote

     Parallel version (MPI & OpenMP), running on       4 processor cores
     Number of MPI processes:                 4
     Threads/MPI process:                     1

     MPI processes distributed on     1 nodes
     1009906 MiB available memory on the printing compute node when the environment starts
 
     Reading input from pw-si-74.in
Warning: card &CELL ignored
Warning: card / ignored

     Current dimensions of program PWSCF are:
     Max number of different atomic species (ntypx) = 10
     Max number of k-points (npk) =  40000
     Max angular momentum in pseudopotentials (lmaxx) =  4

     IMPORTANT: XC functional enforced from input :
     Exchange-correlation= PBE
                           (   1   4   3   4   0   0   0)
     Any further DFT definition will be discarded
     Please, verify this is what you really want


     gamma-point specific algorithms are used
 
     K-points division:     npool     =       2
     R & G space division:  proc/nbgrp/npool/nimage =       2
     Subspace diagonalization in iterative solution of the eigenvalue problem:
     a serial algorithm will be used

     Message from routine divide_et_impera:
     suboptimal parallelization: some nodes have no k-points
 
     Parallelization info
     --------------------
     sticks:   dense  smooth     PW     G-vecs:    dense   smooth      PW
     Min        2021    2021    541                97019    97019   13096
     Max        2028    2028    544                97020    97020   13097
     Sum        4049    4049   1085               194039   194039   26193
 
     Using Slab Decomposition
 


     bravais-lattice index     =            0
     lattice parameter (alat)  =      20.5984  a.u.
     unit-cell volume          =    8739.8143 (a.u.)^3
     number of atoms/cell      =           64
     number of atomic types    =            1
     number of electrons       =       256.00
     number of Kohn-Sham states=          154
     kinetic-energy cutoff     =      30.0000  Ry
     charge density cutoff     =     120.0000  Ry
     scf convergence threshold =      1.0E-06
     mixing beta               =       0.5000
     number of iterations used =            8  plain     mixing
     Exchange-correlation= PBE
                           (   1   4   3   4   0   0   0)

     GPU acceleration is ACTIVE.
     GPU-aware MPI enabled

     Message from routine print_cuda_info:
     High GPU oversubscription detected. Are you sure this is what you want?

     celldm(1)=  20.598428  celldm(2)=   0.000000  celldm(3)=   0.000000
     celldm(4)=   0.000000  celldm(5)=   0.000000  celldm(6)=   0.000000

     crystal axes: (cart. coord. in units of alat)
               a(1) = (   1.000000   0.000000   0.000000 )  
               a(2) = (   0.000000   1.000000   0.000000 )  
               a(3) = (   0.000000   0.000000   1.000000 )  

     reciprocal axes: (cart. coord. in units 2 pi/alat)
               b(1) = (  1.000000  0.000000  0.000000 )  
               b(2) = (  0.000000  1.000000  0.000000 )  
               b(3) = (  0.000000  0.000000  1.000000 )  


     PseudoPot. # 1 for Si read from file:
     /home/ppiaggi/pseudos/Si_ONCV_PBE_sr.upf
     MD5 check sum: 8553c464762ac42b85b1eed164b4d029
     Pseudo is Norm-conserving, Zval =  4.0
     Generated using ONCVPSP code by D. R. Hamann
     Using radial grid of 1510 points,  4 beta functions with: 
                l(1) =   0
                l(2) =   0
                l(3) =   1
                l(4) =   1

     atomic species   valence    mass     pseudopotential
        Si             4.00    28.08500     Si( 1.00)

     No symmetry found



   Cartesian axes

     site n.     atom                  positions (alat units)
         1           Si  tau(   1) = (   0.4455150   0.1353300   0.5535160  )
         2           Si  tau(   2) = (   0.1870480   0.6222140   0.1601800  )
         3           Si  tau(   3) = (   0.6993920   0.5035310   0.8496710  )
         4           Si  tau(   4) = (   0.1126420   0.3319810   0.2036220  )
         5           Si  tau(   5) = (   0.4704940   0.8974140   0.4341050  )
         6           Si  tau(   6) = (   0.2002770   0.8196010   0.7537730  )
         7           Si  tau(   7) = (   0.0032616   0.2311010   0.3811690  )
         8           Si  tau(   8) = (   0.0835949   0.8717590   0.9628460  )
         9           Si  tau(   9) = (   0.6715530   0.1652190   0.4701800  )
        10           Si  tau(  10) = (   0.0255732   0.3593070   0.0048827  )
        11           Si  tau(  11) = (   0.3946440   0.4481230   0.6687690  )
        12           Si  tau(  12) = (   0.4694240   0.5126710   0.4058070  )
        13           Si  tau(  13) = (   0.4837490   0.0906676   0.2942810  )
        14           Si  tau(  14) = (   0.0734325   0.4400640   0.6171060  )
        15           Si  tau(  15) = (   0.1445500   0.0988668   0.8081440  )
        16           Si  tau(  16) = (   0.8782820   0.5506230   0.9944670  )
        17           Si  tau(  17) = (   0.6929450   0.3565720   0.0939252  )
        18           Si  tau(  18) = (   0.3236570   0.4198780   0.2663040  )
        19           Si  tau(  19) = (   0.9857400   0.7216580   0.4902300  )
        20           Si  tau(  20) = (   0.7564510   0.2872600   0.2992300  )
        21           Si  tau(  21) = (   0.9225420   0.7938970   0.1470010  )
        22           Si  tau(  22) = (   0.6231930   0.1063060   0.9723340  )
        23           Si  tau(  23) = (   0.2437310   0.5802640   0.8159410  )
        24           Si  tau(  24) = (   0.2976890   0.3577580   0.4951460  )
        25           Si  tau(  25) = (   0.3073030   0.7788980   0.2984480  )
        26           Si  tau(  26) = (   0.3122460   0.9847090   0.6302030  )
        27           Si  tau(  27) = (   0.5268080   0.2325170   0.1417420  )
        28           Si  tau(  28) = (   0.3184560   0.6722890   0.5811070  )
        29           Si  tau(  29) = (   0.5938650   0.5897580   0.0399999  )
        30           Si  tau(  30) = (   0.3692990   0.2713970   0.7999170  )
        31           Si  tau(  31) = (   0.9622310   0.5722230   0.2388190  )
        32           Si  tau(  32) = (   0.5044180   0.4280170   0.8827970  )
        33           Si  tau(  33) = (   0.7685050   0.0486715   0.7386610  )
        34           Si  tau(  34) = (   0.2201020   0.0083626   0.4124300  )
        35           Si  tau(  35) = (   0.1529480   0.5071740   0.3538500  )
        36           Si  tau(  36) = (   0.6948180   0.6118220   0.6872690  )
        37           Si  tau(  37) = (   0.6939160   0.8735630   0.1377440  )
        38           Si  tau(  38) = (   0.8991570   0.6350140   0.6579780  )
        39           Si  tau(  39) = (   0.2564810   0.1920190   0.9576800  )
        40           Si  tau(  40) = (   0.4625800   0.8686540   0.9048410  )
        41           Si  tau(  41) = (   0.7316590   0.5976710   0.3656100  )
        42           Si  tau(  42) = (   0.8399900   0.2347400   0.6090440  )
        43           Si  tau(  43) = (   0.8830660   0.4925070   0.4816500  )
        44           Si  tau(  44) = (   0.0016690   0.2854240   0.7762750  )
        45           Si  tau(  45) = (   0.2867280   0.8925410   0.0411547  )
        46           Si  tau(  46) = (   0.0983972   0.8448460   0.3258940  )
        47           Si  tau(  47) = (   0.1661690   0.2024350   0.5362080  )
        48           Si  tau(  48) = (   0.0135548   0.6369280   0.8430480  )
        49           Si  tau(  49) = (   0.9572770   0.9687130   0.8460100  )
        50           Si  tau(  50) = (   0.2218180   0.4475360   0.0044486  )
        51           Si  tau(  51) = (   0.3598720   0.0872985   0.1267020  )
        52           Si  tau(  52) = (   0.5448350   0.7610180   0.6284200  )
        53           Si  tau(  53) = (   0.7025220   0.3603280   0.6735320  )
        54           Si  tau(  54) = (   0.5478000   0.9743730   0.7402920  )
        55           Si  tau(  55) = (   0.6495680   0.7826060   0.4172510  )
        56           Si  tau(  56) = (   0.5784020   0.3419970   0.4304850  )
        57           Si  tau(  57) = (   0.5848370   0.2097680   0.7601800  )
        58           Si  tau(  58) = (   0.9238040   0.9794700   0.3247000  )
        59           Si  tau(  59) = (   0.9166150   0.2288610   0.1423780  )
        60           Si  tau(  60) = (   0.6901210   0.0118887   0.2953250  )
        61           Si  tau(  61) = (   0.7682490   0.8712320   0.6123910  )
        62           Si  tau(  62) = (   0.3859490   0.5676210   0.0921235  )
        63           Si  tau(  63) = (   0.8466000   0.9968510   0.1076980  )
        64           Si  tau(  64) = (   0.5002140   0.7051100   0.2309620  )

     number of k points=     1  Fermi-Dirac smearing, width (Ry)=  0.0100
                       cart. coord. in units 2pi/alat
        k(    1) = (   0.0000000   0.0000000   0.0000000), wk =   2.0000000

     Dense  grid:    97020 G-vectors     FFT dimensions: (  72,  72,  72)

     Estimated max dynamical RAM per process >     154.61 MB

     Estimated total dynamical RAM >     594.76 MB

     Initial potential from superposition of free atoms

     starting charge     255.9608, renormalised to     256.0000
     Starting wfcs are  256 randomized atomic wfcs

     total cpu time spent up to now is        4.5 secs

     Self-consistent Calculation

     iteration #  1     ecut=    30.00 Ry     beta= 0.50
     Davidson diagonalization with overlap
     ethr =  1.00E-02,  avg # of iterations =  3.0

     Threshold (ethr) on eigenvalues was too large:
     Diagonalizing with lowered threshold

     Davidson diagonalization with overlap
     ethr =  5.88E-04,  avg # of iterations =  4.0

     total cpu time spent up to now is        4.7 secs

     total energy              =    -500.21273453 Ry
     estimated scf accuracy    <       1.92105364 Ry

     iteration #  2     ecut=    30.00 Ry     beta= 0.50
     Davidson diagonalization with overlap
     ethr =  7.50E-04,  avg # of iterations =  6.0

     total cpu time spent up to now is        4.8 secs

     total energy              =    -499.22860894 Ry
     estimated scf accuracy    <      14.85489421 Ry

     iteration #  3     ecut=    30.00 Ry     beta= 0.50
     Davidson diagonalization with overlap
     ethr =  7.50E-04,  avg # of iterations =  4.0

     total cpu time spent up to now is        4.9 secs

     total energy              =    -500.53819587 Ry
     estimated scf accuracy    <       2.42902489 Ry

     iteration #  4     ecut=    30.00 Ry     beta= 0.50
     Davidson diagonalization with overlap
     ethr =  7.50E-04,  avg # of iterations =  2.0

     total cpu time spent up to now is        5.0 secs

     total energy              =    -500.74372144 Ry
     estimated scf accuracy    <       0.57084077 Ry

     iteration #  5     ecut=    30.00 Ry     beta= 0.50
     Davidson diagonalization with overlap
     ethr =  2.23E-04,  avg # of iterations =  2.0

     total cpu time spent up to now is        5.0 secs

     total energy              =    -500.78322680 Ry
     estimated scf accuracy    <       0.24073446 Ry

     iteration #  6     ecut=    30.00 Ry     beta= 0.50
     Davidson diagonalization with overlap
     ethr =  9.40E-05,  avg # of iterations =  3.0

     total cpu time spent up to now is        5.1 secs

     total energy              =    -500.80131401 Ry
     estimated scf accuracy    <       0.24491292 Ry

     iteration #  7     ecut=    30.00 Ry     beta= 0.50
     Davidson diagonalization with overlap
     ethr =  9.40E-05,  avg # of iterations =  1.0

     total cpu time spent up to now is        5.2 secs

     total energy              =    -500.82095550 Ry
     estimated scf accuracy    <       0.01356103 Ry

     iteration #  8     ecut=    30.00 Ry     beta= 0.50
     Davidson diagonalization with overlap
     ethr =  5.30E-06,  avg # of iterations = 13.0

     total cpu time spent up to now is        5.4 secs

     total energy              =    -500.82193604 Ry
     estimated scf accuracy    <       0.03165734 Ry

     iteration #  9     ecut=    30.00 Ry     beta= 0.50
     Davidson diagonalization with overlap
     ethr =  5.30E-06,  avg # of iterations =  3.0

     total cpu time spent up to now is        5.5 secs

     total energy              =    -500.82457210 Ry
     estimated scf accuracy    <       0.00385831 Ry

     iteration # 10     ecut=    30.00 Ry     beta= 0.50
     Davidson diagonalization with overlap
     ethr =  1.51E-06,  avg # of iterations = 14.0

     total cpu time spent up to now is        5.6 secs

     total energy              =    -500.82480781 Ry
     estimated scf accuracy    <       0.00241239 Ry

     iteration # 11     ecut=    30.00 Ry     beta= 0.50
     Davidson diagonalization with overlap
     ethr =  9.42E-07,  avg # of iterations =  2.0

     total cpu time spent up to now is        5.7 secs

     total energy              =    -500.82494048 Ry
     estimated scf accuracy    <       0.00137129 Ry

     iteration # 12     ecut=    30.00 Ry     beta= 0.50
     Davidson diagonalization with overlap
     ethr =  5.36E-07,  avg # of iterations =  2.0

     total cpu time spent up to now is        5.8 secs

     total energy              =    -500.82506111 Ry
     estimated scf accuracy    <       0.00043854 Ry

     iteration # 13     ecut=    30.00 Ry     beta= 0.50
     Davidson diagonalization with overlap
     ethr =  1.71E-07,  avg # of iterations =  2.0

     total cpu time spent up to now is        5.9 secs

     total energy              =    -500.82509625 Ry
     estimated scf accuracy    <       0.00021649 Ry

     iteration # 14     ecut=    30.00 Ry     beta= 0.50
     Davidson diagonalization with overlap
     ethr =  8.46E-08,  avg # of iterations =  2.0

     total cpu time spent up to now is        5.9 secs

     total energy              =    -500.82511152 Ry
     estimated scf accuracy    <       0.00004577 Ry

     iteration # 15     ecut=    30.00 Ry     beta= 0.50
     Davidson diagonalization with overlap
     ethr =  1.79E-08,  avg # of iterations =  2.0

     total cpu time spent up to now is        6.0 secs

     total energy              =    -500.82511382 Ry
     estimated scf accuracy    <       0.00003297 Ry

     iteration # 16     ecut=    30.00 Ry     beta= 0.50
     Davidson diagonalization with overlap
     ethr =  1.29E-08,  avg # of iterations =  3.0

     total cpu time spent up to now is        6.1 secs

     total energy              =    -500.82511678 Ry
     estimated scf accuracy    <       0.00003668 Ry

     iteration # 17     ecut=    30.00 Ry     beta= 0.50
     Davidson diagonalization with overlap
     ethr =  1.29E-08,  avg # of iterations =  1.0

     total cpu time spent up to now is        6.2 secs

     total energy              =    -500.82511893 Ry
     estimated scf accuracy    <       0.00000178 Ry

     iteration # 18     ecut=    30.00 Ry     beta= 0.50
     Davidson diagonalization with overlap
     ethr =  6.94E-10,  avg # of iterations =  6.0

     total cpu time spent up to now is        6.3 secs

     total energy              =    -500.82511917 Ry
     estimated scf accuracy    <       0.00000341 Ry

     iteration # 19     ecut=    30.00 Ry     beta= 0.50
     Davidson diagonalization with overlap
     ethr =  6.94E-10,  avg # of iterations =  2.0

     total cpu time spent up to now is        6.4 secs

     End of self-consistent calculation

          k = 0.0000 0.0000 0.0000 ( 12104 PWs)   bands (ev):

    -6.2136  -5.6345  -5.4433  -5.1569  -4.9817  -4.9217  -4.7781  -4.5836
    -4.4693  -4.2952  -4.1135  -4.0733  -3.8659  -3.7036  -3.6517  -3.5580
    -3.3021  -3.2031  -3.1028  -3.0674  -2.8436  -2.7514  -2.6555  -2.4566
    -2.2736  -2.0802  -2.0150  -1.8046  -1.7761  -1.6694  -1.3735  -1.2144
    -1.1705  -1.0024  -0.9132  -0.8623  -0.8253  -0.7188  -0.6327  -0.5598
    -0.4483  -0.3627  -0.2690  -0.1362  -0.0955   0.0622   0.1745   0.2533
     0.2697   0.4015   0.4948   0.5457   0.7006   0.8166   0.8758   0.9090
     1.1252   1.1942   1.2605   1.4126   1.5425   1.5927   1.6844   1.8365
     1.8991   1.9333   2.0411   2.1938   2.2245   2.3140   2.4020   2.4385
     2.4891   2.5843   2.6370   2.7277   2.8547   2.9475   3.0350   3.2095
     3.2973   3.4659   3.5020   3.5627   3.6586   3.7084   3.7780   3.8545
     3.9106   3.9652   4.0018   4.0356   4.1041   4.1803   4.2497   4.2966
     4.3622   4.4188   4.5358   4.5944   4.6605   4.7179   4.7679   4.8676
     4.8981   5.0190   5.0680   5.1047   5.1957   5.2321   5.2867   5.3139
     5.3388   5.5067   5.5500   5.5938   5.6545   5.7599   5.7770   5.8288
     5.9248   5.9443   5.9966   6.0463   6.0934   6.1268   6.2543   6.3410
     6.3721   6.4430   6.5156   6.5502   6.6264   6.7003   6.7320   6.7564
     6.8089   6.9548   6.9704   7.0126   7.0303   7.0653   7.1543   7.2037
     7.3044   7.3224   7.3421   7.4384   7.5483   7.6388   7.7020   7.7504
     7.8196   7.8384

     the Fermi energy is     6.3404 ev

!    total energy              =    -500.82511891 Ry
     estimated scf accuracy    <       0.00000071 Ry
     smearing contrib. (-TS)   =      -0.14539199 Ry
     internal energy E=F+TS    =    -500.67972691 Ry

     The total energy is F=E-TS. E is the sum of the following terms:
     one-electron contribution =     132.88256605 Ry
     hartree contribution      =      43.89974093 Ry
     xc contribution           =    -150.12207978 Ry
     ewald contribution        =    -527.33995411 Ry

     convergence has been achieved in  19 iterations

     Forces acting on atoms (cartesian axes, Ry/au):

     atom    1 type  1   force =     0.03829591    0.01686927   -0.01011339
     atom    2 type  1   force =    -0.01724054    0.01190184    0.01113650
     atom    3 type  1   force =     0.04753036   -0.04917450    0.08141769
     atom    4 type  1   force =     0.03121778    0.02896313    0.04278736
     atom    5 type  1   force =    -0.06215416    0.02775952    0.00584142
     atom    6 type  1   force =     0.01928043   -0.02882218   -0.00098151
     atom    7 type  1   force =    -0.02746976   -0.01921491   -0.01207057
     atom    8 type  1   force =     0.01755633   -0.07471611    0.04947698
     atom    9 type  1   force =     0.01175221   -0.06348627    0.01987728
     atom   10 type  1   force =    -0.04979575    0.04389068   -0.05255894
     atom   11 type  1   force =    -0.01016541    0.04089063    0.01130655
     atom   12 type  1   force =    -0.00578453    0.06937899   -0.00155653
     atom   13 type  1   force =    -0.00386492   -0.02295130    0.05909124
     atom   14 type  1   force =     0.00464113   -0.00453570    0.00143020
     atom   15 type  1   force =    -0.03600855    0.00115413   -0.04557627
     atom   16 type  1   force =     0.01270840   -0.02669727    0.00118422
     atom   17 type  1   force =     0.01021300    0.01967211   -0.00836715
     atom   18 type  1   force =     0.02524542   -0.02397187   -0.03365577
     atom   19 type  1   force =     0.01368384    0.01223638   -0.04694408
     atom   20 type  1   force =     0.02372096    0.00367035   -0.00674887
     atom   21 type  1   force =     0.02748944   -0.02349335    0.00227073
     atom   22 type  1   force =     0.00853010   -0.00467072   -0.00446973
     atom   23 type  1   force =    -0.02602327    0.01341874   -0.01899004
     atom   24 type  1   force =     0.00574143    0.01578605   -0.00609881
     atom   25 type  1   force =     0.00785309   -0.00507973    0.00214908
     atom   26 type  1   force =    -0.01739345   -0.01532293    0.00218090
     atom   27 type  1   force =     0.00224263    0.01211381   -0.00193618
     atom   28 type  1   force =     0.02639090   -0.01072492    0.00474372
     atom   29 type  1   force =     0.01588839   -0.00157569    0.01215369
     atom   30 type  1   force =     0.02422599    0.00177958   -0.01619266
     atom   31 type  1   force =    -0.00009487    0.01446601   -0.00015606
     atom   32 type  1   force =    -0.02117890   -0.00240824    0.00189020
     atom   33 type  1   force =     0.01586932    0.01467267    0.00863622
     atom   34 type  1   force =     0.02569691    0.00777606    0.03064179
     atom   35 type  1   force =    -0.04277468    0.01372361    0.03051077
     atom   36 type  1   force =    -0.04126035    0.03453445   -0.08477286
     atom   37 type  1   force =    -0.10116831   -0.10391781   -0.01950908
     atom   38 type  1   force =     0.03569537    0.01527249    0.02741012
     atom   39 type  1   force =    -0.00172143    0.03194875    0.04507987
     atom   40 type  1   force =    -0.00464032   -0.01228923    0.01393932
     atom   41 type  1   force =     0.01618471   -0.03288485   -0.02191584
     atom   42 type  1   force =     0.08510954   -0.06890476   -0.01506881
     atom   43 type  1   force =     0.02801735   -0.02611174    0.00401540
     atom   44 type  1   force =     0.01684753   -0.01276068   -0.01445561
     atom   45 type  1   force =     0.02180264    0.01875826    0.02581321
     atom   46 type  1   force =    -0.02119871   -0.01584098    0.01590951
     atom   47 type  1   force =    -0.02668825   -0.04062882    0.00607148
     atom   48 type  1   force =     0.03117466    0.01992587   -0.00184156
     atom   49 type  1   force =    -0.03734237    0.05095871   -0.04101337
     atom   50 type  1   force =     0.01328388   -0.01201305   -0.01286786
     atom   51 type  1   force =    -0.03532865   -0.03136576   -0.04671971
     atom   52 type  1   force =    -0.01630210    0.01884413   -0.01273728
     atom   53 type  1   force =    -0.06553379    0.10326713    0.00380113
     atom   54 type  1   force =    -0.01886799   -0.00149163   -0.03293324
     atom   55 type  1   force =     0.01863220    0.05088185    0.01073334
     atom   56 type  1   force =    -0.00121609    0.02602610    0.01622155
     atom   57 type  1   force =    -0.05477660   -0.03257201    0.02908977
     atom   58 type  1   force =    -0.01933491    0.03571274   -0.01510111
     atom   59 type  1   force =    -0.04800192   -0.03896796    0.01647853
     atom   60 type  1   force =     0.01709369    0.00475978    0.04643928
     atom   61 type  1   force =    -0.00243811   -0.04728048   -0.03329322
     atom   62 type  1   force =    -0.00354350   -0.03088220   -0.00974879
     atom   63 type  1   force =     0.08306469    0.10693761   -0.03231506
     atom   64 type  1   force =     0.03663199   -0.00319376    0.02098091

     Total force =     0.455704     Total SCF correction =     0.001642


     Computing stress (Cartesian axis) and pressure

          total   stress  (Ry/bohr**3)                   (kbar)     P=      -18.72
  -0.00007047   0.00000743  -0.00001762          -10.37        1.09       -2.59
   0.00000743  -0.00010685  -0.00003028            1.09      -15.72       -4.45
  -0.00001762  -0.00003028  -0.00020437           -2.59       -4.45      -30.06

 
     init_run     :      0.96s CPU      4.40s WALL (       1 calls)
     electrons    :      1.79s CPU      1.92s WALL (       1 calls)
     forces       :      0.03s CPU      0.03s WALL (       1 calls)
     stress       :      0.15s CPU      0.15s WALL (       1 calls)

     Called by init_run:
     wfcinit      :      0.44s CPU      3.73s WALL (       1 calls)
                                        3.73s GPU  (       1 calls)
     potinit      :      0.04s CPU      0.13s WALL (       1 calls)
     hinit0       :      0.46s CPU      0.48s WALL (       1 calls)

     Called by electrons:
     c_bands      :      1.15s CPU      1.22s WALL (      20 calls)
     sum_band     :      0.33s CPU      0.37s WALL (      20 calls)
     v_of_rho     :      0.14s CPU      0.23s WALL (      20 calls)
     mix_rho      :      0.15s CPU      0.16s WALL (      20 calls)

     Called by c_bands:
     init_us_2    :      0.05s CPU      0.05s WALL (      41 calls)
     init_us_2:gp :      0.05s CPU      0.05s WALL (      41 calls)
     regterg      :      1.00s CPU      1.06s WALL (      20 calls)

     Called by *egterg:
     rdiaghg      :      0.41s CPU      1.08s WALL (      96 calls)
                                        1.06s GPU  (      96 calls)
     h_psi        :      0.85s CPU      3.52s WALL (      98 calls)
                                        3.52s GPU  (      98 calls)
     g_psi        :      0.00s CPU      0.00s WALL (      77 calls)
                                        0.00s GPU  (      77 calls)

     Called by h_psi:
     h_psi:calbec :      0.43s CPU      3.02s WALL (      98 calls)
                                        3.02s GPU  (      98 calls)
     vloc_psi     :      0.36s CPU      0.44s WALL (      98 calls)
                                        0.43s GPU  (      98 calls)
     add_vuspsi   :      0.04s CPU      0.06s WALL (      98 calls)
                                        0.06s GPU  (      98 calls)

     General routines
     calbec       :      0.44s CPU      3.02s WALL (     103 calls)
     fft          :      0.56s CPU      0.67s WALL (     167 calls)
                                        0.12s GPU  (     106 calls)
     ffts         :      0.03s CPU      0.04s WALL (      20 calls)
     fftw         :      0.45s CPU      0.60s WALL (    2130 calls)
                                        0.52s GPU  (    2130 calls)
 
     Parallel routines
 
     PWSCF        :      2.97s CPU      6.58s WALL

 
   This run was terminated on:  15:16:21  11May2023            

=------------------------------------------------------------------------------=
   JOB DONE.
=------------------------------------------------------------------------------=
