An instance of this daemon is already running
An instance of this daemon is already running

     Program PWSCF v.7.1 starts on 11May2023 at 15:15:57 

     This program is part of the open-source Quantum ESPRESSO suite
     for quantum simulation of materials; please cite
         "P. Giannozzi et al., J. Phys.:Condens. Matter 21 395502 (2009);
         "P. Giannozzi et al., J. Phys.:Condens. Matter 29 465901 (2017);
         "P. Giannozzi et al., J. Chem. Phys. 152 154105 (2020);
          URL http://www.quantum-espresso.org", 
     in publications or presentations arising from this work. More details at
     http://www.quantum-espresso.org/quote

     Parallel version (MPI & OpenMP), running on       4 processor cores
     Number of MPI processes:                 4
     Threads/MPI process:                     1

     MPI processes distributed on     1 nodes
     1009943 MiB available memory on the printing compute node when the environment starts
 
     Reading input from pw-si-72.in
Warning: card &CELL ignored
Warning: card / ignored

     Current dimensions of program PWSCF are:
     Max number of different atomic species (ntypx) = 10
     Max number of k-points (npk) =  40000
     Max angular momentum in pseudopotentials (lmaxx) =  4

     IMPORTANT: XC functional enforced from input :
     Exchange-correlation= PBE
                           (   1   4   3   4   0   0   0)
     Any further DFT definition will be discarded
     Please, verify this is what you really want


     gamma-point specific algorithms are used
 
     K-points division:     npool     =       2
     R & G space division:  proc/nbgrp/npool/nimage =       2
     Subspace diagonalization in iterative solution of the eigenvalue problem:
     a serial algorithm will be used

     Message from routine divide_et_impera:
     suboptimal parallelization: some nodes have no k-points
 
     Parallelization info
     --------------------
     sticks:   dense  smooth     PW     G-vecs:    dense   smooth      PW
     Min        2057    2057    541                99229    99229   13477
     Max        2060    2060    544                99232    99232   13484
     Sum        4117    4117   1085               198461   198461   26961
 
     Using Slab Decomposition
 


     bravais-lattice index     =            0
     lattice parameter (alat)  =      20.7597  a.u.
     unit-cell volume          =    8946.6999 (a.u.)^3
     number of atoms/cell      =           64
     number of atomic types    =            1
     number of electrons       =       256.00
     number of Kohn-Sham states=          154
     kinetic-energy cutoff     =      30.0000  Ry
     charge density cutoff     =     120.0000  Ry
     scf convergence threshold =      1.0E-06
     mixing beta               =       0.5000
     number of iterations used =            8  plain     mixing
     Exchange-correlation= PBE
                           (   1   4   3   4   0   0   0)

     GPU acceleration is ACTIVE.
     GPU-aware MPI enabled

     Message from routine print_cuda_info:
     High GPU oversubscription detected. Are you sure this is what you want?

     celldm(1)=  20.759694  celldm(2)=   0.000000  celldm(3)=   0.000000
     celldm(4)=   0.000000  celldm(5)=   0.000000  celldm(6)=   0.000000

     crystal axes: (cart. coord. in units of alat)
               a(1) = (   1.000000   0.000000   0.000000 )  
               a(2) = (   0.000000   1.000000   0.000000 )  
               a(3) = (   0.000000   0.000000   1.000000 )  

     reciprocal axes: (cart. coord. in units 2 pi/alat)
               b(1) = (  1.000000  0.000000  0.000000 )  
               b(2) = (  0.000000  1.000000  0.000000 )  
               b(3) = (  0.000000  0.000000  1.000000 )  


     PseudoPot. # 1 for Si read from file:
     /home/ppiaggi/pseudos/Si_ONCV_PBE_sr.upf
     MD5 check sum: 8553c464762ac42b85b1eed164b4d029
     Pseudo is Norm-conserving, Zval =  4.0
     Generated using ONCVPSP code by D. R. Hamann
     Using radial grid of 1510 points,  4 beta functions with: 
                l(1) =   0
                l(2) =   0
                l(3) =   1
                l(4) =   1

     atomic species   valence    mass     pseudopotential
        Si             4.00    28.08500     Si( 1.00)

     No symmetry found



   Cartesian axes

     site n.     atom                  positions (alat units)
         1           Si  tau(   1) = (   0.9981790   0.2268910   0.4980330  )
         2           Si  tau(   2) = (   0.6309290   0.1936650   0.9237130  )
         3           Si  tau(   3) = (   0.3932360   0.8165010   0.9521400  )
         4           Si  tau(   4) = (   0.4287400   0.8927950   0.7728100  )
         5           Si  tau(   5) = (   0.2981490   0.9530770   0.5414810  )
         6           Si  tau(   6) = (   0.3820900   0.3974840   0.4152530  )
         7           Si  tau(   7) = (   0.8368130   0.5589960   0.7085970  )
         8           Si  tau(   8) = (   0.2432200   0.4472200   0.2133740  )
         9           Si  tau(   9) = (   0.0863233   0.0561245   0.4473040  )
        10           Si  tau(  10) = (   0.0077469   0.3578160   0.3042780  )
        11           Si  tau(  11) = (   0.2044230   0.3054650   0.9389970  )
        12           Si  tau(  12) = (   0.6109680   0.9734490   0.2303660  )
        13           Si  tau(  13) = (   0.7664080   0.7514630   0.8567450  )
        14           Si  tau(  14) = (   0.7976730   0.3882350   0.3778570  )
        15           Si  tau(  15) = (   0.3298340   0.2271150   0.6924030  )
        16           Si  tau(  16) = (   0.0964008   0.7861300   0.0640956  )
        17           Si  tau(  17) = (   0.5352300   0.2747750   0.6977570  )
        18           Si  tau(  18) = (   0.8915180   0.3370270   0.0931678  )
        19           Si  tau(  19) = (   0.9477300   0.8965010   0.4329650  )
        20           Si  tau(  20) = (   0.5638030   0.6433400   0.2677460  )
        21           Si  tau(  21) = (   0.1757720   0.4780300   0.4470760  )
        22           Si  tau(  22) = (   0.3377310   0.5009720   0.6334880  )
        23           Si  tau(  23) = (   0.8674110   0.8925840   0.9774160  )
        24           Si  tau(  24) = (   0.1594240   0.3066560   0.6147590  )
        25           Si  tau(  25) = (   0.4156390   0.1761780   0.2317120  )
        26           Si  tau(  26) = (   0.0062245   0.2317960   0.7589460  )
        27           Si  tau(  27) = (   0.3344840   0.7951170   0.3527560  )
        28           Si  tau(  28) = (   0.0514690   0.5433170   0.0999476  )
        29           Si  tau(  29) = (   0.5321200   0.7917280   0.1386500  )
        30           Si  tau(  30) = (   0.5637270   0.2464450   0.4476410  )
        31           Si  tau(  31) = (   0.9092260   0.8461800   0.2003210  )
        32           Si  tau(  32) = (   0.7056950   0.6700410   0.0418321  )
        33           Si  tau(  33) = (   0.7811060   0.1064890   0.0196028  )
        34           Si  tau(  34) = (   0.4196280   0.1937990   0.9133200  )
        35           Si  tau(  35) = (   0.3386710   0.1720730   0.4716230  )
        36           Si  tau(  36) = (   0.0430020   0.6118920   0.3045270  )
        37           Si  tau(  37) = (   0.3013110   0.7607620   0.1347950  )
        38           Si  tau(  38) = (   0.7562520   0.4160620   0.5683020  )
        39           Si  tau(  39) = (   0.3909840   0.9670080   0.2058480  )
        40           Si  tau(  40) = (   0.3622710   0.3964050   0.8183050  )
        41           Si  tau(  41) = (   0.8448500   0.6390860   0.2191290  )
        42           Si  tau(  42) = (   0.0427801   0.0016838   0.1933190  )
        43           Si  tau(  43) = (   0.8102200   0.3230920   0.8278070  )
        44           Si  tau(  44) = (   0.9667620   0.8875470   0.6930410  )
        45           Si  tau(  45) = (   0.2216770   0.9455910   0.0606187  )
        46           Si  tau(  46) = (   0.6291580   0.9619910   0.8087470  )
        47           Si  tau(  47) = (   0.7804830   0.2158400   0.6405700  )
        48           Si  tau(  48) = (   0.9812490   0.0842376   0.9478070  )
        49           Si  tau(  49) = (   0.8580360   0.1794900   0.2494910  )
        50           Si  tau(  50) = (   0.1565760   0.1740850   0.3103540  )
        51           Si  tau(  51) = (   0.6140430   0.3392910   0.2002530  )
        52           Si  tau(  52) = (   0.6997370   0.4289120   0.9918160  )
        53           Si  tau(  53) = (   0.6801510   0.8144030   0.3902140  )
        54           Si  tau(  54) = (   0.0299808   0.4303160   0.8360880  )
        55           Si  tau(  55) = (   0.7508330   0.9909770   0.6377660  )
        56           Si  tau(  56) = (   0.5174790   0.7991860   0.5883410  )
        57           Si  tau(  57) = (   0.5571860   0.5929340   0.6088710  )
        58           Si  tau(  58) = (   0.2032710   0.6791670   0.4859790  )
        59           Si  tau(  59) = (   0.7927130   0.7805370   0.5856640  )
        60           Si  tau(  60) = (   0.5741340   0.7191660   0.7942660  )
        61           Si  tau(  61) = (   0.6786560   0.0673501   0.4401110  )
        62           Si  tau(  62) = (   0.3818020   0.5941020   0.8495360  )
        63           Si  tau(  63) = (   0.4274770   0.6056530   0.4209960  )
        64           Si  tau(  64) = (   0.7314120   0.6166790   0.4271640  )

     number of k points=     1  Fermi-Dirac smearing, width (Ry)=  0.0100
                       cart. coord. in units 2pi/alat
        k(    1) = (   0.0000000   0.0000000   0.0000000), wk =   2.0000000

     Dense  grid:    99231 G-vectors     FFT dimensions: (  75,  75,  75)

     Estimated max dynamical RAM per process >     159.73 MB

     Estimated total dynamical RAM >     614.70 MB

     Initial potential from superposition of free atoms

     starting charge     255.9608, renormalised to     256.0000
     Starting wfcs are  256 randomized atomic wfcs

     total cpu time spent up to now is        4.1 secs

     Self-consistent Calculation

     iteration #  1     ecut=    30.00 Ry     beta= 0.50
     Davidson diagonalization with overlap
     ethr =  1.00E-02,  avg # of iterations =  3.0

     Threshold (ethr) on eigenvalues was too large:
     Diagonalizing with lowered threshold

     Davidson diagonalization with overlap
     ethr =  6.65E-04,  avg # of iterations =  4.0

     total cpu time spent up to now is        4.4 secs

     total energy              =    -499.97626215 Ry
     estimated scf accuracy    <       2.23407280 Ry

     iteration #  2     ecut=    30.00 Ry     beta= 0.50
     Davidson diagonalization with overlap
     ethr =  8.73E-04,  avg # of iterations =  5.0

     total cpu time spent up to now is        4.5 secs

     total energy              =    -499.42653606 Ry
     estimated scf accuracy    <       9.28468486 Ry

     iteration #  3     ecut=    30.00 Ry     beta= 0.50
     Davidson diagonalization with overlap
     ethr =  8.73E-04,  avg # of iterations =  4.0

     total cpu time spent up to now is        4.6 secs

     total energy              =    -500.24849859 Ry
     estimated scf accuracy    <       4.81826973 Ry

     iteration #  4     ecut=    30.00 Ry     beta= 0.50
     Davidson diagonalization with overlap
     ethr =  8.73E-04,  avg # of iterations =  2.0

     total cpu time spent up to now is        4.7 secs

     total energy              =    -500.63739391 Ry
     estimated scf accuracy    <       0.77808385 Ry

     iteration #  5     ecut=    30.00 Ry     beta= 0.50
     Davidson diagonalization with overlap
     ethr =  3.04E-04,  avg # of iterations =  2.0

     total cpu time spent up to now is        4.8 secs

     total energy              =    -500.66437720 Ry
     estimated scf accuracy    <       0.66244807 Ry

     iteration #  6     ecut=    30.00 Ry     beta= 0.50
     Davidson diagonalization with overlap
     ethr =  2.59E-04,  avg # of iterations =  2.0

     total cpu time spent up to now is        4.9 secs

     total energy              =    -500.71951889 Ry
     estimated scf accuracy    <       0.16093737 Ry

     iteration #  7     ecut=    30.00 Ry     beta= 0.50
     Davidson diagonalization with overlap
     ethr =  6.29E-05,  avg # of iterations =  2.0

     total cpu time spent up to now is        5.0 secs

     total energy              =    -500.73497877 Ry
     estimated scf accuracy    <       0.04357245 Ry

     iteration #  8     ecut=    30.00 Ry     beta= 0.50
     Davidson diagonalization with overlap
     ethr =  1.70E-05,  avg # of iterations = 14.0

     total cpu time spent up to now is        5.2 secs

     total energy              =    -500.73804061 Ry
     estimated scf accuracy    <       0.04665077 Ry

     iteration #  9     ecut=    30.00 Ry     beta= 0.50
     Davidson diagonalization with overlap
     ethr =  1.70E-05,  avg # of iterations =  2.0

     total cpu time spent up to now is        5.3 secs

     total energy              =    -500.74153017 Ry
     estimated scf accuracy    <       0.00623579 Ry

     iteration # 10     ecut=    30.00 Ry     beta= 0.50
     Davidson diagonalization with overlap
     ethr =  2.44E-06,  avg # of iterations =  7.0

     total cpu time spent up to now is        5.4 secs

     total energy              =    -500.74214870 Ry
     estimated scf accuracy    <       0.00541192 Ry

     iteration # 11     ecut=    30.00 Ry     beta= 0.50
     Davidson diagonalization with overlap
     ethr =  2.11E-06,  avg # of iterations =  2.0

     total cpu time spent up to now is        5.5 secs

     total energy              =    -500.74253722 Ry
     estimated scf accuracy    <       0.00143135 Ry

     iteration # 12     ecut=    30.00 Ry     beta= 0.50
     Davidson diagonalization with overlap
     ethr =  5.59E-07,  avg # of iterations =  2.0

     total cpu time spent up to now is        5.6 secs

     total energy              =    -500.74263724 Ry
     estimated scf accuracy    <       0.00073047 Ry

     iteration # 13     ecut=    30.00 Ry     beta= 0.50
     Davidson diagonalization with overlap
     ethr =  2.85E-07,  avg # of iterations =  2.0

     total cpu time spent up to now is        5.7 secs

     total energy              =    -500.74270568 Ry
     estimated scf accuracy    <       0.00085679 Ry

     iteration # 14     ecut=    30.00 Ry     beta= 0.50
     Davidson diagonalization with overlap
     ethr =  2.85E-07,  avg # of iterations =  1.0

     total cpu time spent up to now is        5.8 secs

     total energy              =    -500.74275499 Ry
     estimated scf accuracy    <       0.00004536 Ry

     iteration # 15     ecut=    30.00 Ry     beta= 0.50
     Davidson diagonalization with overlap
     ethr =  1.77E-08,  avg # of iterations =  4.0

     total cpu time spent up to now is        5.9 secs

     total energy              =    -500.74276132 Ry
     estimated scf accuracy    <       0.00009376 Ry

     iteration # 16     ecut=    30.00 Ry     beta= 0.50
     Davidson diagonalization with overlap
     ethr =  1.77E-08,  avg # of iterations =  2.0

     total cpu time spent up to now is        6.0 secs

     total energy              =    -500.74276865 Ry
     estimated scf accuracy    <       0.00001882 Ry

     iteration # 17     ecut=    30.00 Ry     beta= 0.50
     Davidson diagonalization with overlap
     ethr =  7.35E-09,  avg # of iterations =  2.0

     total cpu time spent up to now is        6.1 secs

     total energy              =    -500.74276963 Ry
     estimated scf accuracy    <       0.00000783 Ry

     iteration # 18     ecut=    30.00 Ry     beta= 0.50
     Davidson diagonalization with overlap
     ethr =  3.06E-09,  avg # of iterations =  3.0

     total cpu time spent up to now is        6.2 secs

     total energy              =    -500.74277006 Ry
     estimated scf accuracy    <       0.00001079 Ry

     iteration # 19     ecut=    30.00 Ry     beta= 0.50
     Davidson diagonalization with overlap
     ethr =  3.06E-09,  avg # of iterations =  2.0

     total cpu time spent up to now is        6.3 secs

     total energy              =    -500.74277058 Ry
     estimated scf accuracy    <       0.00000201 Ry

     iteration # 20     ecut=    30.00 Ry     beta= 0.50
     Davidson diagonalization with overlap
     ethr =  7.87E-10,  avg # of iterations =  2.0

     total cpu time spent up to now is        6.4 secs

     End of self-consistent calculation

          k = 0.0000 0.0000 0.0000 ( 12419 PWs)   bands (ev):

    -6.7208  -6.2273  -5.9880  -5.8083  -5.6929  -5.3847  -5.1949  -5.0769
    -4.7730  -4.7211  -4.5726  -4.4917  -4.3192  -3.9937  -3.8994  -3.7942
    -3.7349  -3.5989  -3.4009  -3.1968  -3.1523  -3.0566  -2.8314  -2.6584
    -2.5536  -2.2592  -2.1362  -2.0785  -2.0598  -1.8885  -1.7698  -1.7091
    -1.5797  -1.3991  -1.2845  -1.2195  -1.1157  -1.0456  -1.0027  -0.8498
    -0.7718  -0.6759  -0.4873  -0.4143  -0.3502  -0.1801  -0.1056  -0.0229
     0.0248   0.1270   0.2696   0.3084   0.4088   0.4977   0.5862   0.6402
     0.7354   0.8177   0.8565   0.9302   1.0350   1.3484   1.4251   1.5286
     1.6602   1.7409   1.8677   1.8715   2.0183   2.1162   2.1768   2.3888
     2.4160   2.4597   2.5207   2.6008   2.6927   2.7501   2.8355   2.9291
     3.0365   3.0734   3.1216   3.1883   3.2298   3.3663   3.5280   3.5338
     3.5731   3.5882   3.7464   3.8578   3.8655   3.9598   3.9865   4.0676
     4.1482   4.1936   4.2474   4.3489   4.3866   4.4015   4.4990   4.5300
     4.6127   4.7090   4.7745   4.8734   4.8950   4.9293   4.9897   5.0758
     5.1001   5.1315   5.1458   5.3265   5.3956   5.4770   5.4853   5.5319
     5.5939   5.6258   5.7296   5.7657   5.8517   5.9423   5.9861   6.0317
     6.0482   6.1043   6.2063   6.2616   6.2861   6.4112   6.4982   6.5383
     6.5850   6.6668   6.7372   6.7522   6.8312   6.8509   6.8818   6.9646
     7.0153   7.0865   7.1624   7.1825   7.2695   7.3043   7.3792   7.4822
     7.5414   7.5939

     the Fermi energy is     6.0526 ev

!    total energy              =    -500.74277019 Ry
     estimated scf accuracy    <       0.00000089 Ry
     smearing contrib. (-TS)   =      -0.14890948 Ry
     internal energy E=F+TS    =    -500.59386072 Ry

     The total energy is F=E-TS. E is the sum of the following terms:
     one-electron contribution =      78.92090213 Ry
     hartree contribution      =      68.32739378 Ry
     xc contribution           =    -150.57215890 Ry
     ewald contribution        =    -497.26999773 Ry

     convergence has been achieved in  20 iterations

     Forces acting on atoms (cartesian axes, Ry/au):

     atom    1 type  1   force =    -0.06766912    0.06542475    0.02538872
     atom    2 type  1   force =    -0.02991597    0.04221854   -0.05762955
     atom    3 type  1   force =     0.00775779   -0.04927530    0.04659378
     atom    4 type  1   force =     0.02065438    0.04752151   -0.08273190
     atom    5 type  1   force =    -0.01051985    0.01181202   -0.01112350
     atom    6 type  1   force =    -0.00153285   -0.02963525   -0.00393589
     atom    7 type  1   force =     0.00530483    0.00922675    0.03448594
     atom    8 type  1   force =    -0.02962976    0.00730573    0.00567796
     atom    9 type  1   force =     0.01873380   -0.14932927    0.08266125
     atom   10 type  1   force =     0.01893352    0.00807259    0.00257168
     atom   11 type  1   force =    -0.00928004    0.01033014   -0.00744252
     atom   12 type  1   force =     0.03144035    0.02340776    0.01562942
     atom   13 type  1   force =     0.05338915   -0.01008499   -0.03903338
     atom   14 type  1   force =    -0.00896963   -0.00619200   -0.10901923
     atom   15 type  1   force =     0.01067353   -0.06405083    0.00814069
     atom   16 type  1   force =    -0.07006652   -0.08121518    0.01240086
     atom   17 type  1   force =     0.04244021    0.02336021    0.00584374
     atom   18 type  1   force =    -0.00144281    0.01405856   -0.01937512
     atom   19 type  1   force =    -0.03358532   -0.02403540   -0.00118281
     atom   20 type  1   force =     0.03620456   -0.05672691    0.04004673
     atom   21 type  1   force =    -0.02367623   -0.04068590   -0.01880070
     atom   22 type  1   force =     0.01304470    0.01929114   -0.00970268
     atom   23 type  1   force =     0.01531321    0.02353511    0.03148288
     atom   24 type  1   force =    -0.04897918    0.04317518   -0.01677552
     atom   25 type  1   force =     0.00145783    0.01801060    0.02926293
     atom   26 type  1   force =     0.01103165   -0.01879821    0.00382415
     atom   27 type  1   force =    -0.02065527    0.00640964    0.02134702
     atom   28 type  1   force =     0.00557229   -0.01937908   -0.01738127
     atom   29 type  1   force =     0.01120638    0.05168013   -0.08227450
     atom   30 type  1   force =    -0.02643909    0.03428260   -0.00044758
     atom   31 type  1   force =    -0.02539922   -0.03821073   -0.00368965
     atom   32 type  1   force =    -0.02820694   -0.04313690    0.03121967
     atom   33 type  1   force =     0.04968150   -0.02698658    0.08661898
     atom   34 type  1   force =    -0.04241597   -0.00466740   -0.00950892
     atom   35 type  1   force =     0.00399280   -0.01395089   -0.02177407
     atom   36 type  1   force =     0.04743023    0.00838446    0.02833147
     atom   37 type  1   force =    -0.01039076   -0.07101873    0.06136196
     atom   38 type  1   force =    -0.04662371    0.01277688    0.06210771
     atom   39 type  1   force =    -0.01067891   -0.00879094    0.00735832
     atom   40 type  1   force =     0.01260606   -0.05104016    0.03625916
     atom   41 type  1   force =    -0.02411645   -0.00449751   -0.00201506
     atom   42 type  1   force =     0.02431456    0.08135671   -0.00223946
     atom   43 type  1   force =    -0.00148104    0.01930458    0.01903569
     atom   44 type  1   force =    -0.03687452    0.00265287   -0.02783976
     atom   45 type  1   force =     0.03969325    0.08915579   -0.02944153
     atom   46 type  1   force =     0.00495775    0.02252015    0.02330136
     atom   47 type  1   force =     0.01746790   -0.02966170   -0.00294595
     atom   48 type  1   force =     0.01701674    0.01348623   -0.00067407
     atom   49 type  1   force =    -0.02556281   -0.01292122   -0.01082018
     atom   50 type  1   force =     0.07431208    0.07378802   -0.09948698
     atom   51 type  1   force =     0.03025168   -0.00588743    0.01662005
     atom   52 type  1   force =    -0.00588883    0.00507479    0.03016635
     atom   53 type  1   force =    -0.01338942    0.06301069   -0.01115109
     atom   54 type  1   force =    -0.01424293    0.00249739    0.00774088
     atom   55 type  1   force =     0.01632509    0.02872647   -0.01392390
     atom   56 type  1   force =     0.01673977    0.05094422   -0.04283170
     atom   57 type  1   force =     0.01355094   -0.06574197   -0.00380869
     atom   58 type  1   force =     0.00066761    0.03362867   -0.00927439
     atom   59 type  1   force =     0.01496996   -0.03085582   -0.00948625
     atom   60 type  1   force =    -0.06684888   -0.02699744    0.00376523
     atom   61 type  1   force =     0.03261409   -0.02902133   -0.01923515
     atom   62 type  1   force =     0.02258852    0.08238050   -0.00134939
     atom   63 type  1   force =    -0.01835052    0.02121178    0.01630606
     atom   64 type  1   force =     0.01049385   -0.05722816    0.00280172

     Total force =     0.508792     Total SCF correction =     0.001841


     Computing stress (Cartesian axis) and pressure

          total   stress  (Ry/bohr**3)                   (kbar)     P=       -6.39
  -0.00009887   0.00005404  -0.00004935          -14.54        7.95       -7.26
   0.00005404   0.00009512  -0.00005036            7.95       13.99       -7.41
  -0.00004935  -0.00005036  -0.00012657           -7.26       -7.41      -18.62

 
     init_run     :      0.64s CPU      4.08s WALL (       1 calls)
     electrons    :      2.14s CPU      2.27s WALL (       1 calls)
     forces       :      0.03s CPU      0.03s WALL (       1 calls)
     stress       :      0.15s CPU      0.15s WALL (       1 calls)

     Called by init_run:
     wfcinit      :      0.45s CPU      3.74s WALL (       1 calls)
                                        3.74s GPU  (       1 calls)
     potinit      :      0.03s CPU      0.12s WALL (       1 calls)
     hinit0       :      0.13s CPU      0.16s WALL (       1 calls)

     Called by electrons:
     c_bands      :      1.39s CPU      1.45s WALL (      21 calls)
     sum_band     :      0.39s CPU      0.43s WALL (      21 calls)
     v_of_rho     :      0.15s CPU      0.24s WALL (      21 calls)
     mix_rho      :      0.17s CPU      0.19s WALL (      21 calls)

     Called by c_bands:
     init_us_2    :      0.05s CPU      0.06s WALL (      43 calls)
     init_us_2:gp :      0.05s CPU      0.06s WALL (      43 calls)
     regterg      :      1.23s CPU      1.29s WALL (      21 calls)

     Called by *egterg:
     rdiaghg      :      0.39s CPU      1.07s WALL (      89 calls)
                                        1.05s GPU  (      89 calls)
     h_psi        :      1.10s CPU      3.75s WALL (      91 calls)
                                        3.75s GPU  (      91 calls)
     g_psi        :      0.00s CPU      0.00s WALL (      69 calls)
                                        0.00s GPU  (      69 calls)

     Called by h_psi:
     h_psi:calbec :      0.42s CPU      2.99s WALL (      91 calls)
                                        2.99s GPU  (      91 calls)
     vloc_psi     :      0.63s CPU      0.70s WALL (      91 calls)
                                        0.69s GPU  (      91 calls)
     add_vuspsi   :      0.03s CPU      0.05s WALL (      91 calls)
                                        0.05s GPU  (      91 calls)

     General routines
     calbec       :      0.43s CPU      3.00s WALL (      96 calls)
     fft          :      0.26s CPU      0.38s WALL (     175 calls)
                                        0.11s GPU  (     111 calls)
     ffts         :      0.05s CPU      0.05s WALL (      21 calls)
     fftw         :      0.70s CPU      0.89s WALL (    2203 calls)
                                        0.81s GPU  (    2203 calls)
 
     Parallel routines
 
     PWSCF        :      3.00s CPU      6.62s WALL

 
   This run was terminated on:  15:16: 4  11May2023            

=------------------------------------------------------------------------------=
   JOB DONE.
=------------------------------------------------------------------------------=
