An instance of this daemon is already running
An instance of this daemon is already running

     Program PWSCF v.7.1 starts on 11May2023 at 15:18: 8 

     This program is part of the open-source Quantum ESPRESSO suite
     for quantum simulation of materials; please cite
         "P. Giannozzi et al., J. Phys.:Condens. Matter 21 395502 (2009);
         "P. Giannozzi et al., J. Phys.:Condens. Matter 29 465901 (2017);
         "P. Giannozzi et al., J. Chem. Phys. 152 154105 (2020);
          URL http://www.quantum-espresso.org", 
     in publications or presentations arising from this work. More details at
     http://www.quantum-espresso.org/quote

     Parallel version (MPI & OpenMP), running on       4 processor cores
     Number of MPI processes:                 4
     Threads/MPI process:                     1

     MPI processes distributed on     1 nodes
     1009951 MiB available memory on the printing compute node when the environment starts
 
     Reading input from pw-si-87.in
Warning: card &CELL ignored
Warning: card / ignored

     Current dimensions of program PWSCF are:
     Max number of different atomic species (ntypx) = 10
     Max number of k-points (npk) =  40000
     Max angular momentum in pseudopotentials (lmaxx) =  4

     IMPORTANT: XC functional enforced from input :
     Exchange-correlation= PBE
                           (   1   4   3   4   0   0   0)
     Any further DFT definition will be discarded
     Please, verify this is what you really want


     gamma-point specific algorithms are used
 
     K-points division:     npool     =       2
     R & G space division:  proc/nbgrp/npool/nimage =       2
     Subspace diagonalization in iterative solution of the eigenvalue problem:
     a serial algorithm will be used

     Message from routine divide_et_impera:
     suboptimal parallelization: some nodes have no k-points
 
     Parallelization info
     --------------------
     sticks:   dense  smooth     PW     G-vecs:    dense   smooth      PW
     Min        1992    1992    524                94520    94520   12836
     Max        1993    1993    525                94527    94527   12841
     Sum        3985    3985   1049               189047   189047   25677
 
     Using Slab Decomposition
 


     bravais-lattice index     =            0
     lattice parameter (alat)  =      20.4157  a.u.
     unit-cell volume          =    8509.2808 (a.u.)^3
     number of atoms/cell      =           64
     number of atomic types    =            1
     number of electrons       =       256.00
     number of Kohn-Sham states=          154
     kinetic-energy cutoff     =      30.0000  Ry
     charge density cutoff     =     120.0000  Ry
     scf convergence threshold =      1.0E-06
     mixing beta               =       0.5000
     number of iterations used =            8  plain     mixing
     Exchange-correlation= PBE
                           (   1   4   3   4   0   0   0)

     GPU acceleration is ACTIVE.
     GPU-aware MPI enabled

     Message from routine print_cuda_info:
     High GPU oversubscription detected. Are you sure this is what you want?

     celldm(1)=  20.415700  celldm(2)=   0.000000  celldm(3)=   0.000000
     celldm(4)=   0.000000  celldm(5)=   0.000000  celldm(6)=   0.000000

     crystal axes: (cart. coord. in units of alat)
               a(1) = (   1.000000   0.000000   0.000000 )  
               a(2) = (   0.000000   1.000000   0.000000 )  
               a(3) = (   0.000000   0.000000   1.000000 )  

     reciprocal axes: (cart. coord. in units 2 pi/alat)
               b(1) = (  1.000000  0.000000  0.000000 )  
               b(2) = (  0.000000  1.000000  0.000000 )  
               b(3) = (  0.000000  0.000000  1.000000 )  


     PseudoPot. # 1 for Si read from file:
     /home/ppiaggi/pseudos/Si_ONCV_PBE_sr.upf
     MD5 check sum: 8553c464762ac42b85b1eed164b4d029
     Pseudo is Norm-conserving, Zval =  4.0
     Generated using ONCVPSP code by D. R. Hamann
     Using radial grid of 1510 points,  4 beta functions with: 
                l(1) =   0
                l(2) =   0
                l(3) =   1
                l(4) =   1

     atomic species   valence    mass     pseudopotential
        Si             4.00    28.08500     Si( 1.00)

     No symmetry found



   Cartesian axes

     site n.     atom                  positions (alat units)
         1           Si  tau(   1) = (   0.4786490   0.3961310   0.0709811  )
         2           Si  tau(   2) = (   0.3805830   0.0635467   0.0095820  )
         3           Si  tau(   3) = (   0.9937690   0.6907610   0.1071240  )
         4           Si  tau(   4) = (   0.9685790   0.9116260   0.8887330  )
         5           Si  tau(   5) = (   0.3273220   0.4449420   0.3354010  )
         6           Si  tau(   6) = (   0.8602580   0.7289590   0.7443350  )
         7           Si  tau(   7) = (   0.1289480   0.8091920   0.3539690  )
         8           Si  tau(   8) = (   0.2609880   0.2885210   0.7371080  )
         9           Si  tau(   9) = (   0.6059810   0.0465117   0.6035350  )
        10           Si  tau(  10) = (   0.2858720   0.2046410   0.2299000  )
        11           Si  tau(  11) = (   0.5289480   0.2459260   0.3619600  )
        12           Si  tau(  12) = (   0.8097250   0.0563089   0.1432940  )
        13           Si  tau(  13) = (   0.1784660   0.0972532   0.0645258  )
        14           Si  tau(  14) = (   0.4446450   0.0063497   0.7913230  )
        15           Si  tau(  15) = (   0.7651260   0.1430560   0.4484030  )
        16           Si  tau(  16) = (   0.0570718   0.7087700   0.8757950  )
        17           Si  tau(  17) = (   0.4772380   0.9497070   0.1885780  )
        18           Si  tau(  18) = (   0.4819610   0.7516350   0.3057510  )
        19           Si  tau(  19) = (   0.8548390   0.1402840   0.8249790  )
        20           Si  tau(  20) = (   0.0396310   0.7927170   0.6085820  )
        21           Si  tau(  21) = (   0.3438800   0.6262260   0.1343410  )
        22           Si  tau(  22) = (   0.9906500   0.4032150   0.2128640  )
        23           Si  tau(  23) = (   0.2814150   0.3022830   0.0058816  )
        24           Si  tau(  24) = (   0.9546040   0.4311280   0.5578770  )
        25           Si  tau(  25) = (   0.1928820   0.4564850   0.1294760  )
        26           Si  tau(  26) = (   0.2070100   0.0235981   0.3960510  )
        27           Si  tau(  27) = (   0.5873510   0.4515730   0.5174270  )
        28           Si  tau(  28) = (   0.2815290   0.6519350   0.3498490  )
        29           Si  tau(  29) = (   0.6073770   0.1389940   0.8294660  )
        30           Si  tau(  30) = (   0.0500649   0.2405380   0.3426980  )
        31           Si  tau(  31) = (   0.5290730   0.8502840   0.5130800  )
        32           Si  tau(  32) = (   0.1967480   0.7880980   0.0775812  )
        33           Si  tau(  33) = (   0.3058110   0.5235520   0.7561900  )
        34           Si  tau(  34) = (   0.5709460   0.5793180   0.1992440  )
        35           Si  tau(  35) = (   0.9978980   0.0488995   0.2483630  )
        36           Si  tau(  36) = (   0.3693380   0.7600480   0.7494010  )
        37           Si  tau(  37) = (   0.7691320   0.8365480   0.9570330  )
        38           Si  tau(  38) = (   0.1722610   0.4253290   0.4593430  )
        39           Si  tau(  39) = (   0.0093947   0.1993140   0.6856850  )
        40           Si  tau(  40) = (   0.7771450   0.7524920   0.5153370  )
        41           Si  tau(  41) = (   0.7873310   0.9685760   0.6876260  )
        42           Si  tau(  42) = (   0.6562920   0.2963360   0.0085960  )
        43           Si  tau(  43) = (   0.9988670   0.6529670   0.4068980  )
        44           Si  tau(  44) = (   0.4664250   0.2524210   0.5942910  )
        45           Si  tau(  45) = (   0.7871670   0.4961690   0.2594720  )
        46           Si  tau(  46) = (   0.9486380   0.2248040   0.0411445  )
        47           Si  tau(  47) = (   0.9810920   0.9840320   0.5554470  )
        48           Si  tau(  48) = (   0.4209950   0.8392670   0.9532860  )
        49           Si  tau(  49) = (   0.7654000   0.5185950   0.7253480  )
        50           Si  tau(  50) = (   0.7827560   0.5166110   0.4678040  )
        51           Si  tau(  51) = (   0.8413390   0.3763370   0.8790920  )
        52           Si  tau(  52) = (   0.6343320   0.0101073   0.0251553  )
        53           Si  tau(  53) = (   0.5233120   0.1670320   0.1596600  )
        54           Si  tau(  54) = (   0.5937430   0.7314450   0.6915590  )
        55           Si  tau(  55) = (   0.0898482   0.3124150   0.8592490  )
        56           Si  tau(  56) = (   0.2617790   0.0799433   0.6342890  )
        57           Si  tau(  57) = (   0.8808830   0.8726810   0.3298060  )
        58           Si  tau(  58) = (   0.0528766   0.4961940   0.9553530  )
        59           Si  tau(  59) = (   0.7604070   0.2912700   0.5940970  )
        60           Si  tau(  60) = (   0.7607570   0.6844810   0.1150990  )
        61           Si  tau(  61) = (   0.4109300   0.5614830   0.5197890  )
        62           Si  tau(  62) = (   0.4448020   0.3858400   0.8477680  )
        63           Si  tau(  63) = (   0.3072020   0.8738310   0.5826140  )
        64           Si  tau(  64) = (   0.1519450   0.8993810   0.7934070  )

     number of k points=     1  Fermi-Dirac smearing, width (Ry)=  0.0100
                       cart. coord. in units 2pi/alat
        k(    1) = (   0.0000000   0.0000000   0.0000000), wk =   2.0000000

     Dense  grid:    94524 G-vectors     FFT dimensions: (  72,  72,  72)

     Estimated max dynamical RAM per process >     150.96 MB

     Estimated total dynamical RAM >     580.78 MB

     Initial potential from superposition of free atoms

     starting charge     255.9608, renormalised to     256.0000
     Starting wfcs are  256 randomized atomic wfcs

     total cpu time spent up to now is        4.4 secs

     Self-consistent Calculation

     iteration #  1     ecut=    30.00 Ry     beta= 0.50
     Davidson diagonalization with overlap
     ethr =  1.00E-02,  avg # of iterations =  3.0

     Threshold (ethr) on eigenvalues was too large:
     Diagonalizing with lowered threshold

     Davidson diagonalization with overlap
     ethr =  5.26E-04,  avg # of iterations =  4.0

     total cpu time spent up to now is        4.6 secs

     total energy              =    -500.44253203 Ry
     estimated scf accuracy    <       1.75096687 Ry

     iteration #  2     ecut=    30.00 Ry     beta= 0.50
     Davidson diagonalization with overlap
     ethr =  6.84E-04,  avg # of iterations =  4.0

     total cpu time spent up to now is        4.7 secs

     total energy              =    -500.06517846 Ry
     estimated scf accuracy    <       5.47591450 Ry

     iteration #  3     ecut=    30.00 Ry     beta= 0.50
     Davidson diagonalization with overlap
     ethr =  6.84E-04,  avg # of iterations =  3.0

     total cpu time spent up to now is        4.8 secs

     total energy              =    -500.57697831 Ry
     estimated scf accuracy    <       3.38726238 Ry

     iteration #  4     ecut=    30.00 Ry     beta= 0.50
     Davidson diagonalization with overlap
     ethr =  6.84E-04,  avg # of iterations =  2.0

     total cpu time spent up to now is        4.9 secs

     total energy              =    -500.84503222 Ry
     estimated scf accuracy    <       0.87899541 Ry

     iteration #  5     ecut=    30.00 Ry     beta= 0.50
     Davidson diagonalization with overlap
     ethr =  3.43E-04,  avg # of iterations =  2.0

     total cpu time spent up to now is        5.0 secs

     total energy              =    -500.89832099 Ry
     estimated scf accuracy    <       0.23679502 Ry

     iteration #  6     ecut=    30.00 Ry     beta= 0.50
     Davidson diagonalization with overlap
     ethr =  9.25E-05,  avg # of iterations =  2.0

     total cpu time spent up to now is        5.0 secs

     total energy              =    -500.91770615 Ry
     estimated scf accuracy    <       0.30497406 Ry

     iteration #  7     ecut=    30.00 Ry     beta= 0.50
     Davidson diagonalization with overlap
     ethr =  9.25E-05,  avg # of iterations =  1.0

     total cpu time spent up to now is        5.1 secs

     total energy              =    -500.94040342 Ry
     estimated scf accuracy    <       0.02323355 Ry

     iteration #  8     ecut=    30.00 Ry     beta= 0.50
     Davidson diagonalization with overlap
     ethr =  9.08E-06,  avg # of iterations = 19.0

     total cpu time spent up to now is        5.3 secs

     total energy              =    -500.94259625 Ry
     estimated scf accuracy    <       0.03270483 Ry

     iteration #  9     ecut=    30.00 Ry     beta= 0.50
     Davidson diagonalization with overlap
     ethr =  9.08E-06,  avg # of iterations =  2.0

     total cpu time spent up to now is        5.4 secs

     total energy              =    -500.94531861 Ry
     estimated scf accuracy    <       0.00526934 Ry

     iteration # 10     ecut=    30.00 Ry     beta= 0.50
     Davidson diagonalization with overlap
     ethr =  2.06E-06,  avg # of iterations =  7.0

     total cpu time spent up to now is        5.5 secs

     total energy              =    -500.94586467 Ry
     estimated scf accuracy    <       0.00144296 Ry

     iteration # 11     ecut=    30.00 Ry     beta= 0.50
     Davidson diagonalization with overlap
     ethr =  5.64E-07,  avg # of iterations =  3.0

     total cpu time spent up to now is        5.6 secs

     total energy              =    -500.94591414 Ry
     estimated scf accuracy    <       0.00133647 Ry

     iteration # 12     ecut=    30.00 Ry     beta= 0.50
     Davidson diagonalization with overlap
     ethr =  5.22E-07,  avg # of iterations =  2.0

     total cpu time spent up to now is        5.7 secs

     total energy              =    -500.94604177 Ry
     estimated scf accuracy    <       0.00047439 Ry

     iteration # 13     ecut=    30.00 Ry     beta= 0.50
     Davidson diagonalization with overlap
     ethr =  1.85E-07,  avg # of iterations =  2.0

     total cpu time spent up to now is        5.8 secs

     total energy              =    -500.94607538 Ry
     estimated scf accuracy    <       0.00020128 Ry

     iteration # 14     ecut=    30.00 Ry     beta= 0.50
     Davidson diagonalization with overlap
     ethr =  7.86E-08,  avg # of iterations =  2.0

     total cpu time spent up to now is        5.9 secs

     total energy              =    -500.94609111 Ry
     estimated scf accuracy    <       0.00004646 Ry

     iteration # 15     ecut=    30.00 Ry     beta= 0.50
     Davidson diagonalization with overlap
     ethr =  1.81E-08,  avg # of iterations =  2.0

     total cpu time spent up to now is        5.9 secs

     total energy              =    -500.94609271 Ry
     estimated scf accuracy    <       0.00005352 Ry

     iteration # 16     ecut=    30.00 Ry     beta= 0.50
     Davidson diagonalization with overlap
     ethr =  1.81E-08,  avg # of iterations =  2.0

     total cpu time spent up to now is        6.0 secs

     total energy              =    -500.94609691 Ry
     estimated scf accuracy    <       0.00004373 Ry

     iteration # 17     ecut=    30.00 Ry     beta= 0.50
     Davidson diagonalization with overlap
     ethr =  1.71E-08,  avg # of iterations =  1.0

     total cpu time spent up to now is        6.1 secs

     total energy              =    -500.94609957 Ry
     estimated scf accuracy    <       0.00000222 Ry

     iteration # 18     ecut=    30.00 Ry     beta= 0.50
     Davidson diagonalization with overlap
     ethr =  8.69E-10,  avg # of iterations =  5.0

     total cpu time spent up to now is        6.2 secs

     total energy              =    -500.94610001 Ry
     estimated scf accuracy    <       0.00000316 Ry

     iteration # 19     ecut=    30.00 Ry     beta= 0.50
     Davidson diagonalization with overlap
     ethr =  8.69E-10,  avg # of iterations =  2.0

     total cpu time spent up to now is        6.3 secs

     End of self-consistent calculation

          k = 0.0000 0.0000 0.0000 ( 11792 PWs)   bands (ev):

    -6.0659  -5.4276  -5.3499  -5.0454  -4.8887  -4.7072  -4.4690  -4.3296
    -4.1237  -3.9774  -3.8578  -3.7519  -3.6148  -3.5610  -3.5072  -3.2987
    -3.1813  -2.9458  -2.7510  -2.7077  -2.6278  -2.5009  -2.3419  -2.1836
    -2.0797  -1.8141  -1.6560  -1.5799  -1.4176  -1.3511  -1.2077  -0.9848
    -0.8621  -0.8061  -0.6823  -0.6149  -0.5320  -0.4488  -0.3537  -0.2928
    -0.2462  -0.1030   0.0004   0.1401   0.1655   0.2802   0.3185   0.4380
     0.5907   0.6789   0.8050   0.8383   0.8995   1.0365   1.0771   1.1887
     1.3117   1.4226   1.5204   1.5742   1.6464   1.7491   1.8797   2.0089
     2.0141   2.2226   2.2282   2.3432   2.3848   2.4797   2.5068   2.7045
     2.8235   2.8662   2.9101   3.0656   3.1778   3.2016   3.3274   3.3978
     3.5905   3.6622   3.7083   3.7670   3.8674   3.8854   4.0315   4.1415
     4.2085   4.2812   4.3035   4.4189   4.4778   4.5326   4.5840   4.6951
     4.7687   4.7826   4.8499   4.9202   5.0321   5.1033   5.1463   5.1929
     5.2930   5.3329   5.3683   5.4277   5.4870   5.5134   5.5986   5.6502
     5.7413   5.7891   5.8245   5.8391   5.8804   5.9649   6.0132   6.0711
     6.1741   6.2301   6.2559   6.2626   6.3571   6.4305   6.4870   6.5190
     6.6566   6.7034   6.7314   6.8048   6.8466   6.8888   6.9012   7.0280
     7.1102   7.2084   7.2269   7.2601   7.3070   7.3901   7.4538   7.4910
     7.5352   7.6118   7.6396   7.6829   7.7619   7.8628   7.9664   8.0343
     8.0624   8.0734

     the Fermi energy is     6.5828 ev

!    total energy              =    -500.94609956 Ry
     estimated scf accuracy    <       0.00000092 Ry
     smearing contrib. (-TS)   =      -0.14947411 Ry
     internal energy E=F+TS    =    -500.79662545 Ry

     The total energy is F=E-TS. E is the sum of the following terms:
     one-electron contribution =     141.57128823 Ry
     hartree contribution      =      42.36315761 Ry
     xc contribution           =    -150.68318478 Ry
     ewald contribution        =    -534.04788651 Ry

     convergence has been achieved in  19 iterations

     Forces acting on atoms (cartesian axes, Ry/au):

     atom    1 type  1   force =    -0.01848659    0.03093024    0.03330628
     atom    2 type  1   force =     0.00254286   -0.01020297   -0.02601223
     atom    3 type  1   force =    -0.00729192   -0.02300972   -0.00951892
     atom    4 type  1   force =    -0.06789997    0.03599473    0.02891191
     atom    5 type  1   force =     0.07685250   -0.04615500   -0.06426437
     atom    6 type  1   force =    -0.00999102    0.00286782    0.00190056
     atom    7 type  1   force =     0.02592512    0.06705641   -0.01272196
     atom    8 type  1   force =     0.04059547   -0.00568572   -0.03070820
     atom    9 type  1   force =    -0.00431738    0.00647722   -0.01819245
     atom   10 type  1   force =    -0.00289753    0.01177588    0.03792431
     atom   11 type  1   force =     0.01602051    0.02006189    0.05211965
     atom   12 type  1   force =     0.01498334    0.00997553   -0.00050517
     atom   13 type  1   force =    -0.05434466    0.00720551    0.00428333
     atom   14 type  1   force =    -0.02255739   -0.01439439    0.00052434
     atom   15 type  1   force =    -0.02231798   -0.03336637   -0.02080163
     atom   16 type  1   force =     0.01271703   -0.03229044    0.01302280
     atom   17 type  1   force =     0.01032975   -0.01028377   -0.02531259
     atom   18 type  1   force =     0.00265378    0.00967648    0.03052973
     atom   19 type  1   force =    -0.01761518    0.00145321    0.03358250
     atom   20 type  1   force =     0.00847222   -0.04732432    0.00231123
     atom   21 type  1   force =    -0.00303663   -0.01250995    0.00270119
     atom   22 type  1   force =    -0.00270951    0.00341660   -0.03574182
     atom   23 type  1   force =     0.00846282   -0.02716984   -0.02376139
     atom   24 type  1   force =     0.01335454   -0.03765495    0.03903846
     atom   25 type  1   force =    -0.02034463    0.01055421    0.00380800
     atom   26 type  1   force =    -0.01638921    0.00353059    0.01623708
     atom   27 type  1   force =     0.02653670   -0.07960342    0.00936739
     atom   28 type  1   force =     0.02503230    0.05224849    0.00669488
     atom   29 type  1   force =     0.04339072    0.01790728    0.03138323
     atom   30 type  1   force =     0.03290571    0.00597610    0.02212210
     atom   31 type  1   force =    -0.01046501   -0.00470330   -0.00789462
     atom   32 type  1   force =     0.00488747    0.01781946    0.00281244
     atom   33 type  1   force =    -0.00234810    0.04671327   -0.03382031
     atom   34 type  1   force =     0.01608457   -0.00913958   -0.01542584
     atom   35 type  1   force =     0.03817745   -0.02182615    0.00133310
     atom   36 type  1   force =     0.02586024   -0.05113662    0.03827230
     atom   37 type  1   force =     0.00355703   -0.00642112   -0.01527355
     atom   38 type  1   force =    -0.08747533   -0.02590215    0.06332034
     atom   39 type  1   force =    -0.00188460    0.00373425   -0.04230259
     atom   40 type  1   force =     0.01448957   -0.01013169   -0.00365907
     atom   41 type  1   force =     0.03692415   -0.01780041   -0.00507288
     atom   42 type  1   force =     0.03191310   -0.02018620   -0.02517976
     atom   43 type  1   force =    -0.04818591   -0.02830793    0.02764039
     atom   44 type  1   force =     0.00657999   -0.00908497   -0.01905225
     atom   45 type  1   force =     0.00266763    0.02130050   -0.06026263
     atom   46 type  1   force =     0.00733369   -0.00269899   -0.01702645
     atom   47 type  1   force =    -0.02650010    0.06581372   -0.02640221
     atom   48 type  1   force =    -0.02555015    0.01568297    0.00652895
     atom   49 type  1   force =    -0.00658920    0.01353736   -0.03393691
     atom   50 type  1   force =    -0.00511868    0.05979545    0.01591880
     atom   51 type  1   force =     0.00220994   -0.01751954    0.02458973
     atom   52 type  1   force =     0.00065622   -0.02605133   -0.02547152
     atom   53 type  1   force =    -0.02823941    0.02743414   -0.00129985
     atom   54 type  1   force =    -0.00297681   -0.01942269   -0.00870487
     atom   55 type  1   force =    -0.01128833   -0.03167217    0.02258181
     atom   56 type  1   force =     0.00416636    0.01506535    0.00689669
     atom   57 type  1   force =    -0.00214295   -0.01205222    0.00746910
     atom   58 type  1   force =    -0.03005548    0.05714023    0.01756450
     atom   59 type  1   force =    -0.00157778    0.05272288    0.03333786
     atom   60 type  1   force =     0.01082685   -0.01478085    0.03188854
     atom   61 type  1   force =    -0.05262821    0.04010302    0.02453532
     atom   62 type  1   force =    -0.00192832   -0.02569620    0.01071496
     atom   63 type  1   force =     0.00010892    0.00127704   -0.04799697
     atom   64 type  1   force =     0.04793541   -0.00106282   -0.04885077

     Total force =     0.388517     Total SCF correction =     0.001853


     Computing stress (Cartesian axis) and pressure

          total   stress  (Ry/bohr**3)                   (kbar)     P=      -16.66
  -0.00007054  -0.00004924   0.00000133          -10.38       -7.24        0.20
  -0.00004924  -0.00009049   0.00003210           -7.24      -13.31        4.72
   0.00000133   0.00003210  -0.00017872            0.20        4.72      -26.29

 
     init_run     :      0.93s CPU      4.34s WALL (       1 calls)
     electrons    :      1.76s CPU      1.88s WALL (       1 calls)
     forces       :      0.03s CPU      0.03s WALL (       1 calls)
     stress       :      0.14s CPU      0.15s WALL (       1 calls)

     Called by init_run:
     wfcinit      :      0.43s CPU      3.67s WALL (       1 calls)
                                        3.67s GPU  (       1 calls)
     potinit      :      0.03s CPU      0.13s WALL (       1 calls)
     hinit0       :      0.45s CPU      0.48s WALL (       1 calls)

     Called by electrons:
     c_bands      :      1.14s CPU      1.20s WALL (      20 calls)
     sum_band     :      0.32s CPU      0.36s WALL (      20 calls)
     v_of_rho     :      0.13s CPU      0.23s WALL (      20 calls)
     mix_rho      :      0.14s CPU      0.15s WALL (      20 calls)

     Called by c_bands:
     init_us_2    :      0.05s CPU      0.05s WALL (      41 calls)
     init_us_2:gp :      0.05s CPU      0.05s WALL (      41 calls)
     regterg      :      0.98s CPU      1.03s WALL (      20 calls)

     Called by *egterg:
     rdiaghg      :      0.42s CPU      1.07s WALL (      89 calls)
                                        1.05s GPU  (      89 calls)
     h_psi        :      0.82s CPU      3.45s WALL (      91 calls)
                                        3.44s GPU  (      91 calls)
     g_psi        :      0.00s CPU      0.00s WALL (      70 calls)
                                        0.00s GPU  (      70 calls)

     Called by h_psi:
     h_psi:calbec :      0.40s CPU      2.96s WALL (      91 calls)
                                        2.96s GPU  (      91 calls)
     vloc_psi     :      0.37s CPU      0.43s WALL (      91 calls)
                                        0.43s GPU  (      91 calls)
     add_vuspsi   :      0.04s CPU      0.05s WALL (      91 calls)
                                        0.05s GPU  (      91 calls)

     General routines
     calbec       :      0.40s CPU      2.96s WALL (      96 calls)
     fft          :      0.54s CPU      0.67s WALL (     167 calls)
                                        0.12s GPU  (     106 calls)
     ffts         :      0.03s CPU      0.04s WALL (      20 calls)
     fftw         :      0.46s CPU      0.60s WALL (    2106 calls)
                                        0.52s GPU  (    2106 calls)
 
     Parallel routines
 
     PWSCF        :      2.90s CPU      6.47s WALL

 
   This run was terminated on:  15:18:15  11May2023            

=------------------------------------------------------------------------------=
   JOB DONE.
=------------------------------------------------------------------------------=
