An instance of this daemon is already running
An instance of this daemon is already running

     Program PWSCF v.7.1 starts on 11May2023 at 15: 9:43 

     This program is part of the open-source Quantum ESPRESSO suite
     for quantum simulation of materials; please cite
         "P. Giannozzi et al., J. Phys.:Condens. Matter 21 395502 (2009);
         "P. Giannozzi et al., J. Phys.:Condens. Matter 29 465901 (2017);
         "P. Giannozzi et al., J. Chem. Phys. 152 154105 (2020);
          URL http://www.quantum-espresso.org", 
     in publications or presentations arising from this work. More details at
     http://www.quantum-espresso.org/quote

     Parallel version (MPI & OpenMP), running on       4 processor cores
     Number of MPI processes:                 4
     Threads/MPI process:                     1

     MPI processes distributed on     1 nodes
     1005413 MiB available memory on the printing compute node when the environment starts
 
     Reading input from pw-si-29.in
Warning: card &CELL ignored
Warning: card / ignored

     Current dimensions of program PWSCF are:
     Max number of different atomic species (ntypx) = 10
     Max number of k-points (npk) =  40000
     Max angular momentum in pseudopotentials (lmaxx) =  4

     IMPORTANT: XC functional enforced from input :
     Exchange-correlation= PBE
                           (   1   4   3   4   0   0   0)
     Any further DFT definition will be discarded
     Please, verify this is what you really want


     gamma-point specific algorithms are used
 
     K-points division:     npool     =       2
     R & G space division:  proc/nbgrp/npool/nimage =       2
     Subspace diagonalization in iterative solution of the eigenvalue problem:
     a serial algorithm will be used

     Message from routine divide_et_impera:
     suboptimal parallelization: some nodes have no k-points
 
     Parallelization info
     --------------------
     sticks:   dense  smooth     PW     G-vecs:    dense   smooth      PW
     Min        1993    1993    524                94655    94655   12836
     Max        2000    2000    525                94656    94656   12841
     Sum        3993    3993   1049               189311   189311   25677
 
     Using Slab Decomposition
 


     bravais-lattice index     =            0
     lattice parameter (alat)  =      20.4298  a.u.
     unit-cell volume          =    8526.9807 (a.u.)^3
     number of atoms/cell      =           64
     number of atomic types    =            1
     number of electrons       =       256.00
     number of Kohn-Sham states=          154
     kinetic-energy cutoff     =      30.0000  Ry
     charge density cutoff     =     120.0000  Ry
     scf convergence threshold =      1.0E-06
     mixing beta               =       0.5000
     number of iterations used =            8  plain     mixing
     Exchange-correlation= PBE
                           (   1   4   3   4   0   0   0)

     GPU acceleration is ACTIVE.
     GPU-aware MPI enabled

     Message from routine print_cuda_info:
     High GPU oversubscription detected. Are you sure this is what you want?

     celldm(1)=  20.429846  celldm(2)=   0.000000  celldm(3)=   0.000000
     celldm(4)=   0.000000  celldm(5)=   0.000000  celldm(6)=   0.000000

     crystal axes: (cart. coord. in units of alat)
               a(1) = (   1.000000   0.000000   0.000000 )  
               a(2) = (   0.000000   1.000000   0.000000 )  
               a(3) = (   0.000000   0.000000   1.000000 )  

     reciprocal axes: (cart. coord. in units 2 pi/alat)
               b(1) = (  1.000000  0.000000  0.000000 )  
               b(2) = (  0.000000  1.000000  0.000000 )  
               b(3) = (  0.000000  0.000000  1.000000 )  


     PseudoPot. # 1 for Si read from file:
     /home/ppiaggi/pseudos/Si_ONCV_PBE_sr.upf
     MD5 check sum: 8553c464762ac42b85b1eed164b4d029
     Pseudo is Norm-conserving, Zval =  4.0
     Generated using ONCVPSP code by D. R. Hamann
     Using radial grid of 1510 points,  4 beta functions with: 
                l(1) =   0
                l(2) =   0
                l(3) =   1
                l(4) =   1

     atomic species   valence    mass     pseudopotential
        Si             4.00    28.08500     Si( 1.00)

     No symmetry found



   Cartesian axes

     site n.     atom                  positions (alat units)
         1           Si  tau(   1) = (   0.6110250   0.8139120   0.2330900  )
         2           Si  tau(   2) = (   0.0199009   0.3141140   0.9174470  )
         3           Si  tau(   3) = (   0.4025970   0.2864400   0.0353249  )
         4           Si  tau(   4) = (   0.8449990   0.3323290   0.1934580  )
         5           Si  tau(   5) = (   0.3632400   0.1507290   0.5040660  )
         6           Si  tau(   6) = (   0.7043460   0.1110650   0.1699790  )
         7           Si  tau(   7) = (   0.9368660   0.6274700   0.5385010  )
         8           Si  tau(   8) = (   0.8328430   0.7319200   0.2624570  )
         9           Si  tau(   9) = (   0.8197450   0.7142840   0.7361140  )
        10           Si  tau(  10) = (   0.4662810   0.8506340   0.8413640  )
        11           Si  tau(  11) = (   0.8285520   0.6977400   0.0397061  )
        12           Si  tau(  12) = (   0.5756600   0.2870340   0.2212160  )
        13           Si  tau(  13) = (   0.9804300   0.5480920   0.8364640  )
        14           Si  tau(  14) = (   0.2353910   0.3340410   0.8760590  )
        15           Si  tau(  15) = (   0.3100040   0.4027530   0.6812240  )
        16           Si  tau(  16) = (   0.8099620   0.9335310   0.2151650  )
        17           Si  tau(  17) = (   0.3288520   0.6826800   0.4266280  )
        18           Si  tau(  18) = (   0.9706510   0.0810224   0.9344350  )
        19           Si  tau(  19) = (   0.2439320   0.8545310   0.5935860  )
        20           Si  tau(  20) = (   0.8670990   0.0233609   0.4162430  )
        21           Si  tau(  21) = (   0.1328600   0.8976190   0.8106410  )
        22           Si  tau(  22) = (   0.9951370   0.3099800   0.3609690  )
        23           Si  tau(  23) = (   0.5440170   0.1572700   0.8883490  )
        24           Si  tau(  24) = (   0.3345830   0.3642500   0.4450470  )
        25           Si  tau(  25) = (   0.3787430   0.9851340   0.3488260  )
        26           Si  tau(  26) = (   0.2194930   0.6203600   0.7858180  )
        27           Si  tau(  27) = (   0.1608220   0.0913722   0.7005450  )
        28           Si  tau(  28) = (   0.7525830   0.1557480   0.9329900  )
        29           Si  tau(  29) = (   0.6202490   0.4060380   0.7824210  )
        30           Si  tau(  30) = (   0.8695460   0.9229550   0.7162350  )
        31           Si  tau(  31) = (   0.1374540   0.7324430   0.9957880  )
        32           Si  tau(  32) = (   0.4807910   0.2157930   0.6736940  )
        33           Si  tau(  33) = (   0.3813150   0.7783110   0.2285920  )
        34           Si  tau(  34) = (   0.9389110   0.1542170   0.1555060  )
        35           Si  tau(  35) = (   0.7276780   0.6529690   0.5288740  )
        36           Si  tau(  36) = (   0.4891600   0.0877628   0.1724790  )
        37           Si  tau(  37) = (   0.7900080   0.3011240   0.6651570  )
        38           Si  tau(  38) = (   0.9997820   0.2259790   0.6297360  )
        39           Si  tau(  39) = (   0.1531670   0.3167120   0.1267070  )
        40           Si  tau(  40) = (   0.6134160   0.4381140   0.5521400  )
        41           Si  tau(  41) = (   0.6520470   0.9679130   0.4288200  )
        42           Si  tau(  42) = (   0.0181771   0.8402850   0.5795900  )
        43           Si  tau(  43) = (   0.6892600   0.0765096   0.6978770  )
        44           Si  tau(  44) = (   0.5506760   0.7357540   0.4337490  )
        45           Si  tau(  45) = (   0.0416501   0.7299220   0.3980130  )
        46           Si  tau(  46) = (   0.5782270   0.1983600   0.4409550  )
        47           Si  tau(  47) = (   0.9919950   0.4888690   0.0703674  )
        48           Si  tau(  48) = (   0.4088970   0.6821860   0.6274890  )
        49           Si  tau(  49) = (   0.4976280   0.7626400   0.0437674  )
        50           Si  tau(  50) = (   0.2183090   0.5486200   0.1161190  )
        51           Si  tau(  51) = (   0.4409810   0.5284520   0.0738421  )
        52           Si  tau(  52) = (   0.8264920   0.9022460   0.9819730  )
        53           Si  tau(  53) = (   0.6540710   0.4737990   0.0772996  )
        54           Si  tau(  54) = (   0.5289730   0.4850310   0.2922390  )
        55           Si  tau(  55) = (   0.9801780   0.4176300   0.6993780  )
        56           Si  tau(  56) = (   0.3257020   0.9087410   0.9970440  )
        57           Si  tau(  57) = (   0.3597620   0.2619950   0.2479550  )
        58           Si  tau(  58) = (   0.4044660   0.9889200   0.6506860  )
        59           Si  tau(  59) = (   0.7250040   0.5728670   0.8777170  )
        60           Si  tau(  60) = (   0.4188030   0.5298200   0.8456530  )
        61           Si  tau(  61) = (   0.0483588   0.9871690   0.2609220  )
        62           Si  tau(  62) = (   0.1511380   0.4777210   0.4084900  )
        63           Si  tau(  63) = (   0.7962660   0.2147640   0.4492700  )
        64           Si  tau(  64) = (   0.2530760   0.0868683   0.1456380  )

     number of k points=     1  Fermi-Dirac smearing, width (Ry)=  0.0100
                       cart. coord. in units 2pi/alat
        k(    1) = (   0.0000000   0.0000000   0.0000000), wk =   2.0000000

     Dense  grid:    94656 G-vectors     FFT dimensions: (  72,  72,  72)

     Estimated max dynamical RAM per process >     151.23 MB

     Estimated total dynamical RAM >     581.79 MB

     Initial potential from superposition of free atoms

     starting charge     255.9608, renormalised to     256.0000
     Starting wfcs are  256 randomized atomic wfcs

     total cpu time spent up to now is        4.4 secs

     Self-consistent Calculation

     iteration #  1     ecut=    30.00 Ry     beta= 0.50
     Davidson diagonalization with overlap
     ethr =  1.00E-02,  avg # of iterations =  3.0

     Threshold (ethr) on eigenvalues was too large:
     Diagonalizing with lowered threshold

     Davidson diagonalization with overlap
     ethr =  5.79E-04,  avg # of iterations =  4.0

     total cpu time spent up to now is        4.6 secs

     total energy              =    -500.20335396 Ry
     estimated scf accuracy    <       1.96881189 Ry

     iteration #  2     ecut=    30.00 Ry     beta= 0.50
     Davidson diagonalization with overlap
     ethr =  7.69E-04,  avg # of iterations =  5.0

     total cpu time spent up to now is        4.7 secs

     total energy              =    -499.25078630 Ry
     estimated scf accuracy    <      13.88721507 Ry

     iteration #  3     ecut=    30.00 Ry     beta= 0.50
     Davidson diagonalization with overlap
     ethr =  7.69E-04,  avg # of iterations =  4.0

     total cpu time spent up to now is        4.8 secs

     total energy              =    -500.43245307 Ry
     estimated scf accuracy    <       4.47270963 Ry

     iteration #  4     ecut=    30.00 Ry     beta= 0.50
     Davidson diagonalization with overlap
     ethr =  7.69E-04,  avg # of iterations =  2.0

     total cpu time spent up to now is        4.9 secs

     total energy              =    -500.73928225 Ry
     estimated scf accuracy    <       0.74800691 Ry

     iteration #  5     ecut=    30.00 Ry     beta= 0.50
     Davidson diagonalization with overlap
     ethr =  2.92E-04,  avg # of iterations =  2.0

     total cpu time spent up to now is        5.0 secs

     total energy              =    -500.76213570 Ry
     estimated scf accuracy    <       0.98344721 Ry

     iteration #  6     ecut=    30.00 Ry     beta= 0.50
     Davidson diagonalization with overlap
     ethr =  2.92E-04,  avg # of iterations =  2.0

     total cpu time spent up to now is        5.0 secs

     total energy              =    -500.83683784 Ry
     estimated scf accuracy    <       0.13094922 Ry

     iteration #  7     ecut=    30.00 Ry     beta= 0.50
     Davidson diagonalization with overlap
     ethr =  5.12E-05,  avg # of iterations =  2.0

     total cpu time spent up to now is        5.1 secs

     total energy              =    -500.85001690 Ry
     estimated scf accuracy    <       0.04546465 Ry

     iteration #  8     ecut=    30.00 Ry     beta= 0.50
     Davidson diagonalization with overlap
     ethr =  1.78E-05,  avg # of iterations =  2.0

     total cpu time spent up to now is        5.2 secs

     total energy              =    -500.85505936 Ry
     estimated scf accuracy    <       0.03244152 Ry

     iteration #  9     ecut=    30.00 Ry     beta= 0.50
     Davidson diagonalization with overlap
     ethr =  1.27E-05,  avg # of iterations =  2.0

     total cpu time spent up to now is        5.3 secs

     total energy              =    -500.85709816 Ry
     estimated scf accuracy    <       0.00579886 Ry

     iteration # 10     ecut=    30.00 Ry     beta= 0.50
     Davidson diagonalization with overlap
     ethr =  2.27E-06,  avg # of iterations = 11.0

     total cpu time spent up to now is        5.4 secs

     total energy              =    -500.85756248 Ry
     estimated scf accuracy    <       0.00798880 Ry

     iteration # 11     ecut=    30.00 Ry     beta= 0.50
     Davidson diagonalization with overlap
     ethr =  2.27E-06,  avg # of iterations =  2.0

     total cpu time spent up to now is        5.5 secs

     total energy              =    -500.85808611 Ry
     estimated scf accuracy    <       0.00065109 Ry

     iteration # 12     ecut=    30.00 Ry     beta= 0.50
     Davidson diagonalization with overlap
     ethr =  2.54E-07,  avg # of iterations =  4.0

     total cpu time spent up to now is        5.6 secs

     total energy              =    -500.85813043 Ry
     estimated scf accuracy    <       0.00077801 Ry

     iteration # 13     ecut=    30.00 Ry     beta= 0.50
     Davidson diagonalization with overlap
     ethr =  2.54E-07,  avg # of iterations =  3.0

     total cpu time spent up to now is        5.7 secs

     total energy              =    -500.85818825 Ry
     estimated scf accuracy    <       0.00091662 Ry

     iteration # 14     ecut=    30.00 Ry     beta= 0.50
     Davidson diagonalization with overlap
     ethr =  2.54E-07,  avg # of iterations =  1.0

     total cpu time spent up to now is        5.8 secs

     total energy              =    -500.85824330 Ry
     estimated scf accuracy    <       0.00005433 Ry

     iteration # 15     ecut=    30.00 Ry     beta= 0.50
     Davidson diagonalization with overlap
     ethr =  2.12E-08,  avg # of iterations =  4.0

     total cpu time spent up to now is        5.9 secs

     total energy              =    -500.85825006 Ry
     estimated scf accuracy    <       0.00003854 Ry

     iteration # 16     ecut=    30.00 Ry     beta= 0.50
     Davidson diagonalization with overlap
     ethr =  1.51E-08,  avg # of iterations =  2.0

     total cpu time spent up to now is        6.0 secs

     total energy              =    -500.85825324 Ry
     estimated scf accuracy    <       0.00001682 Ry

     iteration # 17     ecut=    30.00 Ry     beta= 0.50
     Davidson diagonalization with overlap
     ethr =  6.57E-09,  avg # of iterations =  2.0

     total cpu time spent up to now is        6.0 secs

     total energy              =    -500.85825439 Ry
     estimated scf accuracy    <       0.00000655 Ry

     iteration # 18     ecut=    30.00 Ry     beta= 0.50
     Davidson diagonalization with overlap
     ethr =  2.56E-09,  avg # of iterations =  2.0

     total cpu time spent up to now is        6.1 secs

     total energy              =    -500.85825486 Ry
     estimated scf accuracy    <       0.00000581 Ry

     iteration # 19     ecut=    30.00 Ry     beta= 0.50
     Davidson diagonalization with overlap
     ethr =  2.27E-09,  avg # of iterations =  1.0

     total cpu time spent up to now is        6.2 secs

     End of self-consistent calculation

          k = 0.0000 0.0000 0.0000 ( 11852 PWs)   bands (ev):

    -6.3003  -5.5299  -5.3026  -5.1203  -5.0312  -4.7064  -4.4764  -4.3299
    -4.2010  -4.1507  -3.8840  -3.8626  -3.7834  -3.5688  -3.4335  -3.3935
    -3.2097  -3.0456  -2.8445  -2.7753  -2.6771  -2.4480  -2.4039  -2.2751
    -2.0913  -1.9832  -1.7943  -1.4457  -1.3523  -1.2170  -1.1351  -1.0985
    -1.0041  -0.9053  -0.7266  -0.6803  -0.5261  -0.4820  -0.3483  -0.2885
    -0.1922  -0.0884   0.0470   0.0849   0.1701   0.3024   0.4474   0.4745
     0.5266   0.5536   0.6748   0.7605   0.9243   0.9362   1.1125   1.1470
     1.2536   1.4077   1.4885   1.5198   1.6072   1.7937   1.8598   1.9246
     1.9695   2.2128   2.2760   2.2960   2.4284   2.4918   2.5829   2.8006
     2.8348   2.8590   2.9920   3.0832   3.1358   3.2014   3.2657   3.3875
     3.4008   3.5313   3.6612   3.7513   3.8878   3.9264   3.9912   4.0294
     4.1071   4.2447   4.2829   4.3427   4.4563   4.4830   4.6009   4.6212
     4.7439   4.7916   4.8486   4.9328   4.9909   5.0675   5.1134   5.2519
     5.2702   5.3021   5.3445   5.3871   5.4244   5.4906   5.4965   5.5844
     5.6397   5.6852   5.7567   5.8619   5.9123   6.0020   6.0232   6.0697
     6.1304   6.1550   6.2356   6.3108   6.3735   6.3905   6.5119   6.5456
     6.5828   6.6426   6.6754   6.7492   6.7637   6.8039   6.8218   6.9983
     7.0434   7.0966   7.1807   7.2703   7.3136   7.3941   7.4288   7.5123
     7.5509   7.6165   7.6507   7.6905   7.8362   7.8516   7.9154   7.9608
     8.0398   8.1020

     the Fermi energy is     6.5510 ev

!    total energy              =    -500.85825453 Ry
     estimated scf accuracy    <       0.00000086 Ry
     smearing contrib. (-TS)   =      -0.16336472 Ry
     internal energy E=F+TS    =    -500.69488981 Ry

     The total energy is F=E-TS. E is the sum of the following terms:
     one-electron contribution =     138.64937589 Ry
     hartree contribution      =      43.52812058 Ry
     xc contribution           =    -150.65596245 Ry
     ewald contribution        =    -532.21642384 Ry

     convergence has been achieved in  19 iterations

     Forces acting on atoms (cartesian axes, Ry/au):

     atom    1 type  1   force =     0.00761125    0.01345921    0.00236493
     atom    2 type  1   force =     0.00451722   -0.01716684   -0.00219551
     atom    3 type  1   force =     0.00041818   -0.00535946   -0.04149310
     atom    4 type  1   force =    -0.03602483    0.06619281    0.01243145
     atom    5 type  1   force =    -0.02448800    0.00389881   -0.02933221
     atom    6 type  1   force =     0.01073251    0.04162704   -0.03612670
     atom    7 type  1   force =    -0.01656448   -0.07161591    0.07474273
     atom    8 type  1   force =     0.01521937   -0.04051416    0.00856855
     atom    9 type  1   force =     0.00545117   -0.01584860   -0.02911228
     atom   10 type  1   force =     0.00610359    0.01845323   -0.02411497
     atom   11 type  1   force =     0.01431703   -0.04073305    0.00716370
     atom   12 type  1   force =     0.05151729    0.00529544    0.01774980
     atom   13 type  1   force =    -0.01002483    0.13501700    0.14464604
     atom   14 type  1   force =     0.00214819   -0.00984506    0.01369021
     atom   15 type  1   force =     0.02400275    0.01016838   -0.01089361
     atom   16 type  1   force =     0.01391505    0.01862116   -0.01157194
     atom   17 type  1   force =    -0.03939991   -0.00538086   -0.01692139
     atom   18 type  1   force =    -0.00547629    0.01486215    0.01042333
     atom   19 type  1   force =    -0.00341373   -0.03243197   -0.01549789
     atom   20 type  1   force =     0.04508628   -0.05639800    0.01360580
     atom   21 type  1   force =    -0.01604134   -0.00100611   -0.00078267
     atom   22 type  1   force =    -0.00103413   -0.01327748   -0.01430940
     atom   23 type  1   force =    -0.02569074    0.01784736   -0.00399320
     atom   24 type  1   force =     0.01631319    0.00933343    0.01597967
     atom   25 type  1   force =     0.01997814   -0.00457000   -0.03122212
     atom   26 type  1   force =    -0.00404068    0.01132024    0.00544531
     atom   27 type  1   force =     0.02555874   -0.00330584    0.01182845
     atom   28 type  1   force =     0.02105356   -0.01404460    0.00367859
     atom   29 type  1   force =    -0.02526877   -0.03180799   -0.01812639
     atom   30 type  1   force =     0.00979512    0.00966543    0.03275729
     atom   31 type  1   force =     0.01754355    0.00323815   -0.02999959
     atom   32 type  1   force =     0.03375666    0.02443397    0.03201855
     atom   33 type  1   force =    -0.02667588    0.00997892    0.02233789
     atom   34 type  1   force =     0.05569455   -0.04972891   -0.02953644
     atom   35 type  1   force =    -0.02042127   -0.05466883    0.03767853
     atom   36 type  1   force =    -0.03395171   -0.02521833   -0.00171133
     atom   37 type  1   force =    -0.02996264   -0.02618567   -0.00535984
     atom   38 type  1   force =     0.00297411   -0.04262790   -0.04187727
     atom   39 type  1   force =    -0.00655868   -0.02315831    0.00037590
     atom   40 type  1   force =     0.01408889   -0.00541454    0.00780986
     atom   41 type  1   force =    -0.03190919   -0.00773601   -0.00612618
     atom   42 type  1   force =     0.00333130    0.02366792    0.01628547
     atom   43 type  1   force =     0.01133609    0.03222854   -0.00345880
     atom   44 type  1   force =     0.00453601    0.02748962   -0.00748217
     atom   45 type  1   force =     0.04109037    0.02090276   -0.09744555
     atom   46 type  1   force =    -0.00356053    0.01659645   -0.00455837
     atom   47 type  1   force =    -0.00596330    0.00889587   -0.03109459
     atom   48 type  1   force =    -0.01741998   -0.00796219    0.04104598
     atom   49 type  1   force =     0.02286095   -0.02062391    0.00868942
     atom   50 type  1   force =    -0.01135016   -0.00471352    0.02557763
     atom   51 type  1   force =    -0.02116918    0.01589849    0.00380265
     atom   52 type  1   force =     0.00568706    0.03597736   -0.01684858
     atom   53 type  1   force =     0.01966054   -0.01691641    0.01628752
     atom   54 type  1   force =    -0.02915218    0.01580988    0.02006431
     atom   55 type  1   force =    -0.01422902   -0.07368890   -0.12316669
     atom   56 type  1   force =    -0.04197456   -0.00661866    0.02437540
     atom   57 type  1   force =    -0.03673510   -0.00509843    0.01355702
     atom   58 type  1   force =     0.01089227    0.00667220    0.02278934
     atom   59 type  1   force =     0.02677954    0.02176634    0.02318716
     atom   60 type  1   force =     0.00066795   -0.00668732   -0.01333397
     atom   61 type  1   force =    -0.01815515    0.01445725    0.00669952
     atom   62 type  1   force =    -0.01378598    0.02556276   -0.03164641
     atom   63 type  1   force =     0.02252394    0.06284925    0.02900797
     atom   64 type  1   force =    -0.01672019   -0.00183368    0.00267315

     Total force =     0.420261     Total SCF correction =     0.001899


     Computing stress (Cartesian axis) and pressure

          total   stress  (Ry/bohr**3)                   (kbar)     P=      -14.71
  -0.00009051  -0.00002134   0.00000480          -13.31       -3.14        0.71
  -0.00002134  -0.00014114   0.00005777           -3.14      -20.76        8.50
   0.00000480   0.00005777  -0.00006832            0.71        8.50      -10.05

 
     init_run     :      0.95s CPU      4.33s WALL (       1 calls)
     electrons    :      1.68s CPU      1.79s WALL (       1 calls)
     forces       :      0.03s CPU      0.03s WALL (       1 calls)
     stress       :      0.15s CPU      0.15s WALL (       1 calls)

     Called by init_run:
     wfcinit      :      0.45s CPU      3.67s WALL (       1 calls)
                                        3.67s GPU  (       1 calls)
     potinit      :      0.03s CPU      0.13s WALL (       1 calls)
     hinit0       :      0.45s CPU      0.48s WALL (       1 calls)

     Called by electrons:
     c_bands      :      1.06s CPU      1.12s WALL (      20 calls)
     sum_band     :      0.32s CPU      0.35s WALL (      20 calls)
     v_of_rho     :      0.13s CPU      0.23s WALL (      20 calls)
     mix_rho      :      0.14s CPU      0.16s WALL (      20 calls)

     Called by c_bands:
     init_us_2    :      0.05s CPU      0.06s WALL (      41 calls)
     init_us_2:gp :      0.05s CPU      0.05s WALL (      41 calls)
     regterg      :      0.92s CPU      0.97s WALL (      20 calls)

     Called by *egterg:
     rdiaghg      :      0.34s CPU      1.01s WALL (      79 calls)
                                        1.00s GPU  (      79 calls)
     h_psi        :      0.86s CPU      3.44s WALL (      81 calls)
                                        3.44s GPU  (      81 calls)
     g_psi        :      0.00s CPU      0.00s WALL (      60 calls)
                                        0.00s GPU  (      60 calls)

     Called by h_psi:
     h_psi:calbec :      0.44s CPU      2.96s WALL (      81 calls)
                                        2.96s GPU  (      81 calls)
     vloc_psi     :      0.37s CPU      0.43s WALL (      81 calls)
                                        0.43s GPU  (      81 calls)
     add_vuspsi   :      0.03s CPU      0.05s WALL (      81 calls)
                                        0.05s GPU  (      81 calls)

     General routines
     calbec       :      0.44s CPU      2.96s WALL (      86 calls)
     fft          :      0.54s CPU      0.67s WALL (     167 calls)
                                        0.12s GPU  (     106 calls)
     ffts         :      0.03s CPU      0.04s WALL (      20 calls)
     fftw         :      0.46s CPU      0.59s WALL (    2086 calls)
                                        0.52s GPU  (    2086 calls)
 
     Parallel routines
 
     PWSCF        :      2.84s CPU      6.38s WALL

 
   This run was terminated on:  15: 9:50  11May2023            

=------------------------------------------------------------------------------=
   JOB DONE.
=------------------------------------------------------------------------------=
