An instance of this daemon is already running
An instance of this daemon is already running

     Program PWSCF v.7.1 starts on 11May2023 at 15: 8:42 

     This program is part of the open-source Quantum ESPRESSO suite
     for quantum simulation of materials; please cite
         "P. Giannozzi et al., J. Phys.:Condens. Matter 21 395502 (2009);
         "P. Giannozzi et al., J. Phys.:Condens. Matter 29 465901 (2017);
         "P. Giannozzi et al., J. Chem. Phys. 152 154105 (2020);
          URL http://www.quantum-espresso.org", 
     in publications or presentations arising from this work. More details at
     http://www.quantum-espresso.org/quote

     Parallel version (MPI & OpenMP), running on       4 processor cores
     Number of MPI processes:                 4
     Threads/MPI process:                     1

     MPI processes distributed on     1 nodes
     1005389 MiB available memory on the printing compute node when the environment starts
 
     Reading input from pw-si-22.in
Warning: card &CELL ignored
Warning: card / ignored

     Current dimensions of program PWSCF are:
     Max number of different atomic species (ntypx) = 10
     Max number of k-points (npk) =  40000
     Max angular momentum in pseudopotentials (lmaxx) =  4

     IMPORTANT: XC functional enforced from input :
     Exchange-correlation= PBE
                           (   1   4   3   4   0   0   0)
     Any further DFT definition will be discarded
     Please, verify this is what you really want


     gamma-point specific algorithms are used
 
     K-points division:     npool     =       2
     R & G space division:  proc/nbgrp/npool/nimage =       2
     Subspace diagonalization in iterative solution of the eigenvalue problem:
     a serial algorithm will be used

     Message from routine divide_et_impera:
     suboptimal parallelization: some nodes have no k-points
 
     Parallelization info
     --------------------
     sticks:   dense  smooth     PW     G-vecs:    dense   smooth      PW
     Min        2025    2025    542                97632    97632   13370
     Max        2028    2028    543                97637    97637   13375
     Sum        4053    4053   1085               195269   195269   26745
 
     Using Slab Decomposition
 


     bravais-lattice index     =            0
     lattice parameter (alat)  =      20.6543  a.u.
     unit-cell volume          =    8811.1408 (a.u.)^3
     number of atoms/cell      =           64
     number of atomic types    =            1
     number of electrons       =       256.00
     number of Kohn-Sham states=          154
     kinetic-energy cutoff     =      30.0000  Ry
     charge density cutoff     =     120.0000  Ry
     scf convergence threshold =      1.0E-06
     mixing beta               =       0.5000
     number of iterations used =            8  plain     mixing
     Exchange-correlation= PBE
                           (   1   4   3   4   0   0   0)

     GPU acceleration is ACTIVE.
     GPU-aware MPI enabled

     Message from routine print_cuda_info:
     High GPU oversubscription detected. Are you sure this is what you want?

     celldm(1)=  20.654311  celldm(2)=   0.000000  celldm(3)=   0.000000
     celldm(4)=   0.000000  celldm(5)=   0.000000  celldm(6)=   0.000000

     crystal axes: (cart. coord. in units of alat)
               a(1) = (   1.000000   0.000000   0.000000 )  
               a(2) = (   0.000000   1.000000   0.000000 )  
               a(3) = (   0.000000   0.000000   1.000000 )  

     reciprocal axes: (cart. coord. in units 2 pi/alat)
               b(1) = (  1.000000  0.000000  0.000000 )  
               b(2) = (  0.000000  1.000000  0.000000 )  
               b(3) = (  0.000000  0.000000  1.000000 )  


     PseudoPot. # 1 for Si read from file:
     /home/ppiaggi/pseudos/Si_ONCV_PBE_sr.upf
     MD5 check sum: 8553c464762ac42b85b1eed164b4d029
     Pseudo is Norm-conserving, Zval =  4.0
     Generated using ONCVPSP code by D. R. Hamann
     Using radial grid of 1510 points,  4 beta functions with: 
                l(1) =   0
                l(2) =   0
                l(3) =   1
                l(4) =   1

     atomic species   valence    mass     pseudopotential
        Si             4.00    28.08500     Si( 1.00)

     No symmetry found



   Cartesian axes

     site n.     atom                  positions (alat units)
         1           Si  tau(   1) = (   0.3918190   0.1258480   0.7041720  )
         2           Si  tau(   2) = (   0.5438640   0.1056860   0.8977010  )
         3           Si  tau(   3) = (   0.9146150   0.3654510   0.5743800  )
         4           Si  tau(   4) = (   0.9488790   0.8780490   0.2539960  )
         5           Si  tau(   5) = (   0.9563200   0.9912850   0.0356383  )
         6           Si  tau(   6) = (   0.6729360   0.4443690   0.5330210  )
         7           Si  tau(   7) = (   0.7747350   0.5952760   0.3790400  )
         8           Si  tau(   8) = (   0.9000450   0.7104930   0.0736558  )
         9           Si  tau(   9) = (   0.1807380   0.8606570   0.4595600  )
        10           Si  tau(  10) = (   0.1434180   0.5082610   0.0990348  )
        11           Si  tau(  11) = (   0.0825671   0.2866720   0.8564440  )
        12           Si  tau(  12) = (   0.7294640   0.9027170   0.1311750  )
        13           Si  tau(  13) = (   0.4939320   0.8708600   0.2898750  )
        14           Si  tau(  14) = (   0.3820200   0.9725140   0.5411760  )
        15           Si  tau(  15) = (   0.0817322   0.6964520   0.7209000  )
        16           Si  tau(  16) = (   0.4595190   0.5509450   0.4027160  )
        17           Si  tau(  17) = (   0.3832360   0.1114690   0.3673590  )
        18           Si  tau(  18) = (   0.2571100   0.6654460   0.3721540  )
        19           Si  tau(  19) = (   0.5431700   0.1930690   0.5188360  )
        20           Si  tau(  20) = (   0.5131760   0.5100760   0.7924040  )
        21           Si  tau(  21) = (   0.9646980   0.7022450   0.4456550  )
        22           Si  tau(  22) = (   0.2060160   0.6874920   0.9133780  )
        23           Si  tau(  23) = (   0.8327810   0.1876910   0.6972420  )
        24           Si  tau(  24) = (   0.8197550   0.3860400   0.3809320  )
        25           Si  tau(  25) = (   0.2539670   0.9078020   0.8634520  )
        26           Si  tau(  26) = (   0.0333219   0.3663120   0.2665090  )
        27           Si  tau(  27) = (   0.6880080   0.1365580   0.1720800  )
        28           Si  tau(  28) = (   0.6276990   0.7833360   0.4550190  )
        29           Si  tau(  29) = (   0.1317370   0.4806870   0.6658280  )
        30           Si  tau(  30) = (   0.7000710   0.6900560   0.2160130  )
        31           Si  tau(  31) = (   0.3917400   0.0095862   0.0597034  )
        32           Si  tau(  32) = (   0.0995080   0.0579377   0.8964700  )
        33           Si  tau(  33) = (   0.2107690   0.8463710   0.2587260  )
        34           Si  tau(  34) = (   0.7865920   0.0943456   0.9080420  )
        35           Si  tau(  35) = (   0.2978510   0.3675290   0.5443940  )
        36           Si  tau(  36) = (   0.5280830   0.7921210   0.0742614  )
        37           Si  tau(  37) = (   0.2368130   0.3026160   0.2992260  )
        38           Si  tau(  38) = (   0.5512900   0.3400840   0.9403800  )
        39           Si  tau(  39) = (   0.8764570   0.2582430   0.1862050  )
        40           Si  tau(  40) = (   0.6389290   0.0349057   0.3429360  )
        41           Si  tau(  41) = (   0.8174720   0.9294620   0.7718470  )
        42           Si  tau(  42) = (   0.5290910   0.2700360   0.7167560  )
        43           Si  tau(  43) = (   0.9004140   0.3513530   0.9519350  )
        44           Si  tau(  44) = (   0.1241610   0.5017540   0.4057030  )
        45           Si  tau(  45) = (   0.2850790   0.7476810   0.6530070  )
        46           Si  tau(  46) = (   0.4276470   0.4126170   0.1185070  )
        47           Si  tau(  47) = (   0.5730980   0.4902830   0.2468090  )
        48           Si  tau(  48) = (   0.3928960   0.5574020   0.6158280  )
        49           Si  tau(  49) = (   0.0500087   0.0282305   0.4922660  )
        50           Si  tau(  50) = (   0.4472770   0.3292230   0.3599060  )
        51           Si  tau(  51) = (   0.3065620   0.3316670   0.7709630  )
        52           Si  tau(  52) = (   0.8571370   0.9659890   0.4383010  )
        53           Si  tau(  53) = (   0.6438210   0.6603980   0.6332300  )
        54           Si  tau(  54) = (   0.7432520   0.3540430   0.8196270  )
        55           Si  tau(  55) = (   0.8734940   0.7183230   0.6626450  )
        56           Si  tau(  56) = (   0.6813760   0.0361446   0.6033080  )
        57           Si  tau(  57) = (   0.2393560   0.0617347   0.2084520  )
        58           Si  tau(  58) = (   0.7035520   0.5404090   0.9918450  )
        59           Si  tau(  59) = (   0.7497730   0.7454800   0.8887470  )
        60           Si  tau(  60) = (   0.0381386   0.0850342   0.2308710  )
        61           Si  tau(  61) = (   0.0018028   0.6295380   0.2535870  )
        62           Si  tau(  62) = (   0.0356269   0.1405340   0.6809250  )
        63           Si  tau(  63) = (   0.3463590   0.1988420   0.9377840  )
        64           Si  tau(  64) = (   0.4354500   0.5951880   0.9753560  )

     number of k points=     1  Fermi-Dirac smearing, width (Ry)=  0.0100
                       cart. coord. in units 2pi/alat
        k(    1) = (   0.0000000   0.0000000   0.0000000), wk =   2.0000000

     Dense  grid:    97635 G-vectors     FFT dimensions: (  75,  75,  75)

     Estimated max dynamical RAM per process >     157.56 MB

     Estimated total dynamical RAM >     606.41 MB

     Initial potential from superposition of free atoms

     starting charge     255.9608, renormalised to     256.0000
     Starting wfcs are  256 randomized atomic wfcs

     total cpu time spent up to now is        4.1 secs

     Self-consistent Calculation

     iteration #  1     ecut=    30.00 Ry     beta= 0.50
     Davidson diagonalization with overlap
     ethr =  1.00E-02,  avg # of iterations =  3.0

     Threshold (ethr) on eigenvalues was too large:
     Diagonalizing with lowered threshold

     Davidson diagonalization with overlap
     ethr =  5.83E-04,  avg # of iterations =  4.0

     total cpu time spent up to now is        4.3 secs

     total energy              =    -500.42359473 Ry
     estimated scf accuracy    <       1.91249401 Ry

     iteration #  2     ecut=    30.00 Ry     beta= 0.50
     Davidson diagonalization with overlap
     ethr =  7.47E-04,  avg # of iterations =  5.0

     total cpu time spent up to now is        4.5 secs

     total energy              =    -499.66802682 Ry
     estimated scf accuracy    <      11.54394754 Ry

     iteration #  3     ecut=    30.00 Ry     beta= 0.50
     Davidson diagonalization with overlap
     ethr =  7.47E-04,  avg # of iterations =  4.0

     total cpu time spent up to now is        4.6 secs

     total energy              =    -500.69313740 Ry
     estimated scf accuracy    <       3.10260421 Ry

     iteration #  4     ecut=    30.00 Ry     beta= 0.50
     Davidson diagonalization with overlap
     ethr =  7.47E-04,  avg # of iterations =  2.0

     total cpu time spent up to now is        4.7 secs

     total energy              =    -500.95177468 Ry
     estimated scf accuracy    <       0.63104046 Ry

     iteration #  5     ecut=    30.00 Ry     beta= 0.50
     Davidson diagonalization with overlap
     ethr =  2.47E-04,  avg # of iterations =  2.0

     total cpu time spent up to now is        4.8 secs

     total energy              =    -500.98143240 Ry
     estimated scf accuracy    <       0.43612143 Ry

     iteration #  6     ecut=    30.00 Ry     beta= 0.50
     Davidson diagonalization with overlap
     ethr =  1.70E-04,  avg # of iterations =  2.0

     total cpu time spent up to now is        4.9 secs

     total energy              =    -501.02236792 Ry
     estimated scf accuracy    <       0.14864347 Ry

     iteration #  7     ecut=    30.00 Ry     beta= 0.50
     Davidson diagonalization with overlap
     ethr =  5.81E-05,  avg # of iterations =  2.0

     total cpu time spent up to now is        5.0 secs

     total energy              =    -501.03366779 Ry
     estimated scf accuracy    <       0.03522689 Ry

     iteration #  8     ecut=    30.00 Ry     beta= 0.50
     Davidson diagonalization with overlap
     ethr =  1.38E-05,  avg # of iterations =  7.0

     total cpu time spent up to now is        5.1 secs

     total energy              =    -501.03795467 Ry
     estimated scf accuracy    <       0.03169368 Ry

     iteration #  9     ecut=    30.00 Ry     beta= 0.50
     Davidson diagonalization with overlap
     ethr =  1.24E-05,  avg # of iterations =  2.0

     total cpu time spent up to now is        5.2 secs

     total energy              =    -501.04031818 Ry
     estimated scf accuracy    <       0.00206343 Ry

     iteration # 10     ecut=    30.00 Ry     beta= 0.50
     Davidson diagonalization with overlap
     ethr =  8.06E-07,  avg # of iterations =  8.0

     total cpu time spent up to now is        5.3 secs

     total energy              =    -501.04040481 Ry
     estimated scf accuracy    <       0.00660993 Ry

     iteration # 11     ecut=    30.00 Ry     beta= 0.50
     Davidson diagonalization with overlap
     ethr =  8.06E-07,  avg # of iterations =  3.0

     total cpu time spent up to now is        5.4 secs

     total energy              =    -501.04087494 Ry
     estimated scf accuracy    <       0.00079051 Ry

     iteration # 12     ecut=    30.00 Ry     beta= 0.50
     Davidson diagonalization with overlap
     ethr =  3.09E-07,  avg # of iterations =  2.0

     total cpu time spent up to now is        5.5 secs

     total energy              =    -501.04091769 Ry
     estimated scf accuracy    <       0.00036975 Ry

     iteration # 13     ecut=    30.00 Ry     beta= 0.50
     Davidson diagonalization with overlap
     ethr =  1.44E-07,  avg # of iterations =  3.0

     total cpu time spent up to now is        5.7 secs

     total energy              =    -501.04092463 Ry
     estimated scf accuracy    <       0.00101588 Ry

     iteration # 14     ecut=    30.00 Ry     beta= 0.50
     Davidson diagonalization with overlap
     ethr =  1.44E-07,  avg # of iterations =  2.0

     total cpu time spent up to now is        5.8 secs

     total energy              =    -501.04098722 Ry
     estimated scf accuracy    <       0.00002714 Ry

     iteration # 15     ecut=    30.00 Ry     beta= 0.50
     Davidson diagonalization with overlap
     ethr =  1.06E-08,  avg # of iterations =  5.0

     total cpu time spent up to now is        5.9 secs

     total energy              =    -501.04098891 Ry
     estimated scf accuracy    <       0.00004480 Ry

     iteration # 16     ecut=    30.00 Ry     beta= 0.50
     Davidson diagonalization with overlap
     ethr =  1.06E-08,  avg # of iterations =  3.0

     total cpu time spent up to now is        6.0 secs

     total energy              =    -501.04099191 Ry
     estimated scf accuracy    <       0.00003096 Ry

     iteration # 17     ecut=    30.00 Ry     beta= 0.50
     Davidson diagonalization with overlap
     ethr =  1.06E-08,  avg # of iterations =  2.0

     total cpu time spent up to now is        6.1 secs

     total energy              =    -501.04099330 Ry
     estimated scf accuracy    <       0.00000714 Ry

     iteration # 18     ecut=    30.00 Ry     beta= 0.50
     Davidson diagonalization with overlap
     ethr =  2.79E-09,  avg # of iterations =  3.0

     total cpu time spent up to now is        6.2 secs

     total energy              =    -501.04099396 Ry
     estimated scf accuracy    <       0.00000752 Ry

     iteration # 19     ecut=    30.00 Ry     beta= 0.50
     Davidson diagonalization with overlap
     ethr =  2.79E-09,  avg # of iterations =  1.0

     total cpu time spent up to now is        6.3 secs

     End of self-consistent calculation

          k = 0.0000 0.0000 0.0000 ( 12203 PWs)   bands (ev):

    -6.4463  -5.9748  -5.3815  -5.2736  -5.1123  -4.9296  -4.7811  -4.7260
    -4.4106  -4.3289  -4.1786  -4.1340  -3.8450  -3.7781  -3.6914  -3.6026
    -3.4037  -3.3050  -3.1692  -3.0659  -2.8309  -2.7134  -2.6341  -2.3964
    -2.3390  -2.1877  -2.1225  -1.9217  -1.8499  -1.7087  -1.6641  -1.4611
    -1.1771  -1.1177  -1.0850  -0.9462  -0.9347  -0.7872  -0.6803  -0.6347
    -0.5160  -0.4455  -0.3813  -0.2896  -0.2145  -0.0262  -0.0096   0.0966
     0.1558   0.2184   0.3762   0.4620   0.5693   0.6654   0.8697   0.9465
     1.0413   1.1274   1.1739   1.2952   1.4595   1.6153   1.7539   1.7995
     1.8380   2.0055   2.0617   2.1489   2.1809   2.2493   2.3375   2.4113
     2.4588   2.4880   2.6231   2.7276   2.8312   2.9053   2.9935   3.0346
     3.1797   3.2599   3.3217   3.4258   3.4885   3.5118   3.5454   3.6958
     3.7161   3.8442   3.9111   3.9539   3.9828   4.0626   4.1283   4.1915
     4.2877   4.4307   4.4819   4.5857   4.6047   4.6215   4.6479   4.7317
     4.7927   4.8665   4.9211   4.9765   5.0538   5.1794   5.2129   5.2915
     5.3257   5.3400   5.4564   5.4819   5.5147   5.6284   5.6599   5.6629
     5.8246   5.8716   5.8920   5.9646   6.0186   6.0869   6.1890   6.2374
     6.3052   6.3269   6.3741   6.4380   6.4779   6.5536   6.6861   6.7048
     6.7426   6.8206   6.8749   6.9496   7.0148   7.1019   7.1698   7.2102
     7.2760   7.3397   7.3610   7.4181   7.5184   7.5837   7.6682   7.7047
     7.8111   7.8741

     the Fermi energy is     6.2463 ev

!    total energy              =    -501.04099407 Ry
     estimated scf accuracy    <       0.00000054 Ry
     smearing contrib. (-TS)   =      -0.14953537 Ry
     internal energy E=F+TS    =    -500.89145870 Ry

     The total energy is F=E-TS. E is the sum of the following terms:
     one-electron contribution =     118.50732778 Ry
     hartree contribution      =      50.28776230 Ry
     xc contribution           =    -150.14537052 Ry
     ewald contribution        =    -519.54117826 Ry

     convergence has been achieved in  19 iterations

     Forces acting on atoms (cartesian axes, Ry/au):

     atom    1 type  1   force =    -0.05991619   -0.06878422    0.01892615
     atom    2 type  1   force =     0.02454439    0.01657755   -0.00727958
     atom    3 type  1   force =     0.01313638    0.00147460    0.02290463
     atom    4 type  1   force =     0.00491106   -0.02776714   -0.00861408
     atom    5 type  1   force =    -0.05364813   -0.00765325    0.00998584
     atom    6 type  1   force =    -0.01375820    0.00700372    0.02862666
     atom    7 type  1   force =     0.04026320    0.00422030    0.04396012
     atom    8 type  1   force =    -0.02680099    0.02557786    0.00012578
     atom    9 type  1   force =    -0.00437639    0.00254232    0.08204608
     atom   10 type  1   force =    -0.01391156    0.00008555    0.01314113
     atom   11 type  1   force =     0.03867008   -0.03121822   -0.02459392
     atom   12 type  1   force =     0.00450598    0.00542436   -0.01059009
     atom   13 type  1   force =     0.00646376   -0.00162909    0.01394838
     atom   14 type  1   force =     0.00141449   -0.01017895    0.00041475
     atom   15 type  1   force =     0.02661973   -0.03122666    0.02675856
     atom   16 type  1   force =    -0.04582180    0.04914888    0.07237823
     atom   17 type  1   force =     0.01556726   -0.01028521    0.00259000
     atom   18 type  1   force =     0.04700719   -0.02471957   -0.00181159
     atom   19 type  1   force =     0.00647915   -0.00680361   -0.03389152
     atom   20 type  1   force =     0.01963863   -0.00725419   -0.00570716
     atom   21 type  1   force =    -0.01169603    0.02243091    0.04032638
     atom   22 type  1   force =     0.00799925    0.00241931    0.00247846
     atom   23 type  1   force =    -0.04029367   -0.00233594   -0.00986661
     atom   24 type  1   force =     0.00485910   -0.01287937   -0.02661503
     atom   25 type  1   force =     0.01072407   -0.01341447    0.01804396
     atom   26 type  1   force =     0.04598301    0.04099781   -0.01684865
     atom   27 type  1   force =     0.01977857    0.00963759   -0.05867804
     atom   28 type  1   force =    -0.00638128    0.00698558   -0.02559972
     atom   29 type  1   force =    -0.02491558   -0.00874681   -0.02618993
     atom   30 type  1   force =    -0.02680816    0.00888684   -0.07340320
     atom   31 type  1   force =    -0.00850455   -0.02438476   -0.03971964
     atom   32 type  1   force =     0.03512861    0.01863153   -0.03758723
     atom   33 type  1   force =     0.00152695    0.00378233   -0.05165398
     atom   34 type  1   force =     0.00350408    0.02074269    0.02963458
     atom   35 type  1   force =    -0.01806033    0.02110282   -0.01659342
     atom   36 type  1   force =     0.01132437    0.00854522    0.01231053
     atom   37 type  1   force =    -0.00683197   -0.01029904   -0.01014042
     atom   38 type  1   force =    -0.00720643   -0.01023428    0.01048610
     atom   39 type  1   force =    -0.02875110   -0.03992983   -0.03675533
     atom   40 type  1   force =    -0.00336943   -0.01761865    0.03703656
     atom   41 type  1   force =    -0.01162098   -0.03396387   -0.03599528
     atom   42 type  1   force =     0.09330124    0.09457594    0.02609815
     atom   43 type  1   force =     0.02811155    0.00593016    0.07698814
     atom   44 type  1   force =     0.00121342    0.00496785    0.06010620
     atom   45 type  1   force =    -0.02771079    0.03782024   -0.00024104
     atom   46 type  1   force =    -0.03325831   -0.00189404   -0.04856756
     atom   47 type  1   force =     0.05944692   -0.00323888   -0.02983953
     atom   48 type  1   force =     0.00527931   -0.01084470   -0.01913065
     atom   49 type  1   force =     0.01318910    0.02765240   -0.00143466
     atom   50 type  1   force =     0.01608046   -0.00644166    0.01688702
     atom   51 type  1   force =    -0.02716652    0.01378672   -0.00700009
     atom   52 type  1   force =    -0.06755252   -0.03357261   -0.00622580
     atom   53 type  1   force =     0.01428588   -0.03652623    0.01730260
     atom   54 type  1   force =    -0.04793434    0.00667998   -0.04093830
     atom   55 type  1   force =    -0.02022090    0.03276401    0.00829107
     atom   56 type  1   force =     0.03488038   -0.01355110    0.00255447
     atom   57 type  1   force =     0.06462835    0.00037719   -0.00738919
     atom   58 type  1   force =     0.00205630    0.00346316    0.00069683
     atom   59 type  1   force =     0.00422325   -0.00205819    0.00454593
     atom   60 type  1   force =    -0.06038473    0.01525865    0.01321627
     atom   61 type  1   force =     0.00669694   -0.02677909   -0.04378985
     atom   62 type  1   force =     0.01374063   -0.00192642    0.02409328
     atom   63 type  1   force =    -0.02430216    0.00351912    0.02379593
     atom   64 type  1   force =    -0.02598003    0.01514688    0.00199229

     Total force =     0.399175     Total SCF correction =     0.001353


     Computing stress (Cartesian axis) and pressure

          total   stress  (Ry/bohr**3)                   (kbar)     P=      -25.75
  -0.00006465   0.00000461  -0.00005149           -9.51        0.68       -7.57
   0.00000461  -0.00032163  -0.00000810            0.68      -47.31       -1.19
  -0.00005149  -0.00000810  -0.00013882           -7.57       -1.19      -20.42

 
     init_run     :      0.60s CPU      4.04s WALL (       1 calls)
     electrons    :      2.00s CPU      2.17s WALL (       1 calls)
     forces       :      0.03s CPU      0.03s WALL (       1 calls)
     stress       :      0.15s CPU      0.16s WALL (       1 calls)

     Called by init_run:
     wfcinit      :      0.41s CPU      3.70s WALL (       1 calls)
                                        3.70s GPU  (       1 calls)
     potinit      :      0.04s CPU      0.11s WALL (       1 calls)
     hinit0       :      0.13s CPU      0.16s WALL (       1 calls)

     Called by electrons:
     c_bands      :      1.31s CPU      1.39s WALL (      20 calls)
     sum_band     :      0.37s CPU      0.41s WALL (      20 calls)
     v_of_rho     :      0.15s CPU      0.23s WALL (      20 calls)
     mix_rho      :      0.15s CPU      0.17s WALL (      20 calls)

     Called by c_bands:
     init_us_2    :      0.05s CPU      0.05s WALL (      41 calls)
     init_us_2:gp :      0.05s CPU      0.05s WALL (      41 calls)
     regterg      :      1.17s CPU      1.24s WALL (      20 calls)

     Called by *egterg:
     rdiaghg      :      0.36s CPU      1.03s WALL (      84 calls)
                                        1.02s GPU  (      84 calls)
     h_psi        :      1.04s CPU      3.71s WALL (      86 calls)
                                        3.71s GPU  (      86 calls)
     g_psi        :      0.00s CPU      0.00s WALL (      65 calls)
                                        0.00s GPU  (      65 calls)

     Called by h_psi:
     h_psi:calbec :      0.38s CPU      2.97s WALL (      86 calls)
                                        2.97s GPU  (      86 calls)
     vloc_psi     :      0.61s CPU      0.69s WALL (      86 calls)
                                        0.68s GPU  (      86 calls)
     add_vuspsi   :      0.03s CPU      0.05s WALL (      86 calls)
                                        0.05s GPU  (      86 calls)

     General routines
     calbec       :      0.39s CPU      2.97s WALL (      91 calls)
     fft          :      0.26s CPU      0.37s WALL (     167 calls)
                                        0.11s GPU  (     106 calls)
     ffts         :      0.04s CPU      0.04s WALL (      20 calls)
     fftw         :      0.67s CPU      0.87s WALL (    2104 calls)
                                        0.79s GPU  (    2104 calls)
 
     Parallel routines
 
     PWSCF        :      2.82s CPU      6.47s WALL

 
   This run was terminated on:  15: 8:49  11May2023            

=------------------------------------------------------------------------------=
   JOB DONE.
=------------------------------------------------------------------------------=
