An instance of this daemon is already running
An instance of this daemon is already running

     Program PWSCF v.7.1 starts on 11May2023 at 15: 9:35 

     This program is part of the open-source Quantum ESPRESSO suite
     for quantum simulation of materials; please cite
         "P. Giannozzi et al., J. Phys.:Condens. Matter 21 395502 (2009);
         "P. Giannozzi et al., J. Phys.:Condens. Matter 29 465901 (2017);
         "P. Giannozzi et al., J. Chem. Phys. 152 154105 (2020);
          URL http://www.quantum-espresso.org", 
     in publications or presentations arising from this work. More details at
     http://www.quantum-espresso.org/quote

     Parallel version (MPI & OpenMP), running on       4 processor cores
     Number of MPI processes:                 4
     Threads/MPI process:                     1

     MPI processes distributed on     1 nodes
     1005443 MiB available memory on the printing compute node when the environment starts
 
     Reading input from pw-si-28.in
Warning: card &CELL ignored
Warning: card / ignored

     Current dimensions of program PWSCF are:
     Max number of different atomic species (ntypx) = 10
     Max number of k-points (npk) =  40000
     Max angular momentum in pseudopotentials (lmaxx) =  4

     IMPORTANT: XC functional enforced from input :
     Exchange-correlation= PBE
                           (   1   4   3   4   0   0   0)
     Any further DFT definition will be discarded
     Please, verify this is what you really want


     gamma-point specific algorithms are used
 
     K-points division:     npool     =       2
     R & G space division:  proc/nbgrp/npool/nimage =       2
     Subspace diagonalization in iterative solution of the eigenvalue problem:
     a serial algorithm will be used

     Message from routine divide_et_impera:
     suboptimal parallelization: some nodes have no k-points
 
     Parallelization info
     --------------------
     sticks:   dense  smooth     PW     G-vecs:    dense   smooth      PW
     Min        2019    2019    541                96801    96801   13096
     Max        2022    2022    544                96806    96806   13097
     Sum        4041    4041   1085               193607   193607   26193
 
     Using Slab Decomposition
 


     bravais-lattice index     =            0
     lattice parameter (alat)  =      20.5901  a.u.
     unit-cell volume          =    8729.1969 (a.u.)^3
     number of atoms/cell      =           64
     number of atomic types    =            1
     number of electrons       =       256.00
     number of Kohn-Sham states=          154
     kinetic-energy cutoff     =      30.0000  Ry
     charge density cutoff     =     120.0000  Ry
     scf convergence threshold =      1.0E-06
     mixing beta               =       0.5000
     number of iterations used =            8  plain     mixing
     Exchange-correlation= PBE
                           (   1   4   3   4   0   0   0)

     GPU acceleration is ACTIVE.
     GPU-aware MPI enabled

     Message from routine print_cuda_info:
     High GPU oversubscription detected. Are you sure this is what you want?

     celldm(1)=  20.590083  celldm(2)=   0.000000  celldm(3)=   0.000000
     celldm(4)=   0.000000  celldm(5)=   0.000000  celldm(6)=   0.000000

     crystal axes: (cart. coord. in units of alat)
               a(1) = (   1.000000   0.000000   0.000000 )  
               a(2) = (   0.000000   1.000000   0.000000 )  
               a(3) = (   0.000000   0.000000   1.000000 )  

     reciprocal axes: (cart. coord. in units 2 pi/alat)
               b(1) = (  1.000000  0.000000  0.000000 )  
               b(2) = (  0.000000  1.000000  0.000000 )  
               b(3) = (  0.000000  0.000000  1.000000 )  


     PseudoPot. # 1 for Si read from file:
     /home/ppiaggi/pseudos/Si_ONCV_PBE_sr.upf
     MD5 check sum: 8553c464762ac42b85b1eed164b4d029
     Pseudo is Norm-conserving, Zval =  4.0
     Generated using ONCVPSP code by D. R. Hamann
     Using radial grid of 1510 points,  4 beta functions with: 
                l(1) =   0
                l(2) =   0
                l(3) =   1
                l(4) =   1

     atomic species   valence    mass     pseudopotential
        Si             4.00    28.08500     Si( 1.00)

     No symmetry found



   Cartesian axes

     site n.     atom                  positions (alat units)
         1           Si  tau(   1) = (   0.4354950   0.7406420   0.5055350  )
         2           Si  tau(   2) = (   0.7835840   0.9630200   0.0756159  )
         3           Si  tau(   3) = (   0.0878473   0.5201490   0.9139020  )
         4           Si  tau(   4) = (   0.8259920   0.9495790   0.4411250  )
         5           Si  tau(   5) = (   0.4734730   0.2649830   0.7318900  )
         6           Si  tau(   6) = (   0.7767170   0.4166570   0.4534650  )
         7           Si  tau(   7) = (   0.8723120   0.6404310   0.2569670  )
         8           Si  tau(   8) = (   0.5978190   0.8380550   0.1071850  )
         9           Si  tau(   9) = (   0.6932520   0.7996000   0.3835200  )
        10           Si  tau(  10) = (   0.2704410   0.1865570   0.8714030  )
        11           Si  tau(  11) = (   0.0137175   0.5683490   0.1382420  )
        12           Si  tau(  12) = (   0.5777880   0.1936100   0.4232270  )
        13           Si  tau(  13) = (   0.8756300   0.7501240   0.7810180  )
        14           Si  tau(  14) = (   0.7626400   0.4293480   0.7766110  )
        15           Si  tau(  15) = (   0.0721309   0.1630180   0.6012210  )
        16           Si  tau(  16) = (   0.0369491   0.9008540   0.0728042  )
        17           Si  tau(  17) = (   0.2459000   0.7123380   0.9448240  )
        18           Si  tau(  18) = (   0.8919310   0.1753060   0.9643150  )
        19           Si  tau(  19) = (   0.9997530   0.8147300   0.3300860  )
        20           Si  tau(  20) = (   0.8158600   0.0824015   0.6643860  )
        21           Si  tau(  21) = (   0.2693930   0.3670420   0.9827590  )
        22           Si  tau(  22) = (   0.2460920   0.3392750   0.3872410  )
        23           Si  tau(  23) = (   0.3786590   0.0764800   0.2535640  )
        24           Si  tau(  24) = (   0.6442130   0.6415930   0.7098000  )
        25           Si  tau(  25) = (   0.4580660   0.8536570   0.3155810  )
        26           Si  tau(  26) = (   0.1003570   0.7918000   0.7120590  )
        27           Si  tau(  27) = (   0.2340670   0.9984410   0.4761240  )
        28           Si  tau(  28) = (   0.6926740   0.0960028   0.8606230  )
        29           Si  tau(  29) = (   0.9797070   0.3432680   0.7069500  )
        30           Si  tau(  30) = (   0.4287450   0.5870020   0.8593860  )
        31           Si  tau(  31) = (   0.2043810   0.3144820   0.7063000  )
        32           Si  tau(  32) = (   0.5656840   0.4237490   0.8627060  )
        33           Si  tau(  33) = (   0.4114840   0.5842660   0.2863530  )
        34           Si  tau(  34) = (   0.7852830   0.3773120   0.0517043  )
        35           Si  tau(  35) = (   0.9069420   0.0277967   0.2291230  )
        36           Si  tau(  36) = (   0.3522820   0.9919100   0.9452610  )
        37           Si  tau(  37) = (   0.6996850   0.2832820   0.6303860  )
        38           Si  tau(  38) = (   0.0317856   0.3268540   0.9360090  )
        39           Si  tau(  39) = (   0.2244200   0.6574080   0.1979180  )
        40           Si  tau(  40) = (   0.1668140   0.5335540   0.4194500  )
        41           Si  tau(  41) = (   0.7152060   0.1553480   0.2766770  )
        42           Si  tau(  42) = (   0.7605020   0.7340890   0.0307022  )
        43           Si  tau(  43) = (   0.5739580   0.9888400   0.7025050  )
        44           Si  tau(  44) = (   0.5806880   0.5362770   0.5081140  )
        45           Si  tau(  45) = (   0.1886550   0.1188030   0.0741293  )
        46           Si  tau(  46) = (   0.7880490   0.7655020   0.5861720  )
        47           Si  tau(  47) = (   0.8292540   0.5691970   0.9361120  )
        48           Si  tau(  48) = (   0.4830650   0.0003164   0.4895160  )
        49           Si  tau(  49) = (   0.9133150   0.9508860   0.8918600  )
        50           Si  tau(  50) = (   0.4649560   0.7963110   0.7494460  )
        51           Si  tau(  51) = (   0.5682600   0.6246700   0.0484628  )
        52           Si  tau(  52) = (   0.1569600   0.9919720   0.8275810  )
        53           Si  tau(  53) = (   0.7439590   0.4518420   0.2542130  )
        54           Si  tau(  54) = (   0.3604770   0.2760410   0.5554590  )
        55           Si  tau(  55) = (   0.5533630   0.0720102   0.1063940  )
        56           Si  tau(  56) = (   0.2123130   0.7891000   0.3543930  )
        57           Si  tau(  57) = (   0.4435840   0.4455820   0.1206620  )
        58           Si  tau(  58) = (   0.2240520   0.6455020   0.6307460  )
        59           Si  tau(  59) = (   0.6267730   0.2965240   0.1376560  )
        60           Si  tau(  60) = (   0.2997610   0.8443690   0.6338760  )
        61           Si  tau(  61) = (   0.3108610   0.2852870   0.1904160  )
        62           Si  tau(  62) = (   0.4632760   0.3906920   0.3882870  )
        63           Si  tau(  63) = (   0.9075770   0.1967740   0.4576330  )
        64           Si  tau(  64) = (   0.3733940   0.8080600   0.1002390  )

     number of k points=     1  Fermi-Dirac smearing, width (Ry)=  0.0100
                       cart. coord. in units 2pi/alat
        k(    1) = (   0.0000000   0.0000000   0.0000000), wk =   2.0000000

     Dense  grid:    96804 G-vectors     FFT dimensions: (  72,  72,  72)

     Estimated max dynamical RAM per process >     154.41 MB

     Estimated total dynamical RAM >     594.01 MB

     Initial potential from superposition of free atoms

     starting charge     255.9608, renormalised to     256.0000
     Starting wfcs are  256 randomized atomic wfcs

     total cpu time spent up to now is        4.4 secs

     Self-consistent Calculation

     iteration #  1     ecut=    30.00 Ry     beta= 0.50
     Davidson diagonalization with overlap
     ethr =  1.00E-02,  avg # of iterations =  3.0

     Threshold (ethr) on eigenvalues was too large:
     Diagonalizing with lowered threshold

     Davidson diagonalization with overlap
     ethr =  5.39E-04,  avg # of iterations =  4.0

     total cpu time spent up to now is        4.6 secs

     total energy              =    -500.33098159 Ry
     estimated scf accuracy    <       1.78018914 Ry

     iteration #  2     ecut=    30.00 Ry     beta= 0.50
     Davidson diagonalization with overlap
     ethr =  6.95E-04,  avg # of iterations =  4.0

     total cpu time spent up to now is        4.7 secs

     total energy              =    -499.57792576 Ry
     estimated scf accuracy    <       9.91567358 Ry

     iteration #  3     ecut=    30.00 Ry     beta= 0.50
     Davidson diagonalization with overlap
     ethr =  6.95E-04,  avg # of iterations =  5.0

     total cpu time spent up to now is        4.8 secs

     total energy              =    -500.53760941 Ry
     estimated scf accuracy    <       3.02816669 Ry

     iteration #  4     ecut=    30.00 Ry     beta= 0.50
     Davidson diagonalization with overlap
     ethr =  6.95E-04,  avg # of iterations =  2.0

     total cpu time spent up to now is        4.9 secs

     total energy              =    -500.75036166 Ry
     estimated scf accuracy    <       0.53895996 Ry

     iteration #  5     ecut=    30.00 Ry     beta= 0.50
     Davidson diagonalization with overlap
     ethr =  2.11E-04,  avg # of iterations =  2.0

     total cpu time spent up to now is        5.0 secs

     total energy              =    -500.78142323 Ry
     estimated scf accuracy    <       0.42610506 Ry

     iteration #  6     ecut=    30.00 Ry     beta= 0.50
     Davidson diagonalization with overlap
     ethr =  1.66E-04,  avg # of iterations =  2.0

     total cpu time spent up to now is        5.1 secs

     total energy              =    -500.81737109 Ry
     estimated scf accuracy    <       0.20098459 Ry

     iteration #  7     ecut=    30.00 Ry     beta= 0.50
     Davidson diagonalization with overlap
     ethr =  7.85E-05,  avg # of iterations =  1.0

     total cpu time spent up to now is        5.2 secs

     total energy              =    -500.83282086 Ry
     estimated scf accuracy    <       0.02238173 Ry

     iteration #  8     ecut=    30.00 Ry     beta= 0.50
     Davidson diagonalization with overlap
     ethr =  8.74E-06,  avg # of iterations = 11.0

     total cpu time spent up to now is        5.3 secs

     total energy              =    -500.83522075 Ry
     estimated scf accuracy    <       0.03941873 Ry

     iteration #  9     ecut=    30.00 Ry     beta= 0.50
     Davidson diagonalization with overlap
     ethr =  8.74E-06,  avg # of iterations =  2.0

     total cpu time spent up to now is        5.4 secs

     total energy              =    -500.83819515 Ry
     estimated scf accuracy    <       0.00378015 Ry

     iteration # 10     ecut=    30.00 Ry     beta= 0.50
     Davidson diagonalization with overlap
     ethr =  1.48E-06,  avg # of iterations =  4.0

     total cpu time spent up to now is        5.5 secs

     total energy              =    -500.83853121 Ry
     estimated scf accuracy    <       0.00288747 Ry

     iteration # 11     ecut=    30.00 Ry     beta= 0.50
     Davidson diagonalization with overlap
     ethr =  1.13E-06,  avg # of iterations =  2.0

     total cpu time spent up to now is        5.6 secs

     total energy              =    -500.83871912 Ry
     estimated scf accuracy    <       0.00143249 Ry

     iteration # 12     ecut=    30.00 Ry     beta= 0.50
     Davidson diagonalization with overlap
     ethr =  5.60E-07,  avg # of iterations =  2.0

     total cpu time spent up to now is        5.7 secs

     total energy              =    -500.83881492 Ry
     estimated scf accuracy    <       0.00049231 Ry

     iteration # 13     ecut=    30.00 Ry     beta= 0.50
     Davidson diagonalization with overlap
     ethr =  1.92E-07,  avg # of iterations =  2.0

     total cpu time spent up to now is        5.7 secs

     total energy              =    -500.83886130 Ry
     estimated scf accuracy    <       0.00038259 Ry

     iteration # 14     ecut=    30.00 Ry     beta= 0.50
     Davidson diagonalization with overlap
     ethr =  1.49E-07,  avg # of iterations =  1.0

     total cpu time spent up to now is        5.8 secs

     total energy              =    -500.83888437 Ry
     estimated scf accuracy    <       0.00008865 Ry

     iteration # 15     ecut=    30.00 Ry     beta= 0.50
     Davidson diagonalization with overlap
     ethr =  3.46E-08,  avg # of iterations =  2.0

     total cpu time spent up to now is        5.9 secs

     total energy              =    -500.83889057 Ry
     estimated scf accuracy    <       0.00003574 Ry

     iteration # 16     ecut=    30.00 Ry     beta= 0.50
     Davidson diagonalization with overlap
     ethr =  1.40E-08,  avg # of iterations =  2.0

     total cpu time spent up to now is        6.0 secs

     total energy              =    -500.83889427 Ry
     estimated scf accuracy    <       0.00002414 Ry

     iteration # 17     ecut=    30.00 Ry     beta= 0.50
     Davidson diagonalization with overlap
     ethr =  9.43E-09,  avg # of iterations =  2.0

     total cpu time spent up to now is        6.1 secs

     total energy              =    -500.83889566 Ry
     estimated scf accuracy    <       0.00000838 Ry

     iteration # 18     ecut=    30.00 Ry     beta= 0.50
     Davidson diagonalization with overlap
     ethr =  3.27E-09,  avg # of iterations =  2.0

     total cpu time spent up to now is        6.1 secs

     total energy              =    -500.83889650 Ry
     estimated scf accuracy    <       0.00000129 Ry

     iteration # 19     ecut=    30.00 Ry     beta= 0.50
     Davidson diagonalization with overlap
     ethr =  5.04E-10,  avg # of iterations =  3.0

     total cpu time spent up to now is        6.2 secs

     total energy              =    -500.83889660 Ry
     estimated scf accuracy    <       0.00000114 Ry

     iteration # 20     ecut=    30.00 Ry     beta= 0.50
     Davidson diagonalization with overlap
     ethr =  4.43E-10,  avg # of iterations =  2.0

     total cpu time spent up to now is        6.3 secs

     total energy              =    -500.83889662 Ry
     estimated scf accuracy    <       0.00000111 Ry

     iteration # 21     ecut=    30.00 Ry     beta= 0.50
     Davidson diagonalization with overlap
     ethr =  4.32E-10,  avg # of iterations =  2.0

     total cpu time spent up to now is        6.4 secs

     End of self-consistent calculation

          k = 0.0000 0.0000 0.0000 ( 12104 PWs)   bands (ev):

    -6.2263  -5.5704  -5.4738  -5.2718  -5.0899  -5.0059  -4.6467  -4.6312
    -4.4916  -4.2408  -4.2173  -4.0513  -3.8943  -3.7059  -3.5992  -3.5506
    -3.5291  -3.4620  -3.1501  -3.1172  -3.0183  -2.9241  -2.4921  -2.3984
    -2.2954  -2.0113  -1.9263  -1.7626  -1.7516  -1.6476  -1.4522  -1.3819
    -1.2676  -1.1374  -1.0004  -0.9984  -0.8629  -0.8041  -0.6039  -0.4441
    -0.4202  -0.3295  -0.3076  -0.1802  -0.0779   0.0546   0.0759   0.2371
     0.3319   0.3954   0.4829   0.5682   0.5941   0.7167   0.8344   0.9540
     1.0562   1.1431   1.2499   1.4758   1.5300   1.5795   1.6993   1.8236
     1.9006   1.9993   2.0463   2.0727   2.2079   2.2811   2.4392   2.4580
     2.5055   2.6383   2.7561   2.8451   2.9783   2.9893   3.0707   3.1811
     3.2392   3.3196   3.3959   3.4692   3.5789   3.6565   3.7438   3.8317
     3.8969   3.9305   4.0054   4.1084   4.1258   4.2189   4.2729   4.3498
     4.3944   4.4480   4.5202   4.6038   4.6955   4.7418   4.8461   4.8826
     4.9486   5.0160   5.1130   5.1450   5.1928   5.2578   5.3582   5.3834
     5.4357   5.4972   5.5664   5.5965   5.6572   5.7389   5.8025   5.8473
     5.8672   5.9031   5.9342   6.0220   6.0697   6.1028   6.2114   6.2258
     6.3413   6.3806   6.4336   6.5288   6.5441   6.5582   6.6648   6.7526
     6.8515   6.8675   6.9146   7.0131   7.0665   7.1135   7.1579   7.2510
     7.3308   7.3921   7.4526   7.5289   7.5500   7.6156   7.6593   7.7398
     7.7605   7.8541

     the Fermi energy is     6.2873 ev

!    total energy              =    -500.83889635 Ry
     estimated scf accuracy    <       0.00000051 Ry
     smearing contrib. (-TS)   =      -0.15187658 Ry
     internal energy E=F+TS    =    -500.68701977 Ry

     The total energy is F=E-TS. E is the sum of the following terms:
     one-electron contribution =     122.46077154 Ry
     hartree contribution      =      49.20482841 Ry
     xc contribution           =    -150.42715826 Ry
     ewald contribution        =    -521.92546146 Ry

     convergence has been achieved in  21 iterations

     Forces acting on atoms (cartesian axes, Ry/au):

     atom    1 type  1   force =     0.03349812   -0.05802475   -0.01280941
     atom    2 type  1   force =    -0.03224273   -0.00869046   -0.03880619
     atom    3 type  1   force =     0.00272267    0.06955437    0.02400618
     atom    4 type  1   force =     0.04990881    0.02860922    0.02541764
     atom    5 type  1   force =     0.03918744   -0.02325608    0.03185610
     atom    6 type  1   force =     0.00777398   -0.00846795    0.05372204
     atom    7 type  1   force =    -0.07943772    0.05365576    0.02663647
     atom    8 type  1   force =    -0.03687586    0.03342046    0.05193605
     atom    9 type  1   force =    -0.05997720   -0.03268136   -0.01904364
     atom   10 type  1   force =     0.02639823    0.00355122   -0.03262401
     atom   11 type  1   force =     0.08949761   -0.03615538   -0.07724235
     atom   12 type  1   force =    -0.05609338    0.02189380    0.05007826
     atom   13 type  1   force =     0.03991418    0.01247508    0.03325851
     atom   14 type  1   force =     0.02137717    0.02603965    0.00493778
     atom   15 type  1   force =     0.00072143   -0.03505172    0.01062538
     atom   16 type  1   force =     0.01474343    0.01100479    0.01351897
     atom   17 type  1   force =    -0.00473862   -0.01888275   -0.01006183
     atom   18 type  1   force =    -0.03086721   -0.00743038    0.02250883
     atom   19 type  1   force =    -0.03579184    0.01719020   -0.02266501
     atom   20 type  1   force =     0.01593993    0.00200028   -0.02868979
     atom   21 type  1   force =    -0.00125535    0.03622843    0.02634715
     atom   22 type  1   force =    -0.01408758   -0.00447964   -0.01097957
     atom   23 type  1   force =    -0.00340478    0.00181078    0.00437819
     atom   24 type  1   force =    -0.00877007   -0.02955917   -0.01857147
     atom   25 type  1   force =     0.01881486    0.00752236   -0.00854178
     atom   26 type  1   force =    -0.05153970    0.01230031    0.05199642
     atom   27 type  1   force =     0.03450263    0.00434762    0.00202805
     atom   28 type  1   force =     0.00990620    0.00039200    0.00710851
     atom   29 type  1   force =     0.00212873    0.00108162    0.01765242
     atom   30 type  1   force =    -0.01397772    0.06800676    0.02341183
     atom   31 type  1   force =    -0.01701211    0.00499509    0.00086476
     atom   32 type  1   force =    -0.00418187   -0.03361674    0.00282125
     atom   33 type  1   force =    -0.00904866    0.01913499    0.01601130
     atom   34 type  1   force =     0.09959835    0.02095190   -0.04692506
     atom   35 type  1   force =     0.03218234    0.02000056    0.04002077
     atom   36 type  1   force =     0.00397007   -0.01356235    0.02100398
     atom   37 type  1   force =    -0.02611541   -0.03992815   -0.03678469
     atom   38 type  1   force =     0.00394698   -0.05372306   -0.01146780
     atom   39 type  1   force =    -0.01488940   -0.02914118   -0.04644406
     atom   40 type  1   force =     0.00587046    0.06083590    0.01143163
     atom   41 type  1   force =     0.04221026   -0.01545381   -0.04279351
     atom   42 type  1   force =     0.02562877    0.02726534    0.02734085
     atom   43 type  1   force =     0.00396767    0.00151014   -0.00843288
     atom   44 type  1   force =     0.01349754    0.02504851    0.00957959
     atom   45 type  1   force =    -0.00020316   -0.00975419    0.00687526
     atom   46 type  1   force =    -0.01517714    0.01205678   -0.01426645
     atom   47 type  1   force =     0.04070268   -0.04446890   -0.04989937
     atom   48 type  1   force =    -0.02434667    0.02558116    0.00384387
     atom   49 type  1   force =     0.01693698   -0.01733799   -0.02794896
     atom   50 type  1   force =     0.04391896   -0.00778559    0.03129452
     atom   51 type  1   force =    -0.03518106   -0.01288511   -0.01907611
     atom   52 type  1   force =    -0.03218338   -0.02205494   -0.00721029
     atom   53 type  1   force =    -0.00359910    0.02656995   -0.03444293
     atom   54 type  1   force =    -0.00110512   -0.02294257    0.00206654
     atom   55 type  1   force =     0.00653751    0.00410404    0.00545534
     atom   56 type  1   force =    -0.00585791    0.04319585    0.04621144
     atom   57 type  1   force =     0.01706683   -0.02186836   -0.03282007
     atom   58 type  1   force =     0.00007881   -0.07748707   -0.04849461
     atom   59 type  1   force =    -0.09232209   -0.02680829    0.00791951
     atom   60 type  1   force =    -0.02623067    0.07468511   -0.02575015
     atom   61 type  1   force =    -0.00875650   -0.04540926    0.00520750
     atom   62 type  1   force =     0.02110874   -0.02044561    0.00891765
     atom   63 type  1   force =    -0.03579146   -0.00160681    0.00615534
     atom   64 type  1   force =    -0.00319693    0.00193959   -0.00165387

     Total force =     0.431520     Total SCF correction =     0.001380


     Computing stress (Cartesian axis) and pressure

          total   stress  (Ry/bohr**3)                   (kbar)     P=      -14.08
  -0.00016483   0.00003935  -0.00003894          -24.25        5.79       -5.73
   0.00003935  -0.00006945   0.00001582            5.79      -10.22        2.33
  -0.00003894   0.00001582  -0.00005290           -5.73        2.33       -7.78

 
     init_run     :      0.94s CPU      4.36s WALL (       1 calls)
     electrons    :      1.83s CPU      1.97s WALL (       1 calls)
     forces       :      0.03s CPU      0.03s WALL (       1 calls)
     stress       :      0.14s CPU      0.15s WALL (       1 calls)

     Called by init_run:
     wfcinit      :      0.43s CPU      3.69s WALL (       1 calls)
                                        3.69s GPU  (       1 calls)
     potinit      :      0.04s CPU      0.13s WALL (       1 calls)
     hinit0       :      0.45s CPU      0.48s WALL (       1 calls)

     Called by electrons:
     c_bands      :      1.14s CPU      1.21s WALL (      22 calls)
     sum_band     :      0.36s CPU      0.40s WALL (      22 calls)
     v_of_rho     :      0.14s CPU      0.24s WALL (      22 calls)
     mix_rho      :      0.16s CPU      0.18s WALL (      22 calls)

     Called by c_bands:
     init_us_2    :      0.05s CPU      0.06s WALL (      45 calls)
     init_us_2:gp :      0.05s CPU      0.06s WALL (      45 calls)
     regterg      :      0.97s CPU      1.03s WALL (      22 calls)

     Called by *egterg:
     rdiaghg      :      0.39s CPU      1.04s WALL (      83 calls)
                                        1.02s GPU  (      83 calls)
     h_psi        :      0.84s CPU      3.49s WALL (      85 calls)
                                        3.49s GPU  (      85 calls)
     g_psi        :      0.00s CPU      0.00s WALL (      62 calls)
                                        0.00s GPU  (      62 calls)

     Called by h_psi:
     h_psi:calbec :      0.40s CPU      2.98s WALL (      85 calls)
                                        2.98s GPU  (      85 calls)
     vloc_psi     :      0.39s CPU      0.45s WALL (      85 calls)
                                        0.45s GPU  (      85 calls)
     add_vuspsi   :      0.03s CPU      0.05s WALL (      85 calls)
                                        0.05s GPU  (      85 calls)

     General routines
     calbec       :      0.40s CPU      2.98s WALL (      90 calls)
     fft          :      0.56s CPU      0.68s WALL (     183 calls)
                                        0.12s GPU  (     116 calls)
     ffts         :      0.03s CPU      0.04s WALL (      22 calls)
     fftw         :      0.49s CPU      0.63s WALL (    2282 calls)
                                        0.55s GPU  (    2282 calls)
 
     Parallel routines
 
     PWSCF        :      2.98s CPU      6.59s WALL

 
   This run was terminated on:  15: 9:41  11May2023            

=------------------------------------------------------------------------------=
   JOB DONE.
=------------------------------------------------------------------------------=
