An instance of this daemon is already running

     Program PWSCF v.7.1 starts on 11May2023 at 15:15:41 

     This program is part of the open-source Quantum ESPRESSO suite
     for quantum simulation of materials; please cite
         "P. Giannozzi et al., J. Phys.:Condens. Matter 21 395502 (2009);
         "P. Giannozzi et al., J. Phys.:Condens. Matter 29 465901 (2017);
         "P. Giannozzi et al., J. Chem. Phys. 152 154105 (2020);
          URL http://www.quantum-espresso.org", 
     in publications or presentations arising from this work. More details at
     http://www.quantum-espresso.org/quote

     Parallel version (MPI & OpenMP), running on       4 processor cores
     Number of MPI processes:                 4
     Threads/MPI process:                     1

     MPI processes distributed on     1 nodes
     1009965 MiB available memory on the printing compute node when the environment starts
 
     Reading input from pw-si-70.in
Warning: card &CELL ignored
Warning: card / ignored

     Current dimensions of program PWSCF are:
     Max number of different atomic species (ntypx) = 10
     Max number of k-points (npk) =  40000
     Max angular momentum in pseudopotentials (lmaxx) =  4

     IMPORTANT: XC functional enforced from input :
     Exchange-correlation= PBE
                           (   1   4   3   4   0   0   0)
     Any further DFT definition will be discarded
     Please, verify this is what you really want


     gamma-point specific algorithms are used
 
     K-points division:     npool     =       2
     R & G space division:  proc/nbgrp/npool/nimage =       2
     Subspace diagonalization in iterative solution of the eigenvalue problem:
     a serial algorithm will be used

     Message from routine divide_et_impera:
     suboptimal parallelization: some nodes have no k-points
 
     Parallelization info
     --------------------
     sticks:   dense  smooth     PW     G-vecs:    dense   smooth      PW
     Min        1954    1954    520                92174    92174   12632
     Max        1955    1955    521                92181    92181   12637
     Sum        3909    3909   1041               184355   184355   25269
 
     Using Slab Decomposition
 


     bravais-lattice index     =            0
     lattice parameter (alat)  =      20.2707  a.u.
     unit-cell volume          =    8329.2964 (a.u.)^3
     number of atoms/cell      =           64
     number of atomic types    =            1
     number of electrons       =       256.00
     number of Kohn-Sham states=          154
     kinetic-energy cutoff     =      30.0000  Ry
     charge density cutoff     =     120.0000  Ry
     scf convergence threshold =      1.0E-06
     mixing beta               =       0.5000
     number of iterations used =            8  plain     mixing
     Exchange-correlation= PBE
                           (   1   4   3   4   0   0   0)

     GPU acceleration is ACTIVE.
     GPU-aware MPI enabled

     Message from routine print_cuda_info:
     High GPU oversubscription detected. Are you sure this is what you want?

     celldm(1)=  20.270732  celldm(2)=   0.000000  celldm(3)=   0.000000
     celldm(4)=   0.000000  celldm(5)=   0.000000  celldm(6)=   0.000000

     crystal axes: (cart. coord. in units of alat)
               a(1) = (   1.000000   0.000000   0.000000 )  
               a(2) = (   0.000000   1.000000   0.000000 )  
               a(3) = (   0.000000   0.000000   1.000000 )  

     reciprocal axes: (cart. coord. in units 2 pi/alat)
               b(1) = (  1.000000  0.000000  0.000000 )  
               b(2) = (  0.000000  1.000000  0.000000 )  
               b(3) = (  0.000000  0.000000  1.000000 )  


     PseudoPot. # 1 for Si read from file:
     /home/ppiaggi/pseudos/Si_ONCV_PBE_sr.upf
     MD5 check sum: 8553c464762ac42b85b1eed164b4d029
     Pseudo is Norm-conserving, Zval =  4.0
     Generated using ONCVPSP code by D. R. Hamann
     Using radial grid of 1510 points,  4 beta functions with: 
                l(1) =   0
                l(2) =   0
                l(3) =   1
                l(4) =   1

     atomic species   valence    mass     pseudopotential
        Si             4.00    28.08500     Si( 1.00)

     No symmetry found



   Cartesian axes

     site n.     atom                  positions (alat units)
         1           Si  tau(   1) = (   0.7057310   0.9342260   0.4118140  )
         2           Si  tau(   2) = (   0.8191310   0.6107040   0.0196030  )
         3           Si  tau(   3) = (   0.7580920   0.7694840   0.8314980  )
         4           Si  tau(   4) = (   0.0266032   0.0611997   0.6894560  )
         5           Si  tau(   5) = (   0.8298980   0.1003520   0.8747080  )
         6           Si  tau(   6) = (   0.8556720   0.5327330   0.4117290  )
         7           Si  tau(   7) = (   0.7725260   0.5136480   0.6348870  )
         8           Si  tau(   8) = (   0.1281200   0.2102180   0.9979780  )
         9           Si  tau(   9) = (   0.8022800   0.7157510   0.5223700  )
        10           Si  tau(  10) = (   0.0196410   0.7761380   0.9916010  )
        11           Si  tau(  11) = (   0.4817570   0.6497030   0.8911380  )
        12           Si  tau(  12) = (   0.5827000   0.8376180   0.9761300  )
        13           Si  tau(  13) = (   0.4153800   0.3932890   0.3404590  )
        14           Si  tau(  14) = (   0.2752620   0.9339170   0.3360250  )
        15           Si  tau(  15) = (   0.5174850   0.2844340   0.9574360  )
        16           Si  tau(  16) = (   0.4677640   0.8691150   0.1941070  )
        17           Si  tau(  17) = (   0.3482810   0.5109690   0.6662640  )
        18           Si  tau(  18) = (   0.9514690   0.1133550   0.0477890  )
        19           Si  tau(  19) = (   0.8443950   0.2333000   0.3497310  )
        20           Si  tau(  20) = (   0.2461230   0.7402810   0.4466380  )
        21           Si  tau(  21) = (   0.1411280   0.3583940   0.4452670  )
        22           Si  tau(  22) = (   0.9882730   0.3817660   0.6035470  )
        23           Si  tau(  23) = (   0.8939650   0.6657950   0.2131280  )
        24           Si  tau(  24) = (   0.1325140   0.9289720   0.8604980  )
        25           Si  tau(  25) = (   0.9262920   0.9129320   0.8264610  )
        26           Si  tau(  26) = (   0.5968300   0.0750978   0.9169960  )
        27           Si  tau(  27) = (   0.4426650   0.0509217   0.7671270  )
        28           Si  tau(  28) = (   0.6030660   0.6498140   0.0905566  )
        29           Si  tau(  29) = (   0.9132600   0.3973180   0.0127247  )
        30           Si  tau(  30) = (   0.4636360   0.7566870   0.3897410  )
        31           Si  tau(  31) = (   0.2788100   0.5254710   0.4613470  )
        32           Si  tau(  32) = (   0.7660210   0.1394370   0.1359840  )
        33           Si  tau(  33) = (   0.6940570   0.3518850   0.1070590  )
        34           Si  tau(  34) = (   0.5159530   0.3384450   0.5216500  )
        35           Si  tau(  35) = (   0.9778400   0.7990870   0.6401850  )
        36           Si  tau(  36) = (   0.8110600   0.0802218   0.5654020  )
        37           Si  tau(  37) = (   0.5517140   0.5574000   0.6046650  )
        38           Si  tau(  38) = (   0.5223800   0.7855020   0.6059850  )
        39           Si  tau(  39) = (   0.1745460   0.3088580   0.2188850  )
        40           Si  tau(  40) = (   0.0500634   0.2574300   0.8060870  )
        41           Si  tau(  41) = (   0.2012100   0.6807090   0.6646010  )
        42           Si  tau(  42) = (   0.9706920   0.3922490   0.2409920  )
        43           Si  tau(  43) = (   0.3139670   0.3459610   0.8179530  )
        44           Si  tau(  44) = (   0.3335010   0.8365140   0.7418480  )
        45           Si  tau(  45) = (   0.9986910   0.8719880   0.1804980  )
        46           Si  tau(  46) = (   0.7040620   0.5441350   0.8336380  )
        47           Si  tau(  47) = (   0.9344000   0.9351600   0.4478600  )
        48           Si  tau(  48) = (   0.5350940   0.0115967   0.5662560  )
        49           Si  tau(  49) = (   0.3873240   0.1952560   0.1837760  )
        50           Si  tau(  50) = (   0.0909420   0.5824090   0.9307300  )
        51           Si  tau(  51) = (   0.4025830   0.1170150   0.4415830  )
        52           Si  tau(  52) = (   0.1219380   0.0578661   0.2010300  )
        53           Si  tau(  53) = (   0.3383230   0.5092410   0.9525010  )
        54           Si  tau(  54) = (   0.2622430   0.9327540   0.0552737  )
        55           Si  tau(  55) = (   0.6471150   0.4397140   0.3160640  )
        56           Si  tau(  56) = (   0.3081390   0.2314210   0.6046350  )
        57           Si  tau(  57) = (   0.1298160   0.0455785   0.4503190  )
        58           Si  tau(  58) = (   0.0081895   0.7112620   0.4173630  )
        59           Si  tau(  59) = (   0.0224525   0.5628660   0.7271910  )
        60           Si  tau(  60) = (   0.5812330   0.2032530   0.3155990  )
        61           Si  tau(  61) = (   0.3345990   0.1144950   0.9665490  )
        62           Si  tau(  62) = (   0.7524120   0.9156130   0.1707400  )
        63           Si  tau(  63) = (   0.4796930   0.5923420   0.2528300  )
        64           Si  tau(  64) = (   0.2812250   0.5176490   0.1534110  )

     number of k points=     1  Fermi-Dirac smearing, width (Ry)=  0.0100
                       cart. coord. in units 2pi/alat
        k(    1) = (   0.0000000   0.0000000   0.0000000), wk =   2.0000000

     Dense  grid:    92178 G-vectors     FFT dimensions: (  72,  72,  72)

     Estimated max dynamical RAM per process >     148.03 MB

     Estimated total dynamical RAM >     569.62 MB

     Initial potential from superposition of free atoms

     starting charge     255.9608, renormalised to     256.0000
     Starting wfcs are  256 randomized atomic wfcs

     total cpu time spent up to now is        4.0 secs

     Self-consistent Calculation

     iteration #  1     ecut=    30.00 Ry     beta= 0.50
     Davidson diagonalization with overlap
     ethr =  1.00E-02,  avg # of iterations =  3.0

     Threshold (ethr) on eigenvalues was too large:
     Diagonalizing with lowered threshold

     Davidson diagonalization with overlap
     ethr =  5.40E-04,  avg # of iterations =  4.0

     total cpu time spent up to now is        4.2 secs

     total energy              =    -500.77888987 Ry
     estimated scf accuracy    <       1.75347957 Ry

     iteration #  2     ecut=    30.00 Ry     beta= 0.50
     Davidson diagonalization with overlap
     ethr =  6.85E-04,  avg # of iterations =  4.0

     total cpu time spent up to now is        4.3 secs

     total energy              =    -500.43530722 Ry
     estimated scf accuracy    <       5.12385992 Ry

     iteration #  3     ecut=    30.00 Ry     beta= 0.50
     Davidson diagonalization with overlap
     ethr =  6.85E-04,  avg # of iterations =  3.0

     total cpu time spent up to now is        4.4 secs

     total energy              =    -501.00574631 Ry
     estimated scf accuracy    <       1.88190559 Ry

     iteration #  4     ecut=    30.00 Ry     beta= 0.50
     Davidson diagonalization with overlap
     ethr =  6.85E-04,  avg # of iterations =  2.0

     total cpu time spent up to now is        4.5 secs

     total energy              =    -501.16693905 Ry
     estimated scf accuracy    <       0.76274747 Ry

     iteration #  5     ecut=    30.00 Ry     beta= 0.50
     Davidson diagonalization with overlap
     ethr =  2.98E-04,  avg # of iterations =  2.0

     total cpu time spent up to now is        4.6 secs

     total energy              =    -501.21622759 Ry
     estimated scf accuracy    <       0.21860661 Ry

     iteration #  6     ecut=    30.00 Ry     beta= 0.50
     Davidson diagonalization with overlap
     ethr =  8.54E-05,  avg # of iterations =  2.0

     total cpu time spent up to now is        4.7 secs

     total energy              =    -501.23957687 Ry
     estimated scf accuracy    <       0.21805644 Ry

     iteration #  7     ecut=    30.00 Ry     beta= 0.50
     Davidson diagonalization with overlap
     ethr =  8.52E-05,  avg # of iterations =  1.0

     total cpu time spent up to now is        4.8 secs

     total energy              =    -501.25523545 Ry
     estimated scf accuracy    <       0.01526496 Ry

     iteration #  8     ecut=    30.00 Ry     beta= 0.50
     Davidson diagonalization with overlap
     c_bands:  1 eigenvalues not converged
     ethr =  5.96E-06,  avg # of iterations = 20.0

     total cpu time spent up to now is        4.9 secs

     total energy              =    -501.25649181 Ry
     estimated scf accuracy    <       0.03515920 Ry

     iteration #  9     ecut=    30.00 Ry     beta= 0.50
     Davidson diagonalization with overlap
     ethr =  5.96E-06,  avg # of iterations = 20.0

     total cpu time spent up to now is        5.1 secs

     total energy              =    -501.25923635 Ry
     estimated scf accuracy    <       0.00379030 Ry

     iteration # 10     ecut=    30.00 Ry     beta= 0.50
     Davidson diagonalization with overlap
     ethr =  1.48E-06,  avg # of iterations =  3.0

     total cpu time spent up to now is        5.2 secs

     total energy              =    -501.25952908 Ry
     estimated scf accuracy    <       0.00148507 Ry

     iteration # 11     ecut=    30.00 Ry     beta= 0.50
     Davidson diagonalization with overlap
     ethr =  5.80E-07,  avg # of iterations =  2.0

     total cpu time spent up to now is        5.3 secs

     total energy              =    -501.25960437 Ry
     estimated scf accuracy    <       0.00113694 Ry

     iteration # 12     ecut=    30.00 Ry     beta= 0.50
     Davidson diagonalization with overlap
     ethr =  4.44E-07,  avg # of iterations =  2.0

     total cpu time spent up to now is        5.4 secs

     total energy              =    -501.25971711 Ry
     estimated scf accuracy    <       0.00032388 Ry

     iteration # 13     ecut=    30.00 Ry     beta= 0.50
     Davidson diagonalization with overlap
     ethr =  1.27E-07,  avg # of iterations =  2.0

     total cpu time spent up to now is        5.5 secs

     total energy              =    -501.25974362 Ry
     estimated scf accuracy    <       0.00004294 Ry

     iteration # 14     ecut=    30.00 Ry     beta= 0.50
     Davidson diagonalization with overlap
     ethr =  1.68E-08,  avg # of iterations =  4.0

     total cpu time spent up to now is        5.6 secs

     total energy              =    -501.25974670 Ry
     estimated scf accuracy    <       0.00006783 Ry

     iteration # 15     ecut=    30.00 Ry     beta= 0.50
     Davidson diagonalization with overlap
     ethr =  1.68E-08,  avg # of iterations =  2.0

     total cpu time spent up to now is        5.6 secs

     total energy              =    -501.25975079 Ry
     estimated scf accuracy    <       0.00001287 Ry

     iteration # 16     ecut=    30.00 Ry     beta= 0.50
     Davidson diagonalization with overlap
     ethr =  5.03E-09,  avg # of iterations =  3.0

     total cpu time spent up to now is        5.7 secs

     total energy              =    -501.25975273 Ry
     estimated scf accuracy    <       0.00001454 Ry

     iteration # 17     ecut=    30.00 Ry     beta= 0.50
     Davidson diagonalization with overlap
     ethr =  5.03E-09,  avg # of iterations =  1.0

     total cpu time spent up to now is        5.8 secs

     total energy              =    -501.25975346 Ry
     estimated scf accuracy    <       0.00000184 Ry

     iteration # 18     ecut=    30.00 Ry     beta= 0.50
     Davidson diagonalization with overlap
     ethr =  7.18E-10,  avg # of iterations =  3.0

     total cpu time spent up to now is        5.9 secs

     total energy              =    -501.25975366 Ry
     estimated scf accuracy    <       0.00000132 Ry

     iteration # 19     ecut=    30.00 Ry     beta= 0.50
     Davidson diagonalization with overlap
     ethr =  5.17E-10,  avg # of iterations =  2.0

     total cpu time spent up to now is        6.0 secs

     End of self-consistent calculation

          k = 0.0000 0.0000 0.0000 ( 11516 PWs)   bands (ev):

    -5.9417  -5.3799  -5.0936  -4.8183  -4.6699  -4.4873  -4.4114  -4.2282
    -4.0245  -3.9031  -3.7796  -3.6958  -3.5141  -3.3381  -3.2985  -3.1251
    -3.0214  -2.9936  -2.9506  -2.8938  -2.5288  -2.2039  -2.0243  -1.8637
    -1.8118  -1.7231  -1.5754  -1.3781  -1.2790  -1.0994  -1.0343  -0.8594
    -0.7424  -0.6367  -0.5655  -0.5301  -0.4370  -0.3448  -0.2957  -0.2674
    -0.2291   0.0000   0.0827   0.2161   0.3120   0.4674   0.5515   0.6839
     0.7279   0.7916   0.8201   0.9092   1.0570   1.2100   1.2757   1.4310
     1.4981   1.5800   1.7611   1.7882   1.8458   1.8803   2.0433   2.1057
     2.2188   2.3136   2.4680   2.6256   2.6570   2.7171   2.7395   2.7903
     2.8324   2.9779   3.0496   3.1666   3.2305   3.2650   3.3798   3.5752
     3.7397   3.7718   3.9083   4.0305   4.1343   4.2329   4.2717   4.2940
     4.3619   4.4373   4.5225   4.5807   4.6074   4.6758   4.7144   4.7641
     4.8065   4.8628   4.9313   5.0504   5.1011   5.1465   5.2270   5.2815
     5.3660   5.4284   5.4577   5.4769   5.5678   5.6885   5.7225   5.7838
     5.8447   5.8984   6.0084   6.0767   6.1059   6.1741   6.2370   6.3274
     6.3707   6.4026   6.4593   6.5437   6.7265   6.7621   6.8006   6.8454
     6.8565   6.9136   6.9943   7.0322   7.1238   7.1498   7.2291   7.3095
     7.3846   7.4066   7.4722   7.5305   7.5847   7.6964   7.7521   7.7935
     7.8224   7.8771   7.9591   8.0781   8.0899   8.1748   8.2149   8.3918
     8.4092   8.4553

     the Fermi energy is     6.8551 ev

!    total energy              =    -501.25975331 Ry
     estimated scf accuracy    <       0.00000060 Ry
     smearing contrib. (-TS)   =      -0.15142560 Ry
     internal energy E=F+TS    =    -501.10832771 Ry

     The total energy is F=E-TS. E is the sum of the following terms:
     one-electron contribution =     148.32098268 Ry
     hartree contribution      =      41.01293700 Ry
     xc contribution           =    -151.63912329 Ry
     ewald contribution        =    -538.80312409 Ry

     convergence has been achieved in  19 iterations

     Forces acting on atoms (cartesian axes, Ry/au):

     atom    1 type  1   force =     0.00071341   -0.02559345   -0.01789212
     atom    2 type  1   force =    -0.00848703   -0.00517294   -0.01952108
     atom    3 type  1   force =    -0.02851246   -0.02051918    0.00909068
     atom    4 type  1   force =     0.02393684    0.02207893   -0.01504625
     atom    5 type  1   force =    -0.04222771    0.01013192   -0.03086186
     atom    6 type  1   force =     0.00466426   -0.02415300   -0.05461379
     atom    7 type  1   force =     0.00672930   -0.00658943   -0.02325270
     atom    8 type  1   force =     0.06614048    0.02180776    0.01194254
     atom    9 type  1   force =    -0.03141873    0.05735640    0.03143474
     atom   10 type  1   force =    -0.00947735    0.00905293   -0.01670761
     atom   11 type  1   force =     0.05456725    0.03600985   -0.04094437
     atom   12 type  1   force =     0.02541824    0.04150477    0.00164699
     atom   13 type  1   force =    -0.01365450   -0.01440644   -0.02750675
     atom   14 type  1   force =     0.03739556    0.01101253   -0.02281887
     atom   15 type  1   force =    -0.00265183    0.00022053    0.02597229
     atom   16 type  1   force =    -0.01488415    0.01926775   -0.01780348
     atom   17 type  1   force =     0.01228180   -0.01649884    0.01254012
     atom   18 type  1   force =     0.03455736   -0.03570840    0.01666068
     atom   19 type  1   force =    -0.03605839   -0.01670307   -0.00537390
     atom   20 type  1   force =    -0.03622675   -0.00227082    0.01314420
     atom   21 type  1   force =     0.01606652   -0.02405027    0.00363709
     atom   22 type  1   force =    -0.03219447    0.00104082    0.01942057
     atom   23 type  1   force =     0.02325762   -0.00367238    0.04931659
     atom   24 type  1   force =     0.08675338    0.00622316    0.00579486
     atom   25 type  1   force =    -0.06079514   -0.02195288    0.00743627
     atom   26 type  1   force =     0.04661054   -0.00434554    0.01087861
     atom   27 type  1   force =    -0.03806037   -0.01594410   -0.00505555
     atom   28 type  1   force =     0.02557491   -0.00919523   -0.01372814
     atom   29 type  1   force =    -0.00048688    0.01362153    0.01476361
     atom   30 type  1   force =    -0.00538012    0.00108840    0.00085701
     atom   31 type  1   force =     0.00112040   -0.01314496   -0.00970847
     atom   32 type  1   force =    -0.05257545    0.01797269    0.05108486
     atom   33 type  1   force =    -0.00968645   -0.00001052   -0.01092664
     atom   34 type  1   force =     0.01015231   -0.02104322    0.01243415
     atom   35 type  1   force =    -0.01049240   -0.03016053   -0.02128825
     atom   36 type  1   force =    -0.01389414    0.02873271   -0.01271497
     atom   37 type  1   force =     0.02629130    0.00265828   -0.00633405
     atom   38 type  1   force =     0.01205642    0.00637843    0.00708951
     atom   39 type  1   force =     0.01880825    0.01447965   -0.01488621
     atom   40 type  1   force =    -0.01936918    0.01353948   -0.03833670
     atom   41 type  1   force =    -0.00105041    0.01036913   -0.01221437
     atom   42 type  1   force =    -0.00842725    0.01780725   -0.00600099
     atom   43 type  1   force =    -0.01235828   -0.04396396   -0.01683329
     atom   44 type  1   force =     0.01622320    0.00669542    0.02736086
     atom   45 type  1   force =    -0.03670449    0.00042512    0.02197447
     atom   46 type  1   force =    -0.03139431    0.01808359    0.01689175
     atom   47 type  1   force =     0.01557636   -0.02605734   -0.00734636
     atom   48 type  1   force =     0.06183993   -0.03541418    0.02313674
     atom   49 type  1   force =     0.00158735    0.01289744    0.00895566
     atom   50 type  1   force =     0.01638180   -0.04517558    0.00931311
     atom   51 type  1   force =    -0.01484807    0.00384144   -0.05342095
     atom   52 type  1   force =     0.02210704   -0.00457283    0.00529035
     atom   53 type  1   force =    -0.04599592   -0.02020701    0.01327091
     atom   54 type  1   force =    -0.00748980   -0.00412892    0.03664602
     atom   55 type  1   force =     0.01982436   -0.01448177   -0.00195363
     atom   56 type  1   force =    -0.01992903    0.01893101   -0.00291263
     atom   57 type  1   force =    -0.03350508    0.02708556    0.01101810
     atom   58 type  1   force =     0.01103913    0.00303584   -0.01588231
     atom   59 type  1   force =     0.00408625    0.04535564   -0.01496632
     atom   60 type  1   force =     0.01222615    0.00446957    0.00082511
     atom   61 type  1   force =    -0.00092009    0.04256403   -0.00969429
     atom   62 type  1   force =    -0.00701704   -0.00235375    0.03270687
     atom   63 type  1   force =    -0.01373592   -0.02234807    0.00833943
     atom   64 type  1   force =    -0.01407855   -0.01590095    0.04567217

     Total force =     0.337926     Total SCF correction =     0.001552


     Computing stress (Cartesian axis) and pressure

          total   stress  (Ry/bohr**3)                   (kbar)     P=       -2.15
  -0.00002659   0.00004846  -0.00000933           -3.91        7.13       -1.37
   0.00004846  -0.00007004   0.00001970            7.13      -10.30        2.90
  -0.00000933   0.00001970   0.00005280           -1.37        2.90        7.77

 
     init_run     :      0.91s CPU      3.98s WALL (       1 calls)
     electrons    :      1.78s CPU      1.93s WALL (       1 calls)
     forces       :      0.03s CPU      0.03s WALL (       1 calls)
     stress       :      0.14s CPU      0.14s WALL (       1 calls)

     Called by init_run:
     wfcinit      :      0.40s CPU      3.32s WALL (       1 calls)
                                        3.32s GPU  (       1 calls)
     potinit      :      0.04s CPU      0.12s WALL (       1 calls)
     hinit0       :      0.45s CPU      0.48s WALL (       1 calls)

     Called by electrons:
     c_bands      :      1.17s CPU      1.24s WALL (      20 calls)
     sum_band     :      0.31s CPU      0.35s WALL (      20 calls)
     v_of_rho     :      0.13s CPU      0.21s WALL (      20 calls)
     mix_rho      :      0.14s CPU      0.17s WALL (      20 calls)

     Called by c_bands:
     init_us_2    :      0.05s CPU      0.06s WALL (      41 calls)
     init_us_2:gp :      0.05s CPU      0.05s WALL (      41 calls)
     regterg      :      1.03s CPU      1.09s WALL (      20 calls)

     Called by *egterg:
     rdiaghg      :      0.45s CPU      1.10s WALL (     104 calls)
                                        1.09s GPU  (     104 calls)
     h_psi        :      0.81s CPU      3.12s WALL (     106 calls)
                                        3.11s GPU  (     106 calls)
     g_psi        :      0.00s CPU      0.00s WALL (      85 calls)
                                        0.00s GPU  (      85 calls)

     Called by h_psi:
     h_psi:calbec :      0.38s CPU      2.61s WALL (     106 calls)
                                        2.61s GPU  (     106 calls)
     vloc_psi     :      0.37s CPU      0.44s WALL (     106 calls)
                                        0.43s GPU  (     106 calls)
     add_vuspsi   :      0.04s CPU      0.06s WALL (     106 calls)
                                        0.06s GPU  (     106 calls)

     General routines
     calbec       :      0.38s CPU      2.62s WALL (     111 calls)
     fft          :      0.55s CPU      0.65s WALL (     167 calls)
                                        0.11s GPU  (     106 calls)
     ffts         :      0.03s CPU      0.03s WALL (      20 calls)
     fftw         :      0.46s CPU      0.59s WALL (    2140 calls)
                                        0.52s GPU  (    2140 calls)
 
     Parallel routines
 
     PWSCF        :      2.91s CPU      6.16s WALL

 
   This run was terminated on:  15:15:47  11May2023            

=------------------------------------------------------------------------------=
   JOB DONE.
=------------------------------------------------------------------------------=
