10.647444431688351 0.0 0.0 0.0 10.647444431688351 0.0 0.0 0.0 10.647444431688351
10.644134957427307 0.0 0.0 0.0 10.644134957427307 0.0 0.0 0.0 10.644134957427307
10.645446258549606 0.0 0.0 0.0 10.645446258549606 0.0 0.0 0.0 10.645446258549606
10.687868278634477 0.0 0.0 0.0 10.687868278634477 0.0 0.0 0.0 10.687868278634477
10.591224115895661 0.0 0.0 0.0 10.591224115895661 0.0 0.0 0.0 10.591224115895661
10.643372942247279 0.0 0.0 0.0 10.643372942247279 0.0 0.0 0.0 10.643372942247279
10.625085636280996 0.0 0.0 0.0 10.625085636280996 0.0 0.0 0.0 10.625085636280996
10.717488443694858 0.0 0.0 0.0 10.717488443694858 0.0 0.0 0.0 10.717488443694858
10.62135282025327 0.0 0.0 0.0 10.62135282025327 0.0 0.0 0.0 10.62135282025327
10.668008787182176 0.0 0.0 0.0 10.668008787182176 0.0 0.0 0.0 10.668008787182176
10.649508751978138 0.0 0.0 0.0 10.649508751978138 0.0 0.0 0.0 10.649508751978138
10.62753361004684 0.0 0.0 0.0 10.62753361004684 0.0 0.0 0.0 10.62753361004684
10.66039339797676 0.0 0.0 0.0 10.66039339797676 0.0 0.0 0.0 10.66039339797676
10.633373609718229 0.0 0.0 0.0 10.633373609718229 0.0 0.0 0.0 10.633373609718229
10.614846586476563 0.0 0.0 0.0 10.614846586476563 0.0 0.0 0.0 10.614846586476563
10.719590335566439 0.0 0.0 0.0 10.719590335566439 0.0 0.0 0.0 10.719590335566439
10.704420412534567 0.0 0.0 0.0 10.704420412534567 0.0 0.0 0.0 10.704420412534567
10.69215461402214 0.0 0.0 0.0 10.69215461402214 0.0 0.0 0.0 10.69215461402214
10.61343421250747 0.0 0.0 0.0 10.61343421250747 0.0 0.0 0.0 10.61343421250747
10.728665724689701 0.0 0.0 0.0 10.728665724689701 0.0 0.0 0.0 10.728665724689701
10.635711514624735 0.0 0.0 0.0 10.635711514624735 0.0 0.0 0.0 10.635711514624735
10.684750366522858 0.0 0.0 0.0 10.684750366522858 0.0 0.0 0.0 10.684750366522858
10.612463701507346 0.0 0.0 0.0 10.612463701507346 0.0 0.0 0.0 10.612463701507346
10.557021276210937 0.0 0.0 0.0 10.557021276210937 0.0 0.0 0.0 10.557021276210937
10.682638420284318 0.0 0.0 0.0 10.682638420284318 0.0 0.0 0.0 10.682638420284318
10.702968879452055 0.0 0.0 0.0 10.702968879452055 0.0 0.0 0.0 10.702968879452055
10.720855598271612 0.0 0.0 0.0 10.720855598271612 0.0 0.0 0.0 10.720855598271612
10.617396691443618 0.0 0.0 0.0 10.617396691443618 0.0 0.0 0.0 10.617396691443618
10.729132458987468 0.0 0.0 0.0 10.729132458987468 0.0 0.0 0.0 10.729132458987468
10.598098127832174 0.0 0.0 0.0 10.598098127832174 0.0 0.0 0.0 10.598098127832174
10.626911826827023 0.0 0.0 0.0 10.626911826827023 0.0 0.0 0.0 10.626911826827023
10.675951207902356 0.0 0.0 0.0 10.675951207902356 0.0 0.0 0.0 10.675951207902356
10.677391628263493 0.0 0.0 0.0 10.677391628263493 0.0 0.0 0.0 10.677391628263493
10.608841483516168 0.0 0.0 0.0 10.608841483516168 0.0 0.0 0.0 10.608841483516168
10.664125155650071 0.0 0.0 0.0 10.664125155650071 0.0 0.0 0.0 10.664125155650071
10.690761819609753 0.0 0.0 0.0 10.690761819609753 0.0 0.0 0.0 10.690761819609753
10.702734983125962 0.0 0.0 0.0 10.702734983125962 0.0 0.0 0.0 10.702734983125962
10.632346476756815 0.0 0.0 0.0 10.632346476756815 0.0 0.0 0.0 10.632346476756815
10.732994394254032 0.0 0.0 0.0 10.732994394254032 0.0 0.0 0.0 10.732994394254032
10.615472603114045 0.0 0.0 0.0 10.615472603114045 0.0 0.0 0.0 10.615472603114045
10.64130544689424 0.0 0.0 0.0 10.64130544689424 0.0 0.0 0.0 10.64130544689424
10.631244729809023 0.0 0.0 0.0 10.631244729809023 0.0 0.0 0.0 10.631244729809023
10.597773213026246 0.0 0.0 0.0 10.597773213026246 0.0 0.0 0.0 10.597773213026246
10.69236998914594 0.0 0.0 0.0 10.69236998914594 0.0 0.0 0.0 10.69236998914594
10.683144842872712 0.0 0.0 0.0 10.683144842872712 0.0 0.0 0.0 10.683144842872712
10.636138031454669 0.0 0.0 0.0 10.636138031454669 0.0 0.0 0.0 10.636138031454669
10.684965741646659 0.0 0.0 0.0 10.684965741646659 0.0 0.0 0.0 10.684965741646659
10.532578051779879 0.0 0.0 0.0 10.532578051779879 0.0 0.0 0.0 10.532578051779879
10.615759946338182 0.0 0.0 0.0 10.615759946338182 0.0 0.0 0.0 10.615759946338182
10.61300610814591 0.0 0.0 0.0 10.61300610814591 0.0 0.0 0.0 10.61300610814591
10.613991436107865 0.0 0.0 0.0 10.613991436107865 0.0 0.0 0.0 10.613991436107865
10.657422067951856 0.0 0.0 0.0 10.657422067951856 0.0 0.0 0.0 10.657422067951856
10.652706569848217 0.0 0.0 0.0 10.652706569848217 0.0 0.0 0.0 10.652706569848217
10.663471092620544 0.0 0.0 0.0 10.663471092620544 0.0 0.0 0.0 10.663471092620544
10.583953221052884 0.0 0.0 0.0 10.583953221052884 0.0 0.0 0.0 10.583953221052884
10.662414325735462 0.0 0.0 0.0 10.662414325735462 0.0 0.0 0.0 10.662414325735462
10.58281919429538 0.0 0.0 0.0 10.58281919429538 0.0 0.0 0.0 10.58281919429538
10.700837882834014 0.0 0.0 0.0 10.700837882834014 0.0 0.0 0.0 10.700837882834014
10.686340014856752 0.0 0.0 0.0 10.686340014856752 0.0 0.0 0.0 10.686340014856752
10.596879432721336 0.0 0.0 0.0 10.596879432721336 0.0 0.0 0.0 10.596879432721336
10.651476762016005 0.0 0.0 0.0 10.651476762016005 0.0 0.0 0.0 10.651476762016005
10.733447899121591 0.0 0.0 0.0 10.733447899121591 0.0 0.0 0.0 10.733447899121591
10.637790122699148 0.0 0.0 0.0 10.637790122699148 0.0 0.0 0.0 10.637790122699148
10.664177015016488 0.0 0.0 0.0 10.664177015016488 0.0 0.0 0.0 10.664177015016488
10.58811361226496 0.0 0.0 0.0 10.58811361226496 0.0 0.0 0.0 10.58811361226496
10.679634810449704 0.0 0.0 0.0 10.679634810449704 0.0 0.0 0.0 10.679634810449704
10.654221075018524 0.0 0.0 0.0 10.654221075018524 0.0 0.0 0.0 10.654221075018524
10.64522717918535 0.0 0.0 0.0 10.64522717918535 0.0 0.0 0.0 10.64522717918535
10.632335893212648 0.0 0.0 0.0 10.632335893212648 0.0 0.0 0.0 10.632335893212648
10.665310512596783 0.0 0.0 0.0 10.665310512596783 0.0 0.0 0.0 10.665310512596783
10.570249118888151 0.0 0.0 0.0 10.570249118888151 0.0 0.0 0.0 10.570249118888151
10.592998976252478 0.0 0.0 0.0 10.592998976252478 0.0 0.0 0.0 10.592998976252478
10.713491568240164 0.0 0.0 0.0 10.713491568240164 0.0 0.0 0.0 10.713491568240164
10.575765791285237 0.0 0.0 0.0 10.575765791285237 0.0 0.0 0.0 10.575765791285237
10.613011929095203 0.0 0.0 0.0 10.613011929095203 0.0 0.0 0.0 10.613011929095203
10.659372615141846 0.0 0.0 0.0 10.659372615141846 0.0 0.0 0.0 10.659372615141846
10.664530505391669 0.0 0.0 0.0 10.664530505391669 0.0 0.0 0.0 10.664530505391669
10.745724281178186 0.0 0.0 0.0 10.745724281178186 0.0 0.0 0.0 10.745724281178186
10.70535176442127 0.0 0.0 0.0 10.70535176442127 0.0 0.0 0.0 10.70535176442127
10.701922696111138 0.0 0.0 0.0 10.701922696111138 0.0 0.0 0.0 10.701922696111138
10.655368331206237 0.0 0.0 0.0 10.655368331206237 0.0 0.0 0.0 10.655368331206237
10.58225138715082 0.0 0.0 0.0 10.58225138715082 0.0 0.0 0.0 10.58225138715082
10.701804160416469 0.0 0.0 0.0 10.701804160416469 0.0 0.0 0.0 10.701804160416469
10.60223523524708 0.0 0.0 0.0 10.60223523524708 0.0 0.0 0.0 10.60223523524708
10.617851783842802 0.0 0.0 0.0 10.617851783842802 0.0 0.0 0.0 10.617851783842802
10.583850560674462 0.0 0.0 0.0 10.583850560674462 0.0 0.0 0.0 10.583850560674462
10.628595668704005 0.0 0.0 0.0 10.628595668704005 0.0 0.0 0.0 10.628595668704005
10.69562919157219 0.0 0.0 0.0 10.69562919157219 0.0 0.0 0.0 10.69562919157219
10.679285024314982 0.0 0.0 0.0 10.679285024314982 0.0 0.0 0.0 10.679285024314982
10.78258147374001 0.0 0.0 0.0 10.78258147374001 0.0 0.0 0.0 10.78258147374001
10.662314840420294 0.0 0.0 0.0 10.662314840420294 0.0 0.0 0.0 10.662314840420294
10.648038697693332 0.0 0.0 0.0 10.648038697693332 0.0 0.0 0.0 10.648038697693332
10.751996089451593 0.0 0.0 0.0 10.751996089451593 0.0 0.0 0.0 10.751996089451593
10.704890321895585 0.0 0.0 0.0 10.704890321895585 0.0 0.0 0.0 10.704890321895585
10.547006597542847 0.0 0.0 0.0 10.547006597542847 0.0 0.0 0.0 10.547006597542847
10.691507959473531 0.0 0.0 0.0 10.691507959473531 0.0 0.0 0.0 10.691507959473531
10.62829192098641 0.0 0.0 0.0 10.62829192098641 0.0 0.0 0.0 10.62829192098641
10.655172006461935 0.0 0.0 0.0 10.655172006461935 0.0 0.0 0.0 10.655172006461935
10.616109203295695 0.0 0.0 0.0 10.616109203295695 0.0 0.0 0.0 10.616109203295695
10.656512412330695 0.0 0.0 0.0 10.656512412330695 0.0 0.0 0.0 10.656512412330695
10.61711358163715 0.0 0.0 0.0 10.61711358163715 0.0 0.0 0.0 10.61711358163715
