An instance of this daemon is already running

     Program PWSCF v.7.1 starts on 10May2023 at 10:44:47 

     This program is part of the open-source Quantum ESPRESSO suite
     for quantum simulation of materials; please cite
         "P. Giannozzi et al., J. Phys.:Condens. Matter 21 395502 (2009);
         "P. Giannozzi et al., J. Phys.:Condens. Matter 29 465901 (2017);
         "P. Giannozzi et al., J. Chem. Phys. 152 154105 (2020);
          URL http://www.quantum-espresso.org", 
     in publications or presentations arising from this work. More details at
     http://www.quantum-espresso.org/quote

     Parallel version (MPI & OpenMP), running on       4 processor cores
     Number of MPI processes:                 4
     Threads/MPI process:                     1

     MPI processes distributed on     1 nodes
     153199 MiB available memory on the printing compute node when the environment starts
 
     Reading input from pw-si-28.in
Warning: card &CELL ignored
Warning: card / ignored

     Current dimensions of program PWSCF are:
     Max number of different atomic species (ntypx) = 10
     Max number of k-points (npk) =  40000
     Max angular momentum in pseudopotentials (lmaxx) =  4

     IMPORTANT: XC functional enforced from input :
     Exchange-correlation= PBE
                           (   1   4   3   4   0   0   0)
     Any further DFT definition will be discarded
     Please, verify this is what you really want


     gamma-point specific algorithms are used
 
     K-points division:     npool     =       2
     R & G space division:  proc/nbgrp/npool/nimage =       2
     Subspace diagonalization in iterative solution of the eigenvalue problem:
     a serial algorithm will be used

     Message from routine divide_et_impera:
     suboptimal parallelization: some nodes have no k-points
 
     Parallelization info
     --------------------
     sticks:   dense  smooth     PW     G-vecs:    dense   smooth      PW
     Min        1955    1955    520                92369    92369   12632
     Max        1962    1962    521                92370    92370   12637
     Sum        3917    3917   1041               184739   184739   25269
 
     Using Slab Decomposition
 


     bravais-lattice index     =            0
     lattice parameter (alat)  =      20.2751  a.u.
     unit-cell volume          =    8334.7082 (a.u.)^3
     number of atoms/cell      =           64
     number of atomic types    =            1
     number of electrons       =       256.00
     number of Kohn-Sham states=          154
     kinetic-energy cutoff     =      30.0000  Ry
     charge density cutoff     =     120.0000  Ry
     scf convergence threshold =      1.0E-06
     mixing beta               =       0.5000
     number of iterations used =            8  plain     mixing
     Exchange-correlation= PBE
                           (   1   4   3   4   0   0   0)

     GPU acceleration is ACTIVE.
     GPU-aware MPI enabled

     Message from routine print_cuda_info:
     High GPU oversubscription detected. Are you sure this is what you want?

     celldm(1)=  20.275122  celldm(2)=   0.000000  celldm(3)=   0.000000
     celldm(4)=   0.000000  celldm(5)=   0.000000  celldm(6)=   0.000000

     crystal axes: (cart. coord. in units of alat)
               a(1) = (   1.000000   0.000000   0.000000 )  
               a(2) = (   0.000000   1.000000   0.000000 )  
               a(3) = (   0.000000   0.000000   1.000000 )  

     reciprocal axes: (cart. coord. in units 2 pi/alat)
               b(1) = (  1.000000  0.000000  0.000000 )  
               b(2) = (  0.000000  1.000000  0.000000 )  
               b(3) = (  0.000000  0.000000  1.000000 )  


     PseudoPot. # 1 for Si read from file:
     /home/ppiaggi/pseudos/Si_ONCV_PBE_sr.upf
     MD5 check sum: 8553c464762ac42b85b1eed164b4d029
     Pseudo is Norm-conserving, Zval =  4.0
     Generated using ONCVPSP code by D. R. Hamann
     Using radial grid of 1510 points,  4 beta functions with: 
                l(1) =   0
                l(2) =   0
                l(3) =   1
                l(4) =   1

     atomic species   valence    mass     pseudopotential
        Si             4.00    28.08500     Si( 1.00)

     No symmetry found



   Cartesian axes

     site n.     atom                  positions (alat units)
         1           Si  tau(   1) = (   0.8259060   0.9003540   0.1341970  )
         2           Si  tau(   2) = (   0.7587210   0.2337480   0.4588150  )
         3           Si  tau(   3) = (   0.3518590   0.7657940   0.3964100  )
         4           Si  tau(   4) = (   0.5004970   0.6190930   0.1446350  )
         5           Si  tau(   5) = (   0.7517240   0.7527560   0.8663310  )
         6           Si  tau(   6) = (   0.5725490   0.6138010   0.3816890  )
         7           Si  tau(   7) = (   0.5850310   0.8387320   0.1534360  )
         8           Si  tau(   8) = (   0.7774240   0.6470450   0.1126360  )
         9           Si  tau(   9) = (   0.2325920   0.2450890   0.8981670  )
        10           Si  tau(  10) = (   0.2666090   0.0621254   0.1393340  )
        11           Si  tau(  11) = (   0.4031790   0.3795990   0.6752710  )
        12           Si  tau(  12) = (   0.2005390   0.8842310   0.5886880  )
        13           Si  tau(  13) = (   0.5305010   0.0003586   0.9793970  )
        14           Si  tau(  14) = (   0.3169330   0.5520450   0.4771670  )
        15           Si  tau(  15) = (   0.6711130   0.8194240   0.5208260  )
        16           Si  tau(  16) = (   0.0171700   0.8318090   0.0046780  )
        17           Si  tau(  17) = (   0.1572890   0.0475329   0.8571500  )
        18           Si  tau(  18) = (   0.6506570   0.7042450   0.7013200  )
        19           Si  tau(  19) = (   0.0736977   0.5470240   0.4151850  )
        20           Si  tau(  20) = (   0.8401360   0.1922060   0.9362950  )
        21           Si  tau(  21) = (   0.8469390   0.9240840   0.4104700  )
        22           Si  tau(  22) = (   0.2681660   0.2122120   0.6498060  )
        23           Si  tau(  23) = (   0.1719580   0.8079560   0.2700690  )
        24           Si  tau(  24) = (   0.2745980   0.6458310   0.1107470  )
        25           Si  tau(  25) = (   0.4676540   0.6309290   0.8436040  )
        26           Si  tau(  26) = (   0.7481500   0.9674430   0.9448150  )
        27           Si  tau(  27) = (   0.2309900   0.8557710   0.0214260  )
        28           Si  tau(  28) = (   0.6029420   0.4254050   0.5246550  )
        29           Si  tau(  29) = (   0.7368030   0.0890224   0.6190570  )
        30           Si  tau(  30) = (   0.1801630   0.0098332   0.3865390  )
        31           Si  tau(  31) = (   0.3040680   0.4874620   0.8307410  )
        32           Si  tau(  32) = (   0.9328260   0.0869603   0.7442470  )
        33           Si  tau(  33) = (   0.2178430   0.6298280   0.6667050  )
        34           Si  tau(  34) = (   0.5815960   0.2439770   0.7332110  )
        35           Si  tau(  35) = (   0.0631992   0.2735870   0.6175120  )
        36           Si  tau(  36) = (   0.0104854   0.7277620   0.7852050  )
        37           Si  tau(  37) = (   0.7977870   0.5809160   0.3663870  )
        38           Si  tau(  38) = (   0.4570750   0.2048860   0.9275520  )
        39           Si  tau(  39) = (   0.2143300   0.3665890   0.3267910  )
        40           Si  tau(  40) = (   0.5110820   0.8928860   0.3698720  )
        41           Si  tau(  41) = (   0.7686360   0.3989570   0.7747930  )
        42           Si  tau(  42) = (   0.9854970   0.0830530   0.3206390  )
        43           Si  tau(  43) = (   0.7277910   0.1075880   0.2565760  )
        44           Si  tau(  44) = (   0.9293340   0.4098500   0.2256540  )
        45           Si  tau(  45) = (   0.5478610   0.3305020   0.1025330  )
        46           Si  tau(  46) = (   0.9795010   0.8972800   0.6315350  )
        47           Si  tau(  47) = (   0.9753500   0.7481100   0.3322970  )
        48           Si  tau(  48) = (   0.9765000   0.2809720   0.4115560  )
        49           Si  tau(  49) = (   0.9922080   0.1038690   0.0704742  )
        50           Si  tau(  50) = (   0.4970940   0.0835798   0.2326000  )
        51           Si  tau(  51) = (   0.1091350   0.5224010   0.9214320  )
        52           Si  tau(  52) = (   0.7523650   0.2850300   0.1358890  )
        53           Si  tau(  53) = (   0.9922270   0.3383470   0.8332400  )
        54           Si  tau(  54) = (   0.4692410   0.3954100   0.3050280  )
        55           Si  tau(  55) = (   0.9981970   0.6368990   0.1322300  )
        56           Si  tau(  56) = (   0.5048310   0.1995140   0.4244720  )
        57           Si  tau(  57) = (   0.6448600   0.5032180   0.9590350  )
        58           Si  tau(  58) = (   0.0130187   0.5224460   0.6170540  )
        59           Si  tau(  59) = (   0.5218760   0.0244151   0.5957160  )
        60           Si  tau(  60) = (   0.1193830   0.3184170   0.0925044  )
        61           Si  tau(  61) = (   0.3337370   0.9879100   0.7150560  )
        62           Si  tau(  62) = (   0.7894170   0.5399960   0.6161760  )
        63           Si  tau(  63) = (   0.2858430   0.1912090   0.4303910  )
        64           Si  tau(  64) = (   0.4155430   0.8495930   0.8899760  )

     number of k points=     1  Fermi-Dirac smearing, width (Ry)=  0.0100
                       cart. coord. in units 2pi/alat
        k(    1) = (   0.0000000   0.0000000   0.0000000), wk =   2.0000000

     Dense  grid:    92370 G-vectors     FFT dimensions: (  72,  72,  72)

     Estimated max dynamical RAM per process >     148.15 MB

     Estimated total dynamical RAM >     570.04 MB

     Initial potential from superposition of free atoms

     starting charge     255.9608, renormalised to     256.0000
     Starting wfcs are  256 randomized atomic wfcs

     total cpu time spent up to now is        4.3 secs

     Self-consistent Calculation

     iteration #  1     ecut=    30.00 Ry     beta= 0.50
     Davidson diagonalization with overlap
     ethr =  1.00E-02,  avg # of iterations =  3.0

     Threshold (ethr) on eigenvalues was too large:
     Diagonalizing with lowered threshold

     Davidson diagonalization with overlap
     ethr =  4.69E-04,  avg # of iterations =  4.0

     total cpu time spent up to now is        4.5 secs

     total energy              =    -501.33416584 Ry
     estimated scf accuracy    <       1.42424303 Ry

     iteration #  2     ecut=    30.00 Ry     beta= 0.50
     Davidson diagonalization with overlap
     ethr =  5.56E-04,  avg # of iterations =  4.0

     total cpu time spent up to now is        4.6 secs

     total energy              =    -500.70580940 Ry
     estimated scf accuracy    <       7.51017344 Ry

     iteration #  3     ecut=    30.00 Ry     beta= 0.50
     Davidson diagonalization with overlap
     ethr =  5.56E-04,  avg # of iterations =  4.0

     total cpu time spent up to now is        4.7 secs

     total energy              =    -501.42492791 Ry
     estimated scf accuracy    <       2.28250752 Ry

     iteration #  4     ecut=    30.00 Ry     beta= 0.50
     Davidson diagonalization with overlap
     ethr =  5.56E-04,  avg # of iterations =  2.0

     total cpu time spent up to now is        4.8 secs

     total energy              =    -501.55944594 Ry
     estimated scf accuracy    <       0.66181805 Ry

     iteration #  5     ecut=    30.00 Ry     beta= 0.50
     Davidson diagonalization with overlap
     ethr =  2.59E-04,  avg # of iterations =  2.0

     total cpu time spent up to now is        4.9 secs

     total energy              =    -501.59712625 Ry
     estimated scf accuracy    <       0.52175894 Ry

     iteration #  6     ecut=    30.00 Ry     beta= 0.50
     Davidson diagonalization with overlap
     ethr =  2.04E-04,  avg # of iterations =  2.0

     total cpu time spent up to now is        4.9 secs

     total energy              =    -501.64267521 Ry
     estimated scf accuracy    <       0.07768490 Ry

     iteration #  7     ecut=    30.00 Ry     beta= 0.50
     Davidson diagonalization with overlap
     ethr =  3.03E-05,  avg # of iterations =  4.0

     total cpu time spent up to now is        5.0 secs

     total energy              =    -501.64921124 Ry
     estimated scf accuracy    <       0.08084136 Ry

     iteration #  8     ecut=    30.00 Ry     beta= 0.50
     Davidson diagonalization with overlap
     ethr =  3.03E-05,  avg # of iterations =  2.0

     total cpu time spent up to now is        5.1 secs

     total energy              =    -501.65589169 Ry
     estimated scf accuracy    <       0.01315120 Ry

     iteration #  9     ecut=    30.00 Ry     beta= 0.50
     Davidson diagonalization with overlap
     ethr =  5.14E-06,  avg # of iterations = 14.0

     total cpu time spent up to now is        5.3 secs

     total energy              =    -501.65763174 Ry
     estimated scf accuracy    <       0.00174760 Ry

     iteration # 10     ecut=    30.00 Ry     beta= 0.50
     Davidson diagonalization with overlap
     ethr =  6.83E-07,  avg # of iterations =  3.0

     total cpu time spent up to now is        5.4 secs

     total energy              =    -501.65779055 Ry
     estimated scf accuracy    <       0.00092035 Ry

     iteration # 11     ecut=    30.00 Ry     beta= 0.50
     Davidson diagonalization with overlap
     ethr =  3.60E-07,  avg # of iterations =  3.0

     total cpu time spent up to now is        5.5 secs

     total energy              =    -501.65784331 Ry
     estimated scf accuracy    <       0.00076923 Ry

     iteration # 12     ecut=    30.00 Ry     beta= 0.50
     Davidson diagonalization with overlap
     ethr =  3.00E-07,  avg # of iterations =  2.0

     total cpu time spent up to now is        5.6 secs

     total energy              =    -501.65791940 Ry
     estimated scf accuracy    <       0.00031791 Ry

     iteration # 13     ecut=    30.00 Ry     beta= 0.50
     Davidson diagonalization with overlap
     ethr =  1.24E-07,  avg # of iterations =  2.0

     total cpu time spent up to now is        5.6 secs

     total energy              =    -501.65794704 Ry
     estimated scf accuracy    <       0.00004104 Ry

     iteration # 14     ecut=    30.00 Ry     beta= 0.50
     Davidson diagonalization with overlap
     ethr =  1.60E-08,  avg # of iterations =  2.0

     total cpu time spent up to now is        5.7 secs

     total energy              =    -501.65795187 Ry
     estimated scf accuracy    <       0.00002057 Ry

     iteration # 15     ecut=    30.00 Ry     beta= 0.50
     Davidson diagonalization with overlap
     ethr =  8.04E-09,  avg # of iterations =  3.0

     total cpu time spent up to now is        5.8 secs

     total energy              =    -501.65795345 Ry
     estimated scf accuracy    <       0.00002459 Ry

     iteration # 16     ecut=    30.00 Ry     beta= 0.50
     Davidson diagonalization with overlap
     ethr =  8.04E-09,  avg # of iterations =  2.0

     total cpu time spent up to now is        5.9 secs

     total energy              =    -501.65795504 Ry
     estimated scf accuracy    <       0.00000418 Ry

     iteration # 17     ecut=    30.00 Ry     beta= 0.50
     Davidson diagonalization with overlap
     ethr =  1.63E-09,  avg # of iterations =  3.0

     total cpu time spent up to now is        6.0 secs

     total energy              =    -501.65795541 Ry
     estimated scf accuracy    <       0.00000532 Ry

     iteration # 18     ecut=    30.00 Ry     beta= 0.50
     Davidson diagonalization with overlap
     ethr =  1.63E-09,  avg # of iterations =  2.0

     total cpu time spent up to now is        6.1 secs

     End of self-consistent calculation

          k = 0.0000 0.0000 0.0000 ( 11516 PWs)   bands (ev):

    -5.5232  -4.6621  -4.5425  -4.4469  -4.3196  -4.2881  -3.9622  -3.6075
    -3.5651  -3.4790  -3.3683  -3.3240  -3.2916  -3.1573  -3.0549  -3.0318
    -2.9694  -2.8324  -2.5919  -2.4842  -2.3682  -2.1384  -2.0979  -2.0454
    -1.7312  -1.7069  -1.3820  -1.2363  -1.0193  -0.9356  -0.7475  -0.6386
    -0.6097  -0.5503  -0.4247  -0.4196  -0.2015  -0.1300  -0.0971  -0.0166
     0.1211   0.2130   0.2628   0.3552   0.3597   0.4250   0.5082   0.6436
     0.8516   0.9478   1.0271   1.0346   1.1165   1.2145   1.2975   1.3537
     1.4645   1.6104   1.7890   1.8547   1.9577   2.0786   2.1892   2.2201
     2.2940   2.3785   2.4264   2.5015   2.6325   2.7179   2.7725   2.8212
     2.9246   2.9754   3.0986   3.1584   3.2060   3.2551   3.3603   3.5144
     3.7135   3.8973   3.9708   4.1379   4.1740   4.2109   4.3284   4.4033
     4.4569   4.5682   4.5800   4.6279   4.6612   4.6987   4.7843   4.8289
     4.8733   4.9418   5.0107   5.0830   5.1035   5.1496   5.1989   5.2723
     5.3589   5.4328   5.4600   5.5822   5.6142   5.6649   5.8240   5.8427
     5.8711   5.9386   5.9691   5.9881   6.0698   6.1806   6.2294   6.3067
     6.3861   6.4663   6.4810   6.5404   6.6330   6.6828   6.7652   6.7817
     6.8428   6.9156   6.9695   7.0203   7.1219   7.2083   7.2500   7.3017
     7.3499   7.4421   7.5217   7.5500   7.6091   7.6976   7.7198   7.8636
     7.9050   8.0241   8.0641   8.1600   8.1727   8.2729   8.2805   8.3457
     8.3534   8.4795

     the Fermi energy is     6.8298 ev

!    total energy              =    -501.65795545 Ry
     estimated scf accuracy    <       0.00000055 Ry
     smearing contrib. (-TS)   =      -0.14535705 Ry
     internal energy E=F+TS    =    -501.51259840 Ry

     The total energy is F=E-TS. E is the sum of the following terms:
     one-electron contribution =     175.46807832 Ry
     hartree contribution      =      27.87552580 Ry
     xc contribution           =    -150.83644722 Ry
     ewald contribution        =    -554.01975530 Ry

     convergence has been achieved in  18 iterations

     Forces acting on atoms (cartesian axes, Ry/au):

     atom    1 type  1   force =    -0.01384714   -0.00268369    0.04193817
     atom    2 type  1   force =    -0.02176915    0.01049778   -0.02998884
     atom    3 type  1   force =    -0.06773932   -0.05385032    0.01743420
     atom    4 type  1   force =     0.01356588    0.00044153    0.01313287
     atom    5 type  1   force =     0.08631335    0.03049856    0.08977699
     atom    6 type  1   force =    -0.00991181   -0.00878186   -0.01837699
     atom    7 type  1   force =     0.02205413   -0.00325495    0.01657550
     atom    8 type  1   force =    -0.04304295   -0.00169221   -0.02866573
     atom    9 type  1   force =     0.01432921    0.02946802    0.01526260
     atom   10 type  1   force =     0.00873557   -0.02204854    0.01380808
     atom   11 type  1   force =     0.04079048   -0.00588078   -0.05201120
     atom   12 type  1   force =    -0.01505462   -0.04334924   -0.04438912
     atom   13 type  1   force =     0.03327044    0.01165113    0.03351963
     atom   14 type  1   force =     0.00228875   -0.00541320   -0.00065191
     atom   15 type  1   force =    -0.00691984    0.02785061   -0.06052791
     atom   16 type  1   force =    -0.01135276   -0.01090416   -0.01925674
     atom   17 type  1   force =    -0.02247278   -0.01590679    0.00829011
     atom   18 type  1   force =    -0.05434577   -0.05693864   -0.06126147
     atom   19 type  1   force =     0.03433384   -0.00443587   -0.04454519
     atom   20 type  1   force =    -0.00361797   -0.01463649    0.01550624
     atom   21 type  1   force =     0.01869448   -0.01236654    0.03243074
     atom   22 type  1   force =     0.00620283   -0.02025633    0.00961658
     atom   23 type  1   force =     0.06091846    0.01317616   -0.02673043
     atom   24 type  1   force =    -0.02845756    0.02326778   -0.00194673
     atom   25 type  1   force =     0.05417348    0.01514715    0.02212769
     atom   26 type  1   force =    -0.01934252    0.01462926   -0.02589625
     atom   27 type  1   force =     0.04219321    0.01815394    0.01822071
     atom   28 type  1   force =    -0.00661471   -0.03954581   -0.01332008
     atom   29 type  1   force =     0.00015689    0.00674381    0.03445647
     atom   30 type  1   force =    -0.00931353   -0.02773421   -0.02756414
     atom   31 type  1   force =    -0.00902070    0.01811026   -0.00136206
     atom   32 type  1   force =     0.00267283    0.00818433   -0.00930443
     atom   33 type  1   force =    -0.02215160    0.00167624    0.00102406
     atom   34 type  1   force =     0.01766161    0.01429977    0.01425027
     atom   35 type  1   force =    -0.04116858    0.00975276    0.03187295
     atom   36 type  1   force =    -0.02043756    0.00012911    0.02723745
     atom   37 type  1   force =     0.00036088   -0.00179969   -0.00714450
     atom   38 type  1   force =     0.01091681    0.00875517   -0.00044535
     atom   39 type  1   force =     0.00773201    0.05437611   -0.04319870
     atom   40 type  1   force =     0.06463147    0.03391976   -0.00525807
     atom   41 type  1   force =    -0.02941915   -0.04327021    0.05781507
     atom   42 type  1   force =     0.00096447   -0.00966768   -0.02337356
     atom   43 type  1   force =    -0.00853340   -0.02256392    0.02697300
     atom   44 type  1   force =    -0.01657256    0.01257419    0.01973924
     atom   45 type  1   force =    -0.02673201    0.02925087   -0.02542752
     atom   46 type  1   force =    -0.00081767   -0.00981226   -0.02526333
     atom   47 type  1   force =    -0.03563288   -0.03434533   -0.00213288
     atom   48 type  1   force =    -0.03308185    0.00667671   -0.00012193
     atom   49 type  1   force =     0.03442791    0.01126462    0.02970623
     atom   50 type  1   force =    -0.00432960   -0.02304750   -0.01251111
     atom   51 type  1   force =    -0.02481686    0.00685826    0.02782849
     atom   52 type  1   force =     0.06560196    0.01122110   -0.02043686
     atom   53 type  1   force =    -0.02012821    0.00695745   -0.01885502
     atom   54 type  1   force =    -0.03426566    0.02454229   -0.00292439
     atom   55 type  1   force =     0.01516093   -0.00311931   -0.00196227
     atom   56 type  1   force =     0.00347233    0.00135761    0.02317164
     atom   57 type  1   force =    -0.01266872    0.01304842    0.01130898
     atom   58 type  1   force =     0.01623178   -0.00898184    0.03371797
     atom   59 type  1   force =     0.01225360    0.02478242   -0.03728761
     atom   60 type  1   force =     0.00138997   -0.01553543    0.01591717
     atom   61 type  1   force =     0.02514190    0.01330898    0.03505874
     atom   62 type  1   force =    -0.01881325    0.03549888   -0.03303704
     atom   63 type  1   force =     0.02877581   -0.00295052    0.02220786
     atom   64 type  1   force =    -0.05302456   -0.02329773   -0.03474632

     Total force =     0.379395     Total SCF correction =     0.001349


     Computing stress (Cartesian axis) and pressure

          total   stress  (Ry/bohr**3)                   (kbar)     P=      -29.17
  -0.00017339   0.00003917   0.00001364          -25.51        5.76        2.01
   0.00003917  -0.00019958   0.00002343            5.76      -29.36        3.45
   0.00001364   0.00002343  -0.00022198            2.01        3.45      -32.65

 
     init_run     :      0.99s CPU      4.22s WALL (       1 calls)
     electrons    :      1.62s CPU      1.77s WALL (       1 calls)
     forces       :      0.03s CPU      0.03s WALL (       1 calls)
     stress       :      0.14s CPU      0.14s WALL (       1 calls)

     Called by init_run:
     wfcinit      :      0.48s CPU      3.58s WALL (       1 calls)
                                        3.58s GPU  (       1 calls)
     potinit      :      0.04s CPU      0.11s WALL (       1 calls)
     hinit0       :      0.45s CPU      0.47s WALL (       1 calls)

     Called by electrons:
     c_bands      :      1.04s CPU      1.12s WALL (      19 calls)
     sum_band     :      0.30s CPU      0.36s WALL (      19 calls)
     v_of_rho     :      0.13s CPU      0.20s WALL (      19 calls)
     mix_rho      :      0.13s CPU      0.14s WALL (      19 calls)

     Called by c_bands:
     init_us_2    :      0.05s CPU      0.05s WALL (      39 calls)
     init_us_2:gp :      0.05s CPU      0.05s WALL (      39 calls)
     regterg      :      0.91s CPU      0.98s WALL (      19 calls)

     Called by *egterg:
     rdiaghg      :      0.39s CPU      1.11s WALL (      81 calls)
                                        1.10s GPU  (      81 calls)
     h_psi        :      0.85s CPU      3.27s WALL (      83 calls)
                                        3.27s GPU  (      83 calls)
     g_psi        :      0.00s CPU      0.00s WALL (      63 calls)
                                        0.00s GPU  (      63 calls)

     Called by h_psi:
     h_psi:calbec :      0.47s CPU      2.82s WALL (      83 calls)
                                        2.82s GPU  (      83 calls)
     vloc_psi     :      0.34s CPU      0.40s WALL (      83 calls)
                                        0.39s GPU  (      83 calls)
     add_vuspsi   :      0.03s CPU      0.05s WALL (      83 calls)
                                        0.05s GPU  (      83 calls)

     General routines
     calbec       :      0.47s CPU      2.82s WALL (      88 calls)
     fft          :      0.55s CPU      0.65s WALL (     159 calls)
                                        0.11s GPU  (     101 calls)
     ffts         :      0.03s CPU      0.03s WALL (      19 calls)
     fftw         :      0.42s CPU      0.55s WALL (    1991 calls)
                                        0.48s GPU  (    1991 calls)
 
     Parallel routines
 
     PWSCF        :      2.82s CPU      6.25s WALL

 
   This run was terminated on:  10:44:53  10May2023            

=------------------------------------------------------------------------------=
   JOB DONE.
=------------------------------------------------------------------------------=
