An instance of this daemon is already running
An instance of this daemon is already running

     Program PWSCF v.7.1 starts on 10May2023 at 10:47:25 

     This program is part of the open-source Quantum ESPRESSO suite
     for quantum simulation of materials; please cite
         "P. Giannozzi et al., J. Phys.:Condens. Matter 21 395502 (2009);
         "P. Giannozzi et al., J. Phys.:Condens. Matter 29 465901 (2017);
         "P. Giannozzi et al., J. Chem. Phys. 152 154105 (2020);
          URL http://www.quantum-espresso.org", 
     in publications or presentations arising from this work. More details at
     http://www.quantum-espresso.org/quote

     Parallel version (MPI & OpenMP), running on       4 processor cores
     Number of MPI processes:                 4
     Threads/MPI process:                     1

     MPI processes distributed on     1 nodes
     153190 MiB available memory on the printing compute node when the environment starts
 
     Reading input from pw-si-46.in
Warning: card &CELL ignored
Warning: card / ignored

     Current dimensions of program PWSCF are:
     Max number of different atomic species (ntypx) = 10
     Max number of k-points (npk) =  40000
     Max angular momentum in pseudopotentials (lmaxx) =  4

     IMPORTANT: XC functional enforced from input :
     Exchange-correlation= PBE
                           (   1   4   3   4   0   0   0)
     Any further DFT definition will be discarded
     Please, verify this is what you really want


     gamma-point specific algorithms are used
 
     K-points division:     npool     =       2
     R & G space division:  proc/nbgrp/npool/nimage =       2
     Subspace diagonalization in iterative solution of the eigenvalue problem:
     a serial algorithm will be used

     Message from routine divide_et_impera:
     suboptimal parallelization: some nodes have no k-points
 
     Parallelization info
     --------------------
     sticks:   dense  smooth     PW     G-vecs:    dense   smooth      PW
     Min        1945    1945    516                91383    91383   12416
     Max        1948    1948    517                91388    91388   12421
     Sum        3893    3893   1033               182771   182771   24837
 
     Using Slab Decomposition
 


     bravais-lattice index     =            0
     lattice parameter (alat)  =      20.1917  a.u.
     unit-cell volume          =    8232.2015 (a.u.)^3
     number of atoms/cell      =           64
     number of atomic types    =            1
     number of electrons       =       256.00
     number of Kohn-Sham states=          154
     kinetic-energy cutoff     =      30.0000  Ry
     charge density cutoff     =     120.0000  Ry
     scf convergence threshold =      1.0E-06
     mixing beta               =       0.5000
     number of iterations used =            8  plain     mixing
     Exchange-correlation= PBE
                           (   1   4   3   4   0   0   0)

     GPU acceleration is ACTIVE.
     GPU-aware MPI enabled

     Message from routine print_cuda_info:
     High GPU oversubscription detected. Are you sure this is what you want?

     celldm(1)=  20.191659  celldm(2)=   0.000000  celldm(3)=   0.000000
     celldm(4)=   0.000000  celldm(5)=   0.000000  celldm(6)=   0.000000

     crystal axes: (cart. coord. in units of alat)
               a(1) = (   1.000000   0.000000   0.000000 )  
               a(2) = (   0.000000   1.000000   0.000000 )  
               a(3) = (   0.000000   0.000000   1.000000 )  

     reciprocal axes: (cart. coord. in units 2 pi/alat)
               b(1) = (  1.000000  0.000000  0.000000 )  
               b(2) = (  0.000000  1.000000  0.000000 )  
               b(3) = (  0.000000  0.000000  1.000000 )  


     PseudoPot. # 1 for Si read from file:
     /home/ppiaggi/pseudos/Si_ONCV_PBE_sr.upf
     MD5 check sum: 8553c464762ac42b85b1eed164b4d029
     Pseudo is Norm-conserving, Zval =  4.0
     Generated using ONCVPSP code by D. R. Hamann
     Using radial grid of 1510 points,  4 beta functions with: 
                l(1) =   0
                l(2) =   0
                l(3) =   1
                l(4) =   1

     atomic species   valence    mass     pseudopotential
        Si             4.00    28.08500     Si( 1.00)

     No symmetry found



   Cartesian axes

     site n.     atom                  positions (alat units)
         1           Si  tau(   1) = (   0.5040950   0.2470490   0.9276310  )
         2           Si  tau(   2) = (   0.8795140   0.5313880   0.9937460  )
         3           Si  tau(   3) = (   0.3526830   0.6990280   0.7386310  )
         4           Si  tau(   4) = (   0.2216760   0.4422450   0.0839422  )
         5           Si  tau(   5) = (   0.2739340   0.9076570   0.7763820  )
         6           Si  tau(   6) = (   0.6327530   0.1780800   0.2114620  )
         7           Si  tau(   7) = (   0.9794480   0.9968760   0.0461874  )
         8           Si  tau(   8) = (   0.5465790   0.7534380   0.5505460  )
         9           Si  tau(   9) = (   0.8769700   0.2267080   0.2818640  )
        10           Si  tau(  10) = (   0.8095790   0.0272353   0.7679970  )
        11           Si  tau(  11) = (   0.4661440   0.9944410   0.9111420  )
        12           Si  tau(  12) = (   0.7895530   0.8758510   0.0829568  )
        13           Si  tau(  13) = (   0.8564620   0.7433860   0.9221860  )
        14           Si  tau(  14) = (   0.6455780   0.4675110   0.9504710  )
        15           Si  tau(  15) = (   0.9152160   0.5746800   0.2471370  )
        16           Si  tau(  16) = (   0.3989230   0.6933010   0.2741070  )
        17           Si  tau(  17) = (   0.6873550   0.1064570   0.9984560  )
        18           Si  tau(  18) = (   0.0724302   0.0972788   0.2312170  )
        19           Si  tau(  19) = (   0.0412577   0.7871710   0.7739120  )
        20           Si  tau(  20) = (   0.7383230   0.7786880   0.7277600  )
        21           Si  tau(  21) = (   0.2453160   0.0908345   0.6425990  )
        22           Si  tau(  22) = (   0.8721230   0.4258270   0.7845260  )
        23           Si  tau(  23) = (   0.6945030   0.4573300   0.5976650  )
        24           Si  tau(  24) = (   0.1508650   0.2356590   0.0248818  )
        25           Si  tau(  25) = (   0.5086510   0.2737860   0.6404630  )
        26           Si  tau(  26) = (   0.4180210   0.3994070   0.4381340  )
        27           Si  tau(  27) = (   0.6787350   0.0616633   0.3854960  )
        28           Si  tau(  28) = (   0.0960596   0.5877980   0.9186400  )
        29           Si  tau(  29) = (   0.3122900   0.2062620   0.8240680  )
        30           Si  tau(  30) = (   0.1690630   0.5870210   0.2677530  )
        31           Si  tau(  31) = (   0.2695020   0.6891750   0.0215766  )
        32           Si  tau(  32) = (   0.8619810   0.7863690   0.2762980  )
        33           Si  tau(  33) = (   0.1407250   0.8221750   0.2426970  )
        34           Si  tau(  34) = (   0.4907130   0.6090410   0.0669881  )
        35           Si  tau(  35) = (   0.5810780   0.8354620   0.0485195  )
        36           Si  tau(  36) = (   0.3092710   0.6733130   0.4874750  )
        37           Si  tau(  37) = (   0.8580130   0.2509690   0.0130356  )
        38           Si  tau(  38) = (   0.7263450   0.4078650   0.1961030  )
        39           Si  tau(  39) = (   0.9040070   0.4120470   0.4738780  )
        40           Si  tau(  40) = (   0.4223900   0.2113280   0.2989930  )
        41           Si  tau(  41) = (   0.3042350   0.9925440   0.3304610  )
        42           Si  tau(  42) = (   0.1744790   0.4085910   0.8018970  )
        43           Si  tau(  43) = (   0.1804200   0.2330220   0.4156390  )
        44           Si  tau(  44) = (   0.5901700   0.6042390   0.7799240  )
        45           Si  tau(  45) = (   0.5656240   0.5322950   0.3116470  )
        46           Si  tau(  46) = (   0.3796080   0.4721690   0.6943730  )
        47           Si  tau(  47) = (   0.0605736   0.5210210   0.6235390  )
        48           Si  tau(  48) = (   0.4727080   0.0808661   0.5264700  )
        49           Si  tau(  49) = (   0.1994020   0.4571380   0.4682040  )
        50           Si  tau(  50) = (   0.0168430   0.2609130   0.7601160  )
        51           Si  tau(  51) = (   0.1785280   0.9092730   0.0052937  )
        52           Si  tau(  52) = (   0.4325790   0.3843810   0.1361670  )
        53           Si  tau(  53) = (   0.0031483   0.2142880   0.5582160  )
        54           Si  tau(  54) = (   0.7076290   0.6205360   0.4209400  )
        55           Si  tau(  55) = (   0.9535260   0.7177150   0.5714460  )
        56           Si  tau(  56) = (   0.9851960   0.9161070   0.4370550  )
        57           Si  tau(  57) = (   0.6522230   0.8551700   0.3594860  )
        58           Si  tau(  58) = (   0.4821120   0.8826870   0.2170210  )
        59           Si  tau(  59) = (   0.6977730   0.2601920   0.7832010  )
        60           Si  tau(  60) = (   0.1901810   0.8810180   0.5093290  )
        61           Si  tau(  61) = (   0.0314044   0.0333383   0.8115280  )
        62           Si  tau(  62) = (   0.8556310   0.0467251   0.5597360  )
        63           Si  tau(  63) = (   0.3448430   0.0644551   0.0826374  )
        64           Si  tau(  64) = (   0.5752660   0.9584300   0.7060420  )

     number of k points=     1  Fermi-Dirac smearing, width (Ry)=  0.0100
                       cart. coord. in units 2pi/alat
        k(    1) = (   0.0000000   0.0000000   0.0000000), wk =   2.0000000

     Dense  grid:    91386 G-vectors     FFT dimensions: (  72,  72,  72)

     Estimated max dynamical RAM per process >     146.54 MB

     Estimated total dynamical RAM >     563.83 MB

     Initial potential from superposition of free atoms

     starting charge     255.9608, renormalised to     256.0000
     Starting wfcs are  256 randomized atomic wfcs

     total cpu time spent up to now is        4.2 secs

     Self-consistent Calculation

     iteration #  1     ecut=    30.00 Ry     beta= 0.50
     Davidson diagonalization with overlap
     ethr =  1.00E-02,  avg # of iterations =  3.0

     Threshold (ethr) on eigenvalues was too large:
     Diagonalizing with lowered threshold

     Davidson diagonalization with overlap
     ethr =  3.79E-04,  avg # of iterations =  4.0

     total cpu time spent up to now is        4.4 secs

     total energy              =    -501.26343032 Ry
     estimated scf accuracy    <       1.19113967 Ry

     iteration #  2     ecut=    30.00 Ry     beta= 0.50
     Davidson diagonalization with overlap
     ethr =  4.65E-04,  avg # of iterations =  4.0

     total cpu time spent up to now is        4.5 secs

     total energy              =    -501.08920580 Ry
     estimated scf accuracy    <       2.45166925 Ry

     iteration #  3     ecut=    30.00 Ry     beta= 0.50
     Davidson diagonalization with overlap
     ethr =  4.65E-04,  avg # of iterations =  3.0

     total cpu time spent up to now is        4.6 secs

     total energy              =    -501.32134438 Ry
     estimated scf accuracy    <       1.37525799 Ry

     iteration #  4     ecut=    30.00 Ry     beta= 0.50
     Davidson diagonalization with overlap
     ethr =  4.65E-04,  avg # of iterations =  2.0

     total cpu time spent up to now is        4.7 secs

     total energy              =    -501.42391833 Ry
     estimated scf accuracy    <       1.02605014 Ry

     iteration #  5     ecut=    30.00 Ry     beta= 0.50
     Davidson diagonalization with overlap
     ethr =  4.01E-04,  avg # of iterations =  2.0

     total cpu time spent up to now is        4.7 secs

     total energy              =    -501.48948007 Ry
     estimated scf accuracy    <       0.11395348 Ry

     iteration #  6     ecut=    30.00 Ry     beta= 0.50
     Davidson diagonalization with overlap
     ethr =  4.45E-05,  avg # of iterations =  4.0

     total cpu time spent up to now is        4.8 secs

     total energy              =    -501.50221610 Ry
     estimated scf accuracy    <       0.22001757 Ry

     iteration #  7     ecut=    30.00 Ry     beta= 0.50
     Davidson diagonalization with overlap
     ethr =  4.45E-05,  avg # of iterations =  2.0

     total cpu time spent up to now is        4.9 secs

     total energy              =    -501.51839376 Ry
     estimated scf accuracy    <       0.01148009 Ry

     iteration #  8     ecut=    30.00 Ry     beta= 0.50
     Davidson diagonalization with overlap
     ethr =  4.48E-06,  avg # of iterations = 17.0

     total cpu time spent up to now is        5.1 secs

     total energy              =    -501.51969345 Ry
     estimated scf accuracy    <       0.00867601 Ry

     iteration #  9     ecut=    30.00 Ry     beta= 0.50
     Davidson diagonalization with overlap
     ethr =  3.39E-06,  avg # of iterations =  3.0

     total cpu time spent up to now is        5.2 secs

     total energy              =    -501.52027096 Ry
     estimated scf accuracy    <       0.00693578 Ry

     iteration # 10     ecut=    30.00 Ry     beta= 0.50
     Davidson diagonalization with overlap
     ethr =  2.71E-06,  avg # of iterations =  2.0

     total cpu time spent up to now is        5.3 secs

     total energy              =    -501.52075252 Ry
     estimated scf accuracy    <       0.00075121 Ry

     iteration # 11     ecut=    30.00 Ry     beta= 0.50
     Davidson diagonalization with overlap
     ethr =  2.93E-07,  avg # of iterations =  4.0

     total cpu time spent up to now is        5.4 secs

     total energy              =    -501.52080196 Ry
     estimated scf accuracy    <       0.00069048 Ry

     iteration # 12     ecut=    30.00 Ry     beta= 0.50
     Davidson diagonalization with overlap
     ethr =  2.70E-07,  avg # of iterations =  2.0

     total cpu time spent up to now is        5.5 secs

     total energy              =    -501.52086955 Ry
     estimated scf accuracy    <       0.00026136 Ry

     iteration # 13     ecut=    30.00 Ry     beta= 0.50
     Davidson diagonalization with overlap
     ethr =  1.02E-07,  avg # of iterations =  2.0

     total cpu time spent up to now is        5.6 secs

     total energy              =    -501.52088633 Ry
     estimated scf accuracy    <       0.00004166 Ry

     iteration # 14     ecut=    30.00 Ry     beta= 0.50
     Davidson diagonalization with overlap
     ethr =  1.63E-08,  avg # of iterations =  3.0

     total cpu time spent up to now is        5.7 secs

     total energy              =    -501.52089096 Ry
     estimated scf accuracy    <       0.00006284 Ry

     iteration # 15     ecut=    30.00 Ry     beta= 0.50
     Davidson diagonalization with overlap
     ethr =  1.63E-08,  avg # of iterations =  2.0

     total cpu time spent up to now is        5.7 secs

     total energy              =    -501.52089515 Ry
     estimated scf accuracy    <       0.00001476 Ry

     iteration # 16     ecut=    30.00 Ry     beta= 0.50
     Davidson diagonalization with overlap
     ethr =  5.77E-09,  avg # of iterations =  2.0

     total cpu time spent up to now is        5.8 secs

     total energy              =    -501.52089669 Ry
     estimated scf accuracy    <       0.00000370 Ry

     iteration # 17     ecut=    30.00 Ry     beta= 0.50
     Davidson diagonalization with overlap
     ethr =  1.45E-09,  avg # of iterations =  4.0

     total cpu time spent up to now is        5.9 secs

     total energy              =    -501.52089674 Ry
     estimated scf accuracy    <       0.00000687 Ry

     iteration # 18     ecut=    30.00 Ry     beta= 0.50
     Davidson diagonalization with overlap
     ethr =  1.45E-09,  avg # of iterations =  2.0

     total cpu time spent up to now is        6.0 secs

     total energy              =    -501.52089716 Ry
     estimated scf accuracy    <       0.00000185 Ry

     iteration # 19     ecut=    30.00 Ry     beta= 0.50
     Davidson diagonalization with overlap
     ethr =  7.24E-10,  avg # of iterations =  2.0

     total cpu time spent up to now is        6.1 secs

     End of self-consistent calculation

          k = 0.0000 0.0000 0.0000 ( 11444 PWs)   bands (ev):

    -5.4321  -4.6602  -4.3844  -4.2601  -4.1826  -4.0813  -3.8534  -3.6004
    -3.4125  -3.3723  -3.2634  -3.2516  -3.0724  -2.9730  -2.9578  -2.8058
    -2.7116  -2.5994  -2.5024  -2.1636  -2.0964  -2.0435  -1.9375  -1.8123
    -1.7010  -1.6934  -1.4233  -1.1280  -0.8518  -0.7432  -0.6377  -0.5136
    -0.3542  -0.2926  -0.2109  -0.1770  -0.0883   0.1048   0.1443   0.2072
     0.2820   0.4349   0.5065   0.5301   0.5681   0.6322   0.7578   0.7959
     0.9059   0.9204   1.0230   1.0660   1.1797   1.3952   1.4825   1.5982
     1.6269   1.7825   1.8339   1.9734   2.0596   2.1580   2.2157   2.3533
     2.4382   2.5710   2.6325   2.6700   2.7449   2.8373   2.8559   2.9549
     3.0119   3.1108   3.1291   3.2194   3.2578   3.4130   3.5226   3.5944
     3.7538   3.8596   4.0922   4.2837   4.3243   4.3869   4.5014   4.5253
     4.5775   4.6603   4.7019   4.7612   4.9483   4.9690   5.0723   5.0849
     5.1644   5.2152   5.2488   5.3324   5.3912   5.4212   5.4471   5.4962
     5.6280   5.6412   5.7177   5.7360   5.8233   5.8898   5.9370   5.9487
     6.0975   6.1518   6.1962   6.2161   6.2869   6.3211   6.3747   6.5218
     6.5388   6.6206   6.6808   6.7625   6.7971   6.8522   6.9584   6.9699
     7.0072   7.0616   7.1452   7.1915   7.2805   7.3558   7.4095   7.4959
     7.6012   7.6117   7.7071   7.7342   7.8110   7.8565   7.9569   8.0042
     8.0593   8.1152   8.1462   8.1800   8.2049   8.3686   8.4390   8.4680
     8.5244   8.5863

     the Fermi energy is     7.0042 ev

!    total energy              =    -501.52089714 Ry
     estimated scf accuracy    <       0.00000031 Ry
     smearing contrib. (-TS)   =      -0.14812687 Ry
     internal energy E=F+TS    =    -501.37277027 Ry

     The total energy is F=E-TS. E is the sum of the following terms:
     one-electron contribution =     184.59997763 Ry
     hartree contribution      =      24.67063187 Ry
     xc contribution           =    -150.60283208 Ry
     ewald contribution        =    -560.04054768 Ry

     convergence has been achieved in  19 iterations

     Forces acting on atoms (cartesian axes, Ry/au):

     atom    1 type  1   force =     0.02994745    0.01991761    0.01632838
     atom    2 type  1   force =     0.01510089    0.00098711   -0.00614408
     atom    3 type  1   force =     0.02821782   -0.01292949   -0.01277237
     atom    4 type  1   force =    -0.00033486    0.01528789    0.02095926
     atom    5 type  1   force =    -0.01906607   -0.00520340    0.03887396
     atom    6 type  1   force =     0.01412136    0.03274096   -0.04376237
     atom    7 type  1   force =     0.00885809    0.02015871   -0.01001111
     atom    8 type  1   force =     0.01458573    0.02151912    0.00915229
     atom    9 type  1   force =    -0.01280391    0.02944523   -0.00869384
     atom   10 type  1   force =    -0.04380907   -0.00344777    0.01337643
     atom   11 type  1   force =     0.02257346   -0.01437153   -0.03491581
     atom   12 type  1   force =     0.03665011    0.01930496    0.00562580
     atom   13 type  1   force =     0.01518565   -0.00293308   -0.02747887
     atom   14 type  1   force =    -0.00467185   -0.02417906    0.01242282
     atom   15 type  1   force =     0.00614525   -0.03777949    0.01125634
     atom   16 type  1   force =    -0.01482216   -0.03753521    0.00367876
     atom   17 type  1   force =    -0.01974843   -0.02104154    0.00817005
     atom   18 type  1   force =     0.00375076    0.00212996   -0.01262985
     atom   19 type  1   force =     0.00855277    0.00552069    0.00624480
     atom   20 type  1   force =    -0.00882507    0.00095061   -0.01369094
     atom   21 type  1   force =    -0.00167478   -0.00840778   -0.02228008
     atom   22 type  1   force =    -0.03202331    0.00133906    0.00273833
     atom   23 type  1   force =     0.00400364   -0.00759987    0.01037358
     atom   24 type  1   force =     0.00631800   -0.01673661    0.00583538
     atom   25 type  1   force =     0.01027359    0.04878365   -0.00830840
     atom   26 type  1   force =     0.02602768   -0.00502235    0.01178094
     atom   27 type  1   force =     0.01299379    0.01958300    0.08833408
     atom   28 type  1   force =    -0.00440062   -0.00785332   -0.00680026
     atom   29 type  1   force =    -0.01129398    0.02207539    0.01219614
     atom   30 type  1   force =    -0.00871901   -0.00793052   -0.01570424
     atom   31 type  1   force =     0.00322780    0.01662808    0.00787088
     atom   32 type  1   force =    -0.00046789    0.01570751    0.01375777
     atom   33 type  1   force =    -0.00871074   -0.00630357   -0.00688744
     atom   34 type  1   force =    -0.00384684    0.00441422    0.00916631
     atom   35 type  1   force =    -0.00722659   -0.02333376   -0.09263977
     atom   36 type  1   force =     0.00683576    0.01411674    0.02591679
     atom   37 type  1   force =     0.02380815    0.01836025    0.02438365
     atom   38 type  1   force =     0.00599215   -0.03598866   -0.02012811
     atom   39 type  1   force =    -0.00475925   -0.00636140   -0.01490198
     atom   40 type  1   force =    -0.02294712    0.00695519   -0.00195856
     atom   41 type  1   force =     0.00332114    0.01376875   -0.01585596
     atom   42 type  1   force =     0.03316942    0.00139826   -0.00814379
     atom   43 type  1   force =    -0.00582530   -0.01050503    0.00260595
     atom   44 type  1   force =    -0.01916214    0.00045166   -0.03705536
     atom   45 type  1   force =    -0.10096422   -0.05704510   -0.06435528
     atom   46 type  1   force =     0.00314255   -0.01464815   -0.00418276
     atom   47 type  1   force =    -0.04227675    0.01118945   -0.00417094
     atom   48 type  1   force =     0.02118506   -0.01535967   -0.00544281
     atom   49 type  1   force =     0.03195726    0.02521022   -0.03407531
     atom   50 type  1   force =     0.01718517   -0.00328308    0.04897944
     atom   51 type  1   force =     0.03105398   -0.02924458   -0.00139433
     atom   52 type  1   force =     0.00927089   -0.00456263   -0.02014772
     atom   53 type  1   force =    -0.00813481    0.00283127   -0.06103808
     atom   54 type  1   force =     0.08903111    0.06378141    0.07870299
     atom   55 type  1   force =     0.00136235    0.01345424    0.03009292
     atom   56 type  1   force =    -0.00570101   -0.05168182   -0.02145811
     atom   57 type  1   force =    -0.02075517   -0.05310439    0.01260716
     atom   58 type  1   force =    -0.05004481    0.04483711    0.09455717
     atom   59 type  1   force =    -0.01037861    0.00668310    0.02207653
     atom   60 type  1   force =     0.01402955   -0.00818572   -0.01722656
     atom   61 type  1   force =    -0.01013973   -0.00554760    0.03503781
     atom   62 type  1   force =    -0.01076501    0.02024624   -0.05247279
     atom   63 type  1   force =    -0.04278486    0.01278289    0.03478496
     atom   64 type  1   force =    -0.00079439   -0.01443439   -0.01115975

     Total force =     0.371744     Total SCF correction =     0.001075


     Computing stress (Cartesian axis) and pressure

          total   stress  (Ry/bohr**3)                   (kbar)     P=      -35.80
  -0.00030725   0.00000527   0.00003493          -45.20        0.78        5.14
   0.00000527  -0.00016659   0.00005644            0.78      -24.51        8.30
   0.00003493   0.00005644  -0.00025634            5.14        8.30      -37.71

 
     init_run     :      0.93s CPU      4.13s WALL (       1 calls)
     electrons    :      1.73s CPU      1.92s WALL (       1 calls)
     forces       :      0.03s CPU      0.04s WALL (       1 calls)
     stress       :      0.14s CPU      0.14s WALL (       1 calls)

     Called by init_run:
     wfcinit      :      0.43s CPU      3.48s WALL (       1 calls)
                                        3.48s GPU  (       1 calls)
     potinit      :      0.04s CPU      0.11s WALL (       1 calls)
     hinit0       :      0.45s CPU      0.47s WALL (       1 calls)

     Called by electrons:
     c_bands      :      1.12s CPU      1.23s WALL (      20 calls)
     sum_band     :      0.31s CPU      0.37s WALL (      20 calls)
     v_of_rho     :      0.13s CPU      0.21s WALL (      20 calls)
     mix_rho      :      0.14s CPU      0.15s WALL (      20 calls)

     Called by c_bands:
     init_us_2    :      0.05s CPU      0.05s WALL (      41 calls)
     init_us_2:gp :      0.05s CPU      0.05s WALL (      41 calls)
     regterg      :      0.98s CPU      1.08s WALL (      20 calls)

     Called by *egterg:
     rdiaghg      :      0.42s CPU      1.05s WALL (      88 calls)
                                        1.03s GPU  (      88 calls)
     h_psi        :      0.83s CPU      3.31s WALL (      90 calls)
                                        3.30s GPU  (      90 calls)
     g_psi        :      0.00s CPU      0.00s WALL (      69 calls)
                                        0.00s GPU  (      69 calls)

     Called by h_psi:
     h_psi:calbec :      0.41s CPU      2.81s WALL (      90 calls)
                                        2.81s GPU  (      90 calls)
     vloc_psi     :      0.36s CPU      0.44s WALL (      90 calls)
                                        0.44s GPU  (      90 calls)
     add_vuspsi   :      0.03s CPU      0.05s WALL (      90 calls)
                                        0.05s GPU  (      90 calls)

     General routines
     calbec       :      0.42s CPU      2.81s WALL (      95 calls)
     fft          :      0.55s CPU      0.65s WALL (     167 calls)
                                        0.11s GPU  (     106 calls)
     ffts         :      0.03s CPU      0.03s WALL (      20 calls)
     fftw         :      0.44s CPU      0.59s WALL (    2104 calls)
                                        0.52s GPU  (    2104 calls)
 
     Parallel routines
 
     PWSCF        :      2.86s CPU      6.30s WALL

 
   This run was terminated on:  10:47:32  10May2023            

=------------------------------------------------------------------------------=
   JOB DONE.
=------------------------------------------------------------------------------=
