An instance of this daemon is already running

     Program PWSCF v.7.1 starts on 10May2023 at 10:52:46 

     This program is part of the open-source Quantum ESPRESSO suite
     for quantum simulation of materials; please cite
         "P. Giannozzi et al., J. Phys.:Condens. Matter 21 395502 (2009);
         "P. Giannozzi et al., J. Phys.:Condens. Matter 29 465901 (2017);
         "P. Giannozzi et al., J. Chem. Phys. 152 154105 (2020);
          URL http://www.quantum-espresso.org", 
     in publications or presentations arising from this work. More details at
     http://www.quantum-espresso.org/quote

     Parallel version (MPI & OpenMP), running on       4 processor cores
     Number of MPI processes:                 4
     Threads/MPI process:                     1

     MPI processes distributed on     1 nodes
     153139 MiB available memory on the printing compute node when the environment starts
 
     Reading input from pw-si-82.in
Warning: card &CELL ignored
Warning: card / ignored

     Current dimensions of program PWSCF are:
     Max number of different atomic species (ntypx) = 10
     Max number of k-points (npk) =  40000
     Max angular momentum in pseudopotentials (lmaxx) =  4

     IMPORTANT: XC functional enforced from input :
     Exchange-correlation= PBE
                           (   1   4   3   4   0   0   0)
     Any further DFT definition will be discarded
     Please, verify this is what you really want


     gamma-point specific algorithms are used
 
     K-points division:     npool     =       2
     R & G space division:  proc/nbgrp/npool/nimage =       2
     Subspace diagonalization in iterative solution of the eigenvalue problem:
     a serial algorithm will be used

     Message from routine divide_et_impera:
     suboptimal parallelization: some nodes have no k-points
 
     Parallelization info
     --------------------
     sticks:   dense  smooth     PW     G-vecs:    dense   smooth      PW
     Min        1953    1953    519                91863    91863   12442
     Max        1956    1956    522                91868    91868   12443
     Sum        3909    3909   1041               183731   183731   24885
 
     Using Slab Decomposition
 


     bravais-lattice index     =            0
     lattice parameter (alat)  =      20.2235  a.u.
     unit-cell volume          =    8271.1825 (a.u.)^3
     number of atoms/cell      =           64
     number of atomic types    =            1
     number of electrons       =       256.00
     number of Kohn-Sham states=          154
     kinetic-energy cutoff     =      30.0000  Ry
     charge density cutoff     =     120.0000  Ry
     scf convergence threshold =      1.0E-06
     mixing beta               =       0.5000
     number of iterations used =            8  plain     mixing
     Exchange-correlation= PBE
                           (   1   4   3   4   0   0   0)

     GPU acceleration is ACTIVE.
     GPU-aware MPI enabled

     Message from routine print_cuda_info:
     High GPU oversubscription detected. Are you sure this is what you want?

     celldm(1)=  20.223479  celldm(2)=   0.000000  celldm(3)=   0.000000
     celldm(4)=   0.000000  celldm(5)=   0.000000  celldm(6)=   0.000000

     crystal axes: (cart. coord. in units of alat)
               a(1) = (   1.000000   0.000000   0.000000 )  
               a(2) = (   0.000000   1.000000   0.000000 )  
               a(3) = (   0.000000   0.000000   1.000000 )  

     reciprocal axes: (cart. coord. in units 2 pi/alat)
               b(1) = (  1.000000  0.000000  0.000000 )  
               b(2) = (  0.000000  1.000000  0.000000 )  
               b(3) = (  0.000000  0.000000  1.000000 )  


     PseudoPot. # 1 for Si read from file:
     /home/ppiaggi/pseudos/Si_ONCV_PBE_sr.upf
     MD5 check sum: 8553c464762ac42b85b1eed164b4d029
     Pseudo is Norm-conserving, Zval =  4.0
     Generated using ONCVPSP code by D. R. Hamann
     Using radial grid of 1510 points,  4 beta functions with: 
                l(1) =   0
                l(2) =   0
                l(3) =   1
                l(4) =   1

     atomic species   valence    mass     pseudopotential
        Si             4.00    28.08500     Si( 1.00)

     No symmetry found



   Cartesian axes

     site n.     atom                  positions (alat units)
         1           Si  tau(   1) = (   0.2331290   0.6768620   0.0591518  )
         2           Si  tau(   2) = (   0.6148970   0.2446950   0.3395760  )
         3           Si  tau(   3) = (   0.7844310   0.1898420   0.6172620  )
         4           Si  tau(   4) = (   0.5025730   0.0188336   0.4030990  )
         5           Si  tau(   5) = (   0.9557520   0.0079623   0.9383160  )
         6           Si  tau(   6) = (   0.1452560   0.0583314   0.2726940  )
         7           Si  tau(   7) = (   0.4464200   0.3535030   0.0901179  )
         8           Si  tau(   8) = (   0.1742530   0.9805660   0.8192700  )
         9           Si  tau(   9) = (   0.9569240   0.0058181   0.1811700  )
        10           Si  tau(  10) = (   0.8049540   0.5702430   0.5152950  )
        11           Si  tau(  11) = (   0.6565160   0.7465360   0.4673370  )
        12           Si  tau(  12) = (   0.2354890   0.0876202   0.6148890  )
        13           Si  tau(  13) = (   0.2080680   0.4520920   0.1041950  )
        14           Si  tau(  14) = (   0.3769500   0.2296160   0.2896770  )
        15           Si  tau(  15) = (   0.0313467   0.4094650   0.9515810  )
        16           Si  tau(  16) = (   0.6964140   0.3434870   0.9232680  )
        17           Si  tau(  17) = (   0.7959800   0.7040940   0.2105380  )
        18           Si  tau(  18) = (   0.5405250   0.1006460   0.7382940  )
        19           Si  tau(  19) = (   0.5079510   0.8054730   0.6289740  )
        20           Si  tau(  20) = (   0.5932270   0.5291600   0.0712087  )
        21           Si  tau(  21) = (   0.2452170   0.1707100   0.9448930  )
        22           Si  tau(  22) = (   0.8240530   0.9647420   0.3695010  )
        23           Si  tau(  23) = (   0.6514690   0.9607910   0.2149850  )
        24           Si  tau(  24) = (   0.8864730   0.7659310   0.8789380  )
        25           Si  tau(  25) = (   0.6734670   0.9966930   0.5450190  )
        26           Si  tau(  26) = (   0.3250920   0.4679350   0.3072970  )
        27           Si  tau(  27) = (   0.1032440   0.7522080   0.7933220  )
        28           Si  tau(  28) = (   0.7169300   0.1803870   0.1250850  )
        29           Si  tau(  29) = (   0.0001357   0.7979350   0.1054730  )
        30           Si  tau(  30) = (   0.3947370   0.9233760   0.8074960  )
        31           Si  tau(  31) = (   0.8817210   0.1893830   0.8244460  )
        32           Si  tau(  32) = (   0.5293220   0.5127690   0.4538840  )
        33           Si  tau(  33) = (   0.3664460   0.0044707   0.2092690  )
        34           Si  tau(  34) = (   0.4352020   0.1080800   0.0288435  )
        35           Si  tau(  35) = (   0.2814400   0.6988600   0.3952890  )
        36           Si  tau(  36) = (   0.6903510   0.0592821   0.9143100  )
        37           Si  tau(  37) = (   0.9895830   0.2193400   0.5433180  )
        38           Si  tau(  38) = (   0.9251990   0.7522810   0.4162520  )
        39           Si  tau(  39) = (   0.7131660   0.8512150   0.0135085  )
        40           Si  tau(  40) = (   0.6217680   0.3363310   0.5793610  )
        41           Si  tau(  41) = (   0.8077510   0.4214040   0.3510830  )
        42           Si  tau(  42) = (   0.5526500   0.6455910   0.2687620  )
        43           Si  tau(  43) = (   0.7071290   0.7157280   0.7492150  )
        44           Si  tau(  44) = (   0.3199980   0.9089610   0.5225250  )
        45           Si  tau(  45) = (   0.8107370   0.4715900   0.1530830  )
        46           Si  tau(  46) = (   0.1183440   0.2857670   0.7490410  )
        47           Si  tau(  47) = (   0.0925486   0.6392010   0.2833270  )
        48           Si  tau(  48) = (   0.7110640   0.4804960   0.7041840  )
        49           Si  tau(  49) = (   0.9168650   0.5342100   0.7908880  )
        50           Si  tau(  50) = (   0.4905990   0.2997710   0.8362490  )
        51           Si  tau(  51) = (   0.9362630   0.2431450   0.1093330  )
        52           Si  tau(  52) = (   0.4005590   0.7961000   0.1854260  )
        53           Si  tau(  53) = (   0.3333760   0.6540670   0.8267120  )
        54           Si  tau(  54) = (   0.1055160   0.7900200   0.5606960  )
        55           Si  tau(  55) = (   0.1352320   0.2692660   0.2570560  )
        56           Si  tau(  56) = (   0.4947470   0.8136570   0.9669000  )
        57           Si  tau(  57) = (   0.3022550   0.4292610   0.8735890  )
        58           Si  tau(  58) = (   0.3460400   0.6190170   0.5982610  )
        59           Si  tau(  59) = (   0.2609760   0.4033320   0.6294730  )
        60           Si  tau(  60) = (   0.0436723   0.0181239   0.4677600  )
        61           Si  tau(  61) = (   0.0514149   0.5383140   0.6032130  )
        62           Si  tau(  62) = (   0.3900360   0.2319650   0.5390750  )
        63           Si  tau(  63) = (   0.5533900   0.6176620   0.8753980  )
        64           Si  tau(  64) = (   0.0349968   0.4047010   0.4102440  )

     number of k points=     1  Fermi-Dirac smearing, width (Ry)=  0.0100
                       cart. coord. in units 2pi/alat
        k(    1) = (   0.0000000   0.0000000   0.0000000), wk =   2.0000000

     Dense  grid:    91866 G-vectors     FFT dimensions: (  72,  72,  72)

     Estimated max dynamical RAM per process >     147.16 MB

     Estimated total dynamical RAM >     566.23 MB

     Initial potential from superposition of free atoms

     starting charge     255.9608, renormalised to     256.0000
     Starting wfcs are  256 randomized atomic wfcs

     total cpu time spent up to now is        4.4 secs

     Self-consistent Calculation

     iteration #  1     ecut=    30.00 Ry     beta= 0.50
     Davidson diagonalization with overlap
     ethr =  1.00E-02,  avg # of iterations =  3.0

     Threshold (ethr) on eigenvalues was too large:
     Diagonalizing with lowered threshold

     Davidson diagonalization with overlap
     ethr =  3.70E-04,  avg # of iterations =  4.0

     total cpu time spent up to now is        4.7 secs

     total energy              =    -501.37348816 Ry
     estimated scf accuracy    <       1.13271422 Ry

     iteration #  2     ecut=    30.00 Ry     beta= 0.50
     Davidson diagonalization with overlap
     ethr =  4.42E-04,  avg # of iterations =  3.0

     total cpu time spent up to now is        4.8 secs

     total energy              =    -501.09338606 Ry
     estimated scf accuracy    <       2.81178793 Ry

     iteration #  3     ecut=    30.00 Ry     beta= 0.50
     Davidson diagonalization with overlap
     ethr =  4.42E-04,  avg # of iterations =  4.0

     total cpu time spent up to now is        4.9 secs

     total energy              =    -501.32822453 Ry
     estimated scf accuracy    <       2.47113064 Ry

     iteration #  4     ecut=    30.00 Ry     beta= 0.50
     Davidson diagonalization with overlap
     ethr =  4.42E-04,  avg # of iterations =  2.0

     total cpu time spent up to now is        5.0 secs

     total energy              =    -501.50093700 Ry
     estimated scf accuracy    <       0.70040352 Ry

     iteration #  5     ecut=    30.00 Ry     beta= 0.50
     Davidson diagonalization with overlap
     ethr =  2.74E-04,  avg # of iterations =  2.0

     total cpu time spent up to now is        5.0 secs

     total energy              =    -501.54798026 Ry
     estimated scf accuracy    <       0.17877150 Ry

     iteration #  6     ecut=    30.00 Ry     beta= 0.50
     Davidson diagonalization with overlap
     ethr =  6.98E-05,  avg # of iterations =  2.0

     total cpu time spent up to now is        5.1 secs

     total energy              =    -501.56992185 Ry
     estimated scf accuracy    <       0.14825751 Ry

     iteration #  7     ecut=    30.00 Ry     beta= 0.50
     Davidson diagonalization with overlap
     ethr =  5.79E-05,  avg # of iterations =  1.0

     total cpu time spent up to now is        5.2 secs

     total energy              =    -501.58110742 Ry
     estimated scf accuracy    <       0.00995363 Ry

     iteration #  8     ecut=    30.00 Ry     beta= 0.50
     Davidson diagonalization with overlap
     ethr =  3.89E-06,  avg # of iterations = 20.0

     total cpu time spent up to now is        5.4 secs

     total energy              =    -501.58211254 Ry
     estimated scf accuracy    <       0.01641593 Ry

     iteration #  9     ecut=    30.00 Ry     beta= 0.50
     Davidson diagonalization with overlap
     ethr =  3.89E-06,  avg # of iterations =  2.0

     total cpu time spent up to now is        5.5 secs

     total energy              =    -501.58342791 Ry
     estimated scf accuracy    <       0.00589503 Ry

     iteration # 10     ecut=    30.00 Ry     beta= 0.50
     Davidson diagonalization with overlap
     ethr =  2.30E-06,  avg # of iterations =  2.0

     total cpu time spent up to now is        5.6 secs

     total energy              =    -501.58387331 Ry
     estimated scf accuracy    <       0.00056859 Ry

     iteration # 11     ecut=    30.00 Ry     beta= 0.50
     Davidson diagonalization with overlap
     ethr =  2.22E-07,  avg # of iterations =  4.0

     total cpu time spent up to now is        5.7 secs

     total energy              =    -501.58389997 Ry
     estimated scf accuracy    <       0.00072414 Ry

     iteration # 12     ecut=    30.00 Ry     beta= 0.50
     Davidson diagonalization with overlap
     ethr =  2.22E-07,  avg # of iterations =  2.0

     total cpu time spent up to now is        5.7 secs

     total energy              =    -501.58397130 Ry
     estimated scf accuracy    <       0.00026519 Ry

     iteration # 13     ecut=    30.00 Ry     beta= 0.50
     Davidson diagonalization with overlap
     ethr =  1.04E-07,  avg # of iterations =  2.0

     total cpu time spent up to now is        5.8 secs

     total energy              =    -501.58398710 Ry
     estimated scf accuracy    <       0.00010689 Ry

     iteration # 14     ecut=    30.00 Ry     beta= 0.50
     Davidson diagonalization with overlap
     ethr =  4.18E-08,  avg # of iterations =  2.0

     total cpu time spent up to now is        5.9 secs

     total energy              =    -501.58399659 Ry
     estimated scf accuracy    <       0.00002573 Ry

     iteration # 15     ecut=    30.00 Ry     beta= 0.50
     Davidson diagonalization with overlap
     ethr =  1.01E-08,  avg # of iterations =  2.0

     total cpu time spent up to now is        6.0 secs

     total energy              =    -501.58399801 Ry
     estimated scf accuracy    <       0.00000814 Ry

     iteration # 16     ecut=    30.00 Ry     beta= 0.50
     Davidson diagonalization with overlap
     ethr =  3.18E-09,  avg # of iterations =  4.0

     total cpu time spent up to now is        6.1 secs

     total energy              =    -501.58399877 Ry
     estimated scf accuracy    <       0.00001808 Ry

     iteration # 17     ecut=    30.00 Ry     beta= 0.50
     Davidson diagonalization with overlap
     ethr =  3.18E-09,  avg # of iterations =  3.0

     total cpu time spent up to now is        6.2 secs

     total energy              =    -501.58399969 Ry
     estimated scf accuracy    <       0.00000602 Ry

     iteration # 18     ecut=    30.00 Ry     beta= 0.50
     Davidson diagonalization with overlap
     ethr =  2.35E-09,  avg # of iterations =  2.0

     total cpu time spent up to now is        6.3 secs

     total energy              =    -501.58400006 Ry
     estimated scf accuracy    <       0.00000115 Ry

     iteration # 19     ecut=    30.00 Ry     beta= 0.50
     Davidson diagonalization with overlap
     ethr =  4.51E-10,  avg # of iterations =  2.0

     total cpu time spent up to now is        6.4 secs

     End of self-consistent calculation

          k = 0.0000 0.0000 0.0000 ( 11492 PWs)   bands (ev):

    -5.4581  -4.5116  -4.4156  -4.3106  -4.2770  -4.1811  -4.1639  -3.5607
    -3.3694  -3.3071  -3.2783  -3.2277  -3.0996  -3.0357  -3.0201  -2.9305
    -2.8887  -2.7679  -2.5090  -2.2999  -2.1008  -2.0017  -1.9529  -1.8746
    -1.6073  -1.5807  -1.4581  -1.0708  -1.0019  -0.8652  -0.8221  -0.7658
    -0.5016  -0.2985  -0.2221  -0.1805  -0.1365   0.0040   0.0403   0.1331
     0.2728   0.3089   0.3792   0.4476   0.5489   0.6234   0.7442   0.7982
     0.8563   0.9719   0.9955   1.1472   1.1935   1.3610   1.4460   1.4944
     1.5722   1.6589   1.7618   1.8070   1.9803   2.0761   2.1879   2.3330
     2.3940   2.4345   2.5455   2.5922   2.6363   2.6544   2.7472   2.9100
     2.9824   3.1103   3.2233   3.2725   3.3067   3.3736   3.4347   3.5929
     3.8293   3.9683   4.0839   4.1794   4.2423   4.3128   4.3536   4.4874
     4.5728   4.6709   4.7271   4.7862   4.8743   4.9303   5.0157   5.0269
     5.0727   5.1716   5.2008   5.2614   5.3144   5.3608   5.3969   5.5075
     5.5626   5.6156   5.6340   5.6844   5.7607   5.8222   5.8538   5.9292
     6.0229   6.0585   6.0973   6.2046   6.2368   6.3202   6.4007   6.4853
     6.5421   6.5841   6.6112   6.6278   6.6507   6.7721   6.8209   6.8919
     6.9351   7.0117   7.0449   7.1106   7.1601   7.2374   7.2970   7.3845
     7.4402   7.5050   7.5462   7.6867   7.7376   7.7875   7.8379   7.8664
     7.9441   8.0303   8.1333   8.2058   8.2732   8.3088   8.4228   8.4680
     8.5468   8.6105

     the Fermi energy is     6.9142 ev

!    total energy              =    -501.58400007 Ry
     estimated scf accuracy    <       0.00000020 Ry
     smearing contrib. (-TS)   =      -0.15373736 Ry
     internal energy E=F+TS    =    -501.43026270 Ry

     The total energy is F=E-TS. E is the sum of the following terms:
     one-electron contribution =     179.05517108 Ry
     hartree contribution      =      26.99365247 Ry
     xc contribution           =    -150.62058296 Ry
     ewald contribution        =    -556.85850328 Ry

     convergence has been achieved in  19 iterations

     Forces acting on atoms (cartesian axes, Ry/au):

     atom    1 type  1   force =    -0.01491507    0.01415024   -0.00304121
     atom    2 type  1   force =     0.00302680    0.00179289   -0.01598893
     atom    3 type  1   force =     0.00517480   -0.01621129    0.00770665
     atom    4 type  1   force =    -0.01240549    0.01586412   -0.02557905
     atom    5 type  1   force =     0.00024082   -0.01238398    0.00884524
     atom    6 type  1   force =     0.04755548   -0.03560269    0.01202834
     atom    7 type  1   force =    -0.01782408   -0.00534075    0.00535138
     atom    8 type  1   force =     0.00282142    0.00059378   -0.01085739
     atom    9 type  1   force =    -0.00843865   -0.01229320   -0.04877660
     atom   10 type  1   force =     0.00741935    0.03033995   -0.00465319
     atom   11 type  1   force =     0.00995720   -0.00850452   -0.02076585
     atom   12 type  1   force =    -0.03965135   -0.01108115    0.02628770
     atom   13 type  1   force =     0.00022874    0.00914309    0.00088804
     atom   14 type  1   force =     0.01786553    0.01211238    0.03650917
     atom   15 type  1   force =    -0.01024465   -0.02433330   -0.00883280
     atom   16 type  1   force =     0.00800115   -0.01745057    0.00960970
     atom   17 type  1   force =     0.00831538   -0.01238832   -0.00542361
     atom   18 type  1   force =    -0.01001822   -0.02562088    0.01076176
     atom   19 type  1   force =    -0.00450903    0.00711914    0.01326961
     atom   20 type  1   force =     0.01828077   -0.02476035    0.01916118
     atom   21 type  1   force =    -0.02290825    0.00396155   -0.01476010
     atom   22 type  1   force =     0.00949010   -0.04864146    0.00492769
     atom   23 type  1   force =     0.00431372    0.00755718    0.00760123
     atom   24 type  1   force =     0.01622200    0.01142422    0.02273248
     atom   25 type  1   force =     0.00391159   -0.00110013    0.01925831
     atom   26 type  1   force =     0.00907396   -0.00164258   -0.00023154
     atom   27 type  1   force =     0.01324733    0.03136819   -0.03163656
     atom   28 type  1   force =    -0.01741756   -0.00414479   -0.01712498
     atom   29 type  1   force =    -0.01005684   -0.03645795   -0.00855803
     atom   30 type  1   force =     0.01489524    0.01777217   -0.02078153
     atom   31 type  1   force =    -0.02036127    0.02475407    0.00701977
     atom   32 type  1   force =    -0.03642402    0.01997536    0.00106784
     atom   33 type  1   force =    -0.03497477    0.04091759    0.03403500
     atom   34 type  1   force =     0.03554935    0.01961703   -0.00708654
     atom   35 type  1   force =    -0.01258004    0.01114893    0.01568968
     atom   36 type  1   force =    -0.00777174    0.01526782    0.03017837
     atom   37 type  1   force =     0.00360081    0.02308650    0.00520463
     atom   38 type  1   force =    -0.02528942   -0.00605631   -0.01820020
     atom   39 type  1   force =    -0.00102123    0.01834978    0.01903891
     atom   40 type  1   force =    -0.04778053   -0.03293163   -0.03400474
     atom   41 type  1   force =     0.00018931   -0.03031453    0.05830066
     atom   42 type  1   force =     0.02205718    0.01728711   -0.00760023
     atom   43 type  1   force =    -0.01092780   -0.00295224   -0.02465859
     atom   44 type  1   force =     0.01880809   -0.04044994   -0.01812226
     atom   45 type  1   force =     0.00250464    0.03566366   -0.07037556
     atom   46 type  1   force =    -0.02561458   -0.01089779    0.02099439
     atom   47 type  1   force =    -0.00310039   -0.01513583    0.00154416
     atom   48 type  1   force =     0.03398392    0.03891251    0.05559714
     atom   49 type  1   force =     0.00945851   -0.00105426    0.00729986
     atom   50 type  1   force =     0.01098786   -0.01146742   -0.00045358
     atom   51 type  1   force =     0.01276021    0.02598071   -0.02232954
     atom   52 type  1   force =     0.00142677   -0.05879945   -0.03095698
     atom   53 type  1   force =    -0.01482981   -0.00519511    0.01566832
     atom   54 type  1   force =     0.00641832   -0.00538187    0.01157593
     atom   55 type  1   force =    -0.00056910    0.06487392   -0.02678377
     atom   56 type  1   force =     0.00842777   -0.00589235    0.03718082
     atom   57 type  1   force =     0.00094376    0.00267386   -0.01221291
     atom   58 type  1   force =     0.03390060   -0.02266694   -0.01542693
     atom   59 type  1   force =     0.00914747    0.03798620    0.01604243
     atom   60 type  1   force =     0.02095603   -0.00769125   -0.00574513
     atom   61 type  1   force =     0.00118867    0.00473857    0.00735006
     atom   62 type  1   force =     0.01294466    0.00495134   -0.01482498
     atom   63 type  1   force =    -0.01109141   -0.01561405    0.01299014
     atom   64 type  1   force =    -0.02456999    0.00107501   -0.01592328

     Total force =     0.295277     Total SCF correction =     0.000837


     Computing stress (Cartesian axis) and pressure

          total   stress  (Ry/bohr**3)                   (kbar)     P=      -39.38
  -0.00031119   0.00002414   0.00005810          -45.78        3.55        8.55
   0.00002414  -0.00023956  -0.00003964            3.55      -35.24       -5.83
   0.00005810  -0.00003964  -0.00025227            8.55       -5.83      -37.11

 
     init_run     :      0.90s CPU      4.39s WALL (       1 calls)
     electrons    :      1.71s CPU      1.91s WALL (       1 calls)
     forces       :      0.03s CPU      0.03s WALL (       1 calls)
     stress       :      0.14s CPU      0.14s WALL (       1 calls)

     Called by init_run:
     wfcinit      :      0.40s CPU      3.72s WALL (       1 calls)
                                        3.72s GPU  (       1 calls)
     potinit      :      0.04s CPU      0.13s WALL (       1 calls)
     hinit0       :      0.45s CPU      0.48s WALL (       1 calls)

     Called by electrons:
     c_bands      :      1.09s CPU      1.21s WALL (      20 calls)
     sum_band     :      0.32s CPU      0.36s WALL (      20 calls)
     v_of_rho     :      0.14s CPU      0.22s WALL (      20 calls)
     mix_rho      :      0.14s CPU      0.16s WALL (      20 calls)

     Called by c_bands:
     init_us_2    :      0.05s CPU      0.06s WALL (      41 calls)
     init_us_2:gp :      0.05s CPU      0.05s WALL (      41 calls)
     regterg      :      0.95s CPU      1.06s WALL (      20 calls)

     Called by *egterg:
     rdiaghg      :      0.39s CPU      1.20s WALL (      87 calls)
                                        1.19s GPU  (      87 calls)
     h_psi        :      0.79s CPU      3.37s WALL (      89 calls)
                                        3.36s GPU  (      89 calls)
     g_psi        :      0.00s CPU      0.00s WALL (      68 calls)
                                        0.00s GPU  (      68 calls)

     Called by h_psi:
     h_psi:calbec :      0.39s CPU      2.89s WALL (      89 calls)
                                        2.89s GPU  (      89 calls)
     vloc_psi     :      0.36s CPU      0.42s WALL (      89 calls)
                                        0.42s GPU  (      89 calls)
     add_vuspsi   :      0.03s CPU      0.04s WALL (      89 calls)
                                        0.04s GPU  (      89 calls)

     General routines
     calbec       :      0.39s CPU      2.89s WALL (      94 calls)
     fft          :      0.56s CPU      0.66s WALL (     167 calls)
                                        0.11s GPU  (     106 calls)
     ffts         :      0.03s CPU      0.04s WALL (      20 calls)
     fftw         :      0.44s CPU      0.58s WALL (    2102 calls)
                                        0.51s GPU  (    2102 calls)
 
     Parallel routines
 
     PWSCF        :      2.82s CPU      6.55s WALL

 
   This run was terminated on:  10:52:53  10May2023            

=------------------------------------------------------------------------------=
   JOB DONE.
=------------------------------------------------------------------------------=
