An instance of this daemon is already running
An instance of this daemon is already running

     Program PWSCF v.7.1 starts on 10May2023 at 10:41:22 

     This program is part of the open-source Quantum ESPRESSO suite
     for quantum simulation of materials; please cite
         "P. Giannozzi et al., J. Phys.:Condens. Matter 21 395502 (2009);
         "P. Giannozzi et al., J. Phys.:Condens. Matter 29 465901 (2017);
         "P. Giannozzi et al., J. Chem. Phys. 152 154105 (2020);
          URL http://www.quantum-espresso.org", 
     in publications or presentations arising from this work. More details at
     http://www.quantum-espresso.org/quote

     Parallel version (MPI & OpenMP), running on       4 processor cores
     Number of MPI processes:                 4
     Threads/MPI process:                     1

     MPI processes distributed on     1 nodes
     153237 MiB available memory on the printing compute node when the environment starts
 
     Reading input from pw-si-5.in
Warning: card &CELL ignored
Warning: card / ignored

     Current dimensions of program PWSCF are:
     Max number of different atomic species (ntypx) = 10
     Max number of k-points (npk) =  40000
     Max angular momentum in pseudopotentials (lmaxx) =  4

     IMPORTANT: XC functional enforced from input :
     Exchange-correlation= PBE
                           (   1   4   3   4   0   0   0)
     Any further DFT definition will be discarded
     Please, verify this is what you really want


     gamma-point specific algorithms are used
 
     K-points division:     npool     =       2
     R & G space division:  proc/nbgrp/npool/nimage =       2
     Subspace diagonalization in iterative solution of the eigenvalue problem:
     a serial algorithm will be used

     Message from routine divide_et_impera:
     suboptimal parallelization: some nodes have no k-points
 
     Parallelization info
     --------------------
     sticks:   dense  smooth     PW     G-vecs:    dense   smooth      PW
     Min        1934    1934    515                90353    90353   12286
     Max        1935    1935    518                90354    90354   12287
     Sum        3869    3869   1033               180707   180707   24573
 
     Using Slab Decomposition
 


     bravais-lattice index     =            0
     lattice parameter (alat)  =      20.1131  a.u.
     unit-cell volume          =    8136.4403 (a.u.)^3
     number of atoms/cell      =           64
     number of atomic types    =            1
     number of electrons       =       256.00
     number of Kohn-Sham states=          154
     kinetic-energy cutoff     =      30.0000  Ry
     charge density cutoff     =     120.0000  Ry
     scf convergence threshold =      1.0E-06
     mixing beta               =       0.5000
     number of iterations used =            8  plain     mixing
     Exchange-correlation= PBE
                           (   1   4   3   4   0   0   0)

     GPU acceleration is ACTIVE.
     GPU-aware MPI enabled

     Message from routine print_cuda_info:
     High GPU oversubscription detected. Are you sure this is what you want?

     celldm(1)=  20.113060  celldm(2)=   0.000000  celldm(3)=   0.000000
     celldm(4)=   0.000000  celldm(5)=   0.000000  celldm(6)=   0.000000

     crystal axes: (cart. coord. in units of alat)
               a(1) = (   1.000000   0.000000   0.000000 )  
               a(2) = (   0.000000   1.000000   0.000000 )  
               a(3) = (   0.000000   0.000000   1.000000 )  

     reciprocal axes: (cart. coord. in units 2 pi/alat)
               b(1) = (  1.000000  0.000000  0.000000 )  
               b(2) = (  0.000000  1.000000  0.000000 )  
               b(3) = (  0.000000  0.000000  1.000000 )  


     PseudoPot. # 1 for Si read from file:
     /home/ppiaggi/pseudos/Si_ONCV_PBE_sr.upf
     MD5 check sum: 8553c464762ac42b85b1eed164b4d029
     Pseudo is Norm-conserving, Zval =  4.0
     Generated using ONCVPSP code by D. R. Hamann
     Using radial grid of 1510 points,  4 beta functions with: 
                l(1) =   0
                l(2) =   0
                l(3) =   1
                l(4) =   1

     atomic species   valence    mass     pseudopotential
        Si             4.00    28.08500     Si( 1.00)

     No symmetry found



   Cartesian axes

     site n.     atom                  positions (alat units)
         1           Si  tau(   1) = (   0.2044640   0.5069450   0.4779580  )
         2           Si  tau(   2) = (   0.1725880   0.0270329   0.4806560  )
         3           Si  tau(   3) = (   0.8831010   0.8137340   0.3318220  )
         4           Si  tau(   4) = (   0.4180090   0.2461080   0.0076330  )
         5           Si  tau(   5) = (   0.6205820   0.8202370   0.0136575  )
         6           Si  tau(   6) = (   0.4579620   0.4254010   0.6016480  )
         7           Si  tau(   7) = (   0.8630270   0.2121690   0.1007240  )
         8           Si  tau(   8) = (   0.8595650   0.6960930   0.1236930  )
         9           Si  tau(   9) = (   0.5059480   0.0178862   0.4612260  )
        10           Si  tau(  10) = (   0.3545120   0.9007010   0.8519930  )
        11           Si  tau(  11) = (   0.1434860   0.4199860   0.8727440  )
        12           Si  tau(  12) = (   0.9167090   0.0884758   0.6775750  )
        13           Si  tau(  13) = (   0.1984960   0.2383170   0.0393679  )
        14           Si  tau(  14) = (   0.6791140   0.2737990   0.7085500  )
        15           Si  tau(  15) = (   0.6633930   0.0414337   0.7472970  )
        16           Si  tau(  16) = (   0.3904140   0.6769210   0.4981310  )
        17           Si  tau(  17) = (   0.6300210   0.3211430   0.1531600  )
        18           Si  tau(  18) = (   0.9550740   0.4566800   0.4569660  )
        19           Si  tau(  19) = (   0.0435210   0.2156740   0.5602620  )
        20           Si  tau(  20) = (   0.5549070   0.1068010   0.2190020  )
        21           Si  tau(  21) = (   0.2695100   0.6238620   0.8620330  )
        22           Si  tau(  22) = (   0.1350600   0.6091340   0.1032470  )
        23           Si  tau(  23) = (   0.0368575   0.6202390   0.3136950  )
        24           Si  tau(  24) = (   0.3417770   0.7585070   0.0746868  )
        25           Si  tau(  25) = (   0.3267600   0.0128489   0.6490390  )
        26           Si  tau(  26) = (   0.4010920   0.2122860   0.7152210  )
        27           Si  tau(  27) = (   0.2365240   0.3826370   0.2826080  )
        28           Si  tau(  28) = (   0.0110327   0.3734820   0.1723740  )
        29           Si  tau(  29) = (   0.5818390   0.8654910   0.5855220  )
        30           Si  tau(  30) = (   0.7181790   0.1513050   0.4903910  )
        31           Si  tau(  31) = (   0.4373770   0.4785870   0.8457920  )
        32           Si  tau(  32) = (   0.0920381   0.9146360   0.7061080  )
        33           Si  tau(  33) = (   0.3575310   0.2161250   0.4389390  )
        34           Si  tau(  34) = (   0.9264670   0.5122020   0.9733470  )
        35           Si  tau(  35) = (   0.8476010   0.9230840   0.9283680  )
        36           Si  tau(  36) = (   0.8372120   0.3177110   0.8794400  )
        37           Si  tau(  37) = (   0.7520990   0.9779990   0.1658460  )
        38           Si  tau(  38) = (   0.0226770   0.7801760   0.9514440  )
        39           Si  tau(  39) = (   0.1480550   0.6718710   0.6683630  )
        40           Si  tau(  40) = (   0.6489390   0.5657890   0.6074510  )
        41           Si  tau(  41) = (   0.1993830   0.3289090   0.6802350  )
        42           Si  tau(  42) = (   0.1561780   0.9110270   0.1550240  )
        43           Si  tau(  43) = (   0.5924720   0.3063390   0.4058660  )
        44           Si  tau(  44) = (   0.7797020   0.5005580   0.2727070  )
        45           Si  tau(  45) = (   0.4529280   0.7669810   0.7289040  )
        46           Si  tau(  46) = (   0.3188950   0.4755160   0.0935891  )
        47           Si  tau(  47) = (   0.5453480   0.6002980   0.0927409  )
        48           Si  tau(  48) = (   0.9955270   0.9996990   0.2762440  )
        49           Si  tau(  49) = (   0.6603890   0.4979480   0.9570180  )
        50           Si  tau(  50) = (   0.1321630   0.8062890   0.4423880  )
        51           Si  tau(  51) = (   0.1610680   0.0143090   0.9278840  )
        52           Si  tau(  52) = (   0.8924190   0.2428600   0.3674460  )
        53           Si  tau(  53) = (   0.9476070   0.1103540   0.8899570  )
        54           Si  tau(  54) = (   0.6339820   0.6828360   0.8021220  )
        55           Si  tau(  55) = (   0.5156560   0.0471303   0.9420840  )
        56           Si  tau(  56) = (   0.3196130   0.0975944   0.2261320  )
        57           Si  tau(  57) = (   0.8432800   0.7817570   0.7256380  )
        58           Si  tau(  58) = (   0.8313880   0.4519940   0.6361050  )
        59           Si  tau(  59) = (   0.4965900   0.5040510   0.3279090  )
        60           Si  tau(  60) = (   0.9364750   0.5989720   0.7370850  )
        61           Si  tau(  61) = (   0.8286740   0.8891660   0.5522030  )
        62           Si  tau(  62) = (   0.5415520   0.8487810   0.2566060  )
        63           Si  tau(  63) = (   0.6643390   0.6849840   0.4042370  )
        64           Si  tau(  64) = (   0.3430820   0.8370560   0.3197860  )

     number of k points=     1  Fermi-Dirac smearing, width (Ry)=  0.0100
                       cart. coord. in units 2pi/alat
        k(    1) = (   0.0000000   0.0000000   0.0000000), wk =   2.0000000

     Dense  grid:    90354 G-vectors     FFT dimensions: (  72,  72,  72)

     Estimated max dynamical RAM per process >     145.03 MB

     Estimated total dynamical RAM >     558.06 MB

     Initial potential from superposition of free atoms

     starting charge     255.9608, renormalised to     256.0000
     Starting wfcs are  256 randomized atomic wfcs

     total cpu time spent up to now is        4.5 secs

     Self-consistent Calculation

     iteration #  1     ecut=    30.00 Ry     beta= 0.50
     Davidson diagonalization with overlap
     ethr =  1.00E-02,  avg # of iterations =  3.0

     Threshold (ethr) on eigenvalues was too large:
     Diagonalizing with lowered threshold

     Davidson diagonalization with overlap
     ethr =  4.02E-04,  avg # of iterations =  4.0

     total cpu time spent up to now is        4.7 secs

     total energy              =    -500.93824826 Ry
     estimated scf accuracy    <       1.26919643 Ry

     iteration #  2     ecut=    30.00 Ry     beta= 0.50
     Davidson diagonalization with overlap
     ethr =  4.96E-04,  avg # of iterations =  4.0

     total cpu time spent up to now is        4.8 secs

     total energy              =    -500.23394503 Ry
     estimated scf accuracy    <       9.81056069 Ry

     iteration #  3     ecut=    30.00 Ry     beta= 0.50
     Davidson diagonalization with overlap
     ethr =  4.96E-04,  avg # of iterations =  5.0

     total cpu time spent up to now is        4.9 secs

     total energy              =    -501.10337812 Ry
     estimated scf accuracy    <       1.57692728 Ry

     iteration #  4     ecut=    30.00 Ry     beta= 0.50
     Davidson diagonalization with overlap
     ethr =  4.96E-04,  avg # of iterations =  2.0

     total cpu time spent up to now is        5.0 secs

     total energy              =    -501.20260313 Ry
     estimated scf accuracy    <       0.59658841 Ry

     iteration #  5     ecut=    30.00 Ry     beta= 0.50
     Davidson diagonalization with overlap
     ethr =  2.33E-04,  avg # of iterations =  2.0

     total cpu time spent up to now is        5.1 secs

     total energy              =    -501.22105859 Ry
     estimated scf accuracy    <       0.62968526 Ry

     iteration #  6     ecut=    30.00 Ry     beta= 0.50
     Davidson diagonalization with overlap
     ethr =  2.33E-04,  avg # of iterations =  1.0

     total cpu time spent up to now is        5.2 secs

     total energy              =    -501.27339112 Ry
     estimated scf accuracy    <       0.07060081 Ry

     iteration #  7     ecut=    30.00 Ry     beta= 0.50
     Davidson diagonalization with overlap
     ethr =  2.76E-05,  avg # of iterations = 10.0

     total cpu time spent up to now is        5.3 secs

     total energy              =    -501.28304437 Ry
     estimated scf accuracy    <       0.01635927 Ry

     iteration #  8     ecut=    30.00 Ry     beta= 0.50
     Davidson diagonalization with overlap
     ethr =  6.39E-06,  avg # of iterations = 10.0

     total cpu time spent up to now is        5.5 secs

     total energy              =    -501.28432739 Ry
     estimated scf accuracy    <       0.02288057 Ry

     iteration #  9     ecut=    30.00 Ry     beta= 0.50
     Davidson diagonalization with overlap
     ethr =  6.39E-06,  avg # of iterations =  2.0

     total cpu time spent up to now is        5.6 secs

     total energy              =    -501.28609314 Ry
     estimated scf accuracy    <       0.00246807 Ry

     iteration # 10     ecut=    30.00 Ry     beta= 0.50
     Davidson diagonalization with overlap
     ethr =  9.64E-07,  avg # of iterations =  4.0

     total cpu time spent up to now is        5.6 secs

     total energy              =    -501.28633712 Ry
     estimated scf accuracy    <       0.00197972 Ry

     iteration # 11     ecut=    30.00 Ry     beta= 0.50
     Davidson diagonalization with overlap
     ethr =  7.73E-07,  avg # of iterations =  2.0

     total cpu time spent up to now is        5.7 secs

     total energy              =    -501.28645898 Ry
     estimated scf accuracy    <       0.00074114 Ry

     iteration # 12     ecut=    30.00 Ry     beta= 0.50
     Davidson diagonalization with overlap
     ethr =  2.90E-07,  avg # of iterations =  2.0

     total cpu time spent up to now is        5.8 secs

     total energy              =    -501.28653652 Ry
     estimated scf accuracy    <       0.00023041 Ry

     iteration # 13     ecut=    30.00 Ry     beta= 0.50
     Davidson diagonalization with overlap
     ethr =  9.00E-08,  avg # of iterations =  3.0

     total cpu time spent up to now is        5.9 secs

     total energy              =    -501.28655492 Ry
     estimated scf accuracy    <       0.00019230 Ry

     iteration # 14     ecut=    30.00 Ry     beta= 0.50
     Davidson diagonalization with overlap
     ethr =  7.51E-08,  avg # of iterations =  2.0

     total cpu time spent up to now is        6.0 secs

     total energy              =    -501.28656566 Ry
     estimated scf accuracy    <       0.00002771 Ry

     iteration # 15     ecut=    30.00 Ry     beta= 0.50
     Davidson diagonalization with overlap
     ethr =  1.08E-08,  avg # of iterations =  3.0

     total cpu time spent up to now is        6.1 secs

     total energy              =    -501.28656985 Ry
     estimated scf accuracy    <       0.00002380 Ry

     iteration # 16     ecut=    30.00 Ry     beta= 0.50
     Davidson diagonalization with overlap
     ethr =  9.30E-09,  avg # of iterations =  2.0

     total cpu time spent up to now is        6.2 secs

     total energy              =    -501.28657132 Ry
     estimated scf accuracy    <       0.00000655 Ry

     iteration # 17     ecut=    30.00 Ry     beta= 0.50
     Davidson diagonalization with overlap
     ethr =  2.56E-09,  avg # of iterations =  2.0

     total cpu time spent up to now is        6.2 secs

     total energy              =    -501.28657196 Ry
     estimated scf accuracy    <       0.00000234 Ry

     iteration # 18     ecut=    30.00 Ry     beta= 0.50
     Davidson diagonalization with overlap
     ethr =  9.13E-10,  avg # of iterations =  2.0

     total cpu time spent up to now is        6.3 secs

     total energy              =    -501.28657211 Ry
     estimated scf accuracy    <       0.00000168 Ry

     iteration # 19     ecut=    30.00 Ry     beta= 0.50
     Davidson diagonalization with overlap
     ethr =  6.54E-10,  avg # of iterations =  2.0

     total cpu time spent up to now is        6.4 secs

     End of self-consistent calculation

          k = 0.0000 0.0000 0.0000 ( 11324 PWs)   bands (ev):

    -5.2944  -4.3691  -4.2690  -4.1679  -4.0721  -3.9304  -3.8567  -3.3111
    -3.2086  -3.1184  -3.0049  -2.9619  -2.9077  -2.8727  -2.8280  -2.7336
    -2.6510  -2.4431  -2.4222  -1.9937  -1.9381  -1.8403  -1.7514  -1.6826
    -1.5256  -1.3098  -1.2130  -0.9171  -0.6789  -0.6387  -0.5437  -0.3899
    -0.2033  -0.0921   0.0088   0.1635   0.2588   0.2933   0.3890   0.4179
     0.5236   0.5680   0.6263   0.6661   0.6866   0.8163   0.9139   0.9739
     1.0545   1.1103   1.2459   1.2687   1.3453   1.5811   1.5873   1.6960
     1.8061   1.9251   2.0090   2.0964   2.1609   2.2798   2.3991   2.4386
     2.5102   2.5863   2.6886   2.7536   2.7921   2.8727   3.0252   3.0826
     3.1267   3.1948   3.3010   3.3646   3.3976   3.4903   3.5745   3.7283
     3.8556   4.2601   4.3308   4.4485   4.4906   4.5805   4.6192   4.7982
     4.8235   4.8574   4.9795   5.0484   5.0821   5.1921   5.2414   5.3127
     5.4107   5.4486   5.4728   5.5512   5.6452   5.6562   5.7146   5.8430
     5.8684   5.9098   5.9473   5.9597   6.0387   6.0569   6.1397   6.2015
     6.2300   6.3053   6.3664   6.3754   6.4384   6.5133   6.5652   6.6088
     6.6482   6.7151   6.7751   6.8150   6.9206   7.0015   7.0723   7.1243
     7.1561   7.2513   7.2802   7.3403   7.3740   7.4229   7.5113   7.5721
     7.6198   7.7245   7.7631   7.8438   7.9192   7.9655   8.0169   8.1457
     8.1713   8.1790   8.2384   8.3416   8.3764   8.4110   8.4856   8.5524
     8.6579   8.6673

     the Fermi energy is     7.1342 ev

!    total energy              =    -501.28657192 Ry
     estimated scf accuracy    <       0.00000044 Ry
     smearing contrib. (-TS)   =      -0.14921131 Ry
     internal energy E=F+TS    =    -501.13736061 Ry

     The total energy is F=E-TS. E is the sum of the following terms:
     one-electron contribution =     194.91411977 Ry
     hartree contribution      =      20.94839411 Ry
     xc contribution           =    -150.33429579 Ry
     ewald contribution        =    -566.66557870 Ry

     convergence has been achieved in  19 iterations

     Forces acting on atoms (cartesian axes, Ry/au):

     atom    1 type  1   force =     0.00671602    0.00865138    0.02726951
     atom    2 type  1   force =    -0.00552131    0.04674735   -0.00402788
     atom    3 type  1   force =    -0.00144928   -0.01808536    0.01011776
     atom    4 type  1   force =     0.01680628    0.02113012    0.00074650
     atom    5 type  1   force =     0.02208386    0.02022846    0.01581661
     atom    6 type  1   force =     0.00801950   -0.00727399    0.02505997
     atom    7 type  1   force =    -0.02023739   -0.00820707    0.00983053
     atom    8 type  1   force =    -0.00168773   -0.01658012    0.01024900
     atom    9 type  1   force =    -0.02004978    0.03391070   -0.04381533
     atom   10 type  1   force =    -0.02255279    0.05957217    0.06890672
     atom   11 type  1   force =    -0.01431521    0.02309422    0.02590950
     atom   12 type  1   force =    -0.02747753   -0.05072144   -0.02284700
     atom   13 type  1   force =    -0.00775208   -0.01123676   -0.00062931
     atom   14 type  1   force =     0.01100134   -0.01748062   -0.01394102
     atom   15 type  1   force =     0.00887174    0.01247652    0.02624941
     atom   16 type  1   force =    -0.00808592   -0.02808334   -0.00386925
     atom   17 type  1   force =     0.02076165    0.00814123    0.00559382
     atom   18 type  1   force =    -0.00133340   -0.03168718   -0.03015801
     atom   19 type  1   force =     0.02633912   -0.00533305   -0.03425414
     atom   20 type  1   force =     0.00625161   -0.00589107    0.00469147
     atom   21 type  1   force =    -0.01387876    0.00301185    0.00743095
     atom   22 type  1   force =    -0.01584729    0.01087180   -0.00743340
     atom   23 type  1   force =    -0.00874254    0.02324207   -0.01376447
     atom   24 type  1   force =    -0.00117570   -0.01272393   -0.00250101
     atom   25 type  1   force =     0.00994797   -0.00216539   -0.02783416
     atom   26 type  1   force =    -0.01552574    0.04412406   -0.00461722
     atom   27 type  1   force =     0.00276860   -0.00898040    0.00686994
     atom   28 type  1   force =     0.00865633    0.00244412   -0.00316937
     atom   29 type  1   force =     0.06364043    0.00262888    0.00640309
     atom   30 type  1   force =    -0.00626230   -0.01051311    0.02596034
     atom   31 type  1   force =     0.02587633   -0.02718788   -0.00805586
     atom   32 type  1   force =    -0.02642693   -0.01122941    0.00667992
     atom   33 type  1   force =     0.00774247   -0.01243327   -0.02291302
     atom   34 type  1   force =     0.04099190    0.00301561   -0.00545859
     atom   35 type  1   force =    -0.05826621   -0.03961182   -0.00511536
     atom   36 type  1   force =    -0.03199914    0.00149969    0.00347434
     atom   37 type  1   force =    -0.00945550   -0.00312565   -0.02730068
     atom   38 type  1   force =     0.01740093   -0.00400665    0.00743043
     atom   39 type  1   force =    -0.01922889    0.01278487   -0.00200657
     atom   40 type  1   force =    -0.02772373    0.01069584   -0.00834512
     atom   41 type  1   force =     0.00752402   -0.01141121   -0.03609315
     atom   42 type  1   force =     0.04787273   -0.00574352   -0.03240042
     atom   43 type  1   force =    -0.04697376    0.02408794   -0.02942157
     atom   44 type  1   force =    -0.00822644    0.00951671   -0.00027882
     atom   45 type  1   force =    -0.01502862   -0.05825101   -0.05414000
     atom   46 type  1   force =     0.02694409   -0.00596805   -0.00030818
     atom   47 type  1   force =    -0.08348703    0.05037136    0.08646406
     atom   48 type  1   force =    -0.00046400    0.01780100    0.02162526
     atom   49 type  1   force =     0.02738734   -0.04156867   -0.08464911
     atom   50 type  1   force =     0.00511149   -0.01627993   -0.00563510
     atom   51 type  1   force =    -0.02291882    0.00025767    0.01493982
     atom   52 type  1   force =     0.02969990    0.02148710    0.00174985
     atom   53 type  1   force =     0.03327099    0.01242367    0.02143369
     atom   54 type  1   force =     0.05594631   -0.02317104    0.02699588
     atom   55 type  1   force =     0.01374006   -0.02468149   -0.02481967
     atom   56 type  1   force =    -0.01253819   -0.00139958    0.01421018
     atom   57 type  1   force =    -0.04187093    0.02912261    0.10209979
     atom   58 type  1   force =    -0.02832508   -0.05795758   -0.01115028
     atom   59 type  1   force =     0.02079671    0.01141715   -0.01872645
     atom   60 type  1   force =     0.09755387   -0.01109506    0.06754844
     atom   61 type  1   force =    -0.02778682    0.06188800   -0.06045733
     atom   62 type  1   force =     0.07010659    0.00317009   -0.02270171
     atom   63 type  1   force =    -0.00694618   -0.00913944   -0.00614806
     atom   64 type  1   force =    -0.08026916    0.00940982    0.02722987

     Total force =     0.402970     Total SCF correction =     0.001313


     Computing stress (Cartesian axis) and pressure

          total   stress  (Ry/bohr**3)                   (kbar)     P=      -37.56
  -0.00024122  -0.00004967  -0.00000905          -35.49       -7.31       -1.33
  -0.00004967  -0.00022226  -0.00000770           -7.31      -32.70       -1.13
  -0.00000905  -0.00000770  -0.00030252           -1.33       -1.13      -44.50

 
     init_run     :      1.11s CPU      4.46s WALL (       1 calls)
     electrons    :      1.71s CPU      1.88s WALL (       1 calls)
     forces       :      0.03s CPU      0.03s WALL (       1 calls)
     stress       :      0.13s CPU      0.14s WALL (       1 calls)

     Called by init_run:
     wfcinit      :      0.60s CPU      3.77s WALL (       1 calls)
                                        3.77s GPU  (       1 calls)
     potinit      :      0.04s CPU      0.15s WALL (       1 calls)
     hinit0       :      0.45s CPU      0.47s WALL (       1 calls)

     Called by electrons:
     c_bands      :      1.09s CPU      1.18s WALL (      20 calls)
     sum_band     :      0.31s CPU      0.36s WALL (      20 calls)
     v_of_rho     :      0.14s CPU      0.25s WALL (      20 calls)
     mix_rho      :      0.14s CPU      0.16s WALL (      20 calls)

     Called by c_bands:
     init_us_2    :      0.05s CPU      0.05s WALL (      41 calls)
     init_us_2:gp :      0.05s CPU      0.05s WALL (      41 calls)
     regterg      :      0.94s CPU      1.03s WALL (      20 calls)

     Called by *egterg:
     rdiaghg      :      0.40s CPU      1.03s WALL (      86 calls)
                                        1.01s GPU  (      86 calls)
     h_psi        :      0.98s CPU      3.56s WALL (      88 calls)
                                        3.56s GPU  (      88 calls)
     g_psi        :      0.00s CPU      0.00s WALL (      67 calls)
                                        0.00s GPU  (      67 calls)

     Called by h_psi:
     h_psi:calbec :      0.57s CPU      3.05s WALL (      88 calls)
                                        3.05s GPU  (      88 calls)
     vloc_psi     :      0.36s CPU      0.46s WALL (      88 calls)
                                        0.46s GPU  (      88 calls)
     add_vuspsi   :      0.03s CPU      0.05s WALL (      88 calls)
                                        0.05s GPU  (      88 calls)

     General routines
     calbec       :      0.57s CPU      3.05s WALL (      93 calls)
     fft          :      0.56s CPU      0.69s WALL (     167 calls)
                                        0.14s GPU  (     106 calls)
     ffts         :      0.03s CPU      0.03s WALL (      20 calls)
     fftw         :      0.44s CPU      0.61s WALL (    2102 calls)
                                        0.54s GPU  (    2102 calls)
 
     Parallel routines
 
     PWSCF        :      3.01s CPU      6.59s WALL

 
   This run was terminated on:  10:41:28  10May2023            

=------------------------------------------------------------------------------=
   JOB DONE.
=------------------------------------------------------------------------------=
