An instance of this daemon is already running
An instance of this daemon is already running

     Program PWSCF v.7.1 starts on 10May2023 at 10:46: 7 

     This program is part of the open-source Quantum ESPRESSO suite
     for quantum simulation of materials; please cite
         "P. Giannozzi et al., J. Phys.:Condens. Matter 21 395502 (2009);
         "P. Giannozzi et al., J. Phys.:Condens. Matter 29 465901 (2017);
         "P. Giannozzi et al., J. Chem. Phys. 152 154105 (2020);
          URL http://www.quantum-espresso.org", 
     in publications or presentations arising from this work. More details at
     http://www.quantum-espresso.org/quote

     Parallel version (MPI & OpenMP), running on       4 processor cores
     Number of MPI processes:                 4
     Threads/MPI process:                     1

     MPI processes distributed on     1 nodes
     153208 MiB available memory on the printing compute node when the environment starts
 
     Reading input from pw-si-37.in
Warning: card &CELL ignored
Warning: card / ignored

     Current dimensions of program PWSCF are:
     Max number of different atomic species (ntypx) = 10
     Max number of k-points (npk) =  40000
     Max angular momentum in pseudopotentials (lmaxx) =  4

     IMPORTANT: XC functional enforced from input :
     Exchange-correlation= PBE
                           (   1   4   3   4   0   0   0)
     Any further DFT definition will be discarded
     Please, verify this is what you really want


     gamma-point specific algorithms are used
 
     K-points division:     npool     =       2
     R & G space division:  proc/nbgrp/npool/nimage =       2
     Subspace diagonalization in iterative solution of the eigenvalue problem:
     a serial algorithm will be used

     Message from routine divide_et_impera:
     suboptimal parallelization: some nodes have no k-points
 
     Parallelization info
     --------------------
     sticks:   dense  smooth     PW     G-vecs:    dense   smooth      PW
     Min        1929    1929    504                90087    90087   12201
     Max        1932    1932    505                90092    90092   12204
     Sum        3861    3861   1009               180179   180179   24405
 
     Using Slab Decomposition
 


     bravais-lattice index     =            0
     lattice parameter (alat)  =      20.0922  a.u.
     unit-cell volume          =    8111.1782 (a.u.)^3
     number of atoms/cell      =           64
     number of atomic types    =            1
     number of electrons       =       256.00
     number of Kohn-Sham states=          154
     kinetic-energy cutoff     =      30.0000  Ry
     charge density cutoff     =     120.0000  Ry
     scf convergence threshold =      1.0E-06
     mixing beta               =       0.5000
     number of iterations used =            8  plain     mixing
     Exchange-correlation= PBE
                           (   1   4   3   4   0   0   0)

     GPU acceleration is ACTIVE.
     GPU-aware MPI enabled

     Message from routine print_cuda_info:
     High GPU oversubscription detected. Are you sure this is what you want?

     celldm(1)=  20.092223  celldm(2)=   0.000000  celldm(3)=   0.000000
     celldm(4)=   0.000000  celldm(5)=   0.000000  celldm(6)=   0.000000

     crystal axes: (cart. coord. in units of alat)
               a(1) = (   1.000000   0.000000   0.000000 )  
               a(2) = (   0.000000   1.000000   0.000000 )  
               a(3) = (   0.000000   0.000000   1.000000 )  

     reciprocal axes: (cart. coord. in units 2 pi/alat)
               b(1) = (  1.000000  0.000000  0.000000 )  
               b(2) = (  0.000000  1.000000  0.000000 )  
               b(3) = (  0.000000  0.000000  1.000000 )  


     PseudoPot. # 1 for Si read from file:
     /home/ppiaggi/pseudos/Si_ONCV_PBE_sr.upf
     MD5 check sum: 8553c464762ac42b85b1eed164b4d029
     Pseudo is Norm-conserving, Zval =  4.0
     Generated using ONCVPSP code by D. R. Hamann
     Using radial grid of 1510 points,  4 beta functions with: 
                l(1) =   0
                l(2) =   0
                l(3) =   1
                l(4) =   1

     atomic species   valence    mass     pseudopotential
        Si             4.00    28.08500     Si( 1.00)

     No symmetry found



   Cartesian axes

     site n.     atom                  positions (alat units)
         1           Si  tau(   1) = (   0.0101714   0.1871610   0.2083020  )
         2           Si  tau(   2) = (   0.8939090   0.1395660   0.4163290  )
         3           Si  tau(   3) = (   0.7940300   0.4848760   0.0532569  )
         4           Si  tau(   4) = (   0.4809810   0.3692840   0.6582700  )
         5           Si  tau(   5) = (   0.8255440   0.7460910   0.6919320  )
         6           Si  tau(   6) = (   0.9940660   0.8608710   0.0573604  )
         7           Si  tau(   7) = (   0.5493530   0.3855330   0.1341080  )
         8           Si  tau(   8) = (   0.6751210   0.5748760   0.6528850  )
         9           Si  tau(   9) = (   0.4099940   0.6091780   0.6020530  )
        10           Si  tau(  10) = (   0.0276235   0.7551090   0.7018780  )
        11           Si  tau(  11) = (   0.8196950   0.6956840   0.1757150  )
        12           Si  tau(  12) = (   0.3615520   0.2499570   0.2077140  )
        13           Si  tau(  13) = (   0.7649400   0.7975220   0.9542370  )
        14           Si  tau(  14) = (   0.5151060   0.8157970   0.0024950  )
        15           Si  tau(  15) = (   0.2465370   0.6063120   0.1671350  )
        16           Si  tau(  16) = (   0.5537790   0.6223790   0.1700890  )
        17           Si  tau(  17) = (   0.0486178   0.6767910   0.9276230  )
        18           Si  tau(  18) = (   0.5627390   0.3775360   0.4128540  )
        19           Si  tau(  19) = (   0.7717800   0.9776040   0.8103720  )
        20           Si  tau(  20) = (   0.7685390   0.2509740   0.1673980  )
        21           Si  tau(  21) = (   0.0975023   0.6345500   0.5395700  )
        22           Si  tau(  22) = (   0.3876300   0.1624060   0.8186030  )
        23           Si  tau(  23) = (   0.6688060   0.8692960   0.2692740  )
        24           Si  tau(  24) = (   0.3876230   0.8410510   0.2458800  )
        25           Si  tau(  25) = (   0.2874530   0.7504630   0.9720440  )
        26           Si  tau(  26) = (   0.0924406   0.3644700   0.3077160  )
        27           Si  tau(  27) = (   0.4579190   0.9589380   0.4367830  )
        28           Si  tau(  28) = (   0.0023823   0.4239400   0.9600200  )
        29           Si  tau(  29) = (   0.3275200   0.0399418   0.1151540  )
        30           Si  tau(  30) = (   0.1592830   0.0083833   0.2445040  )
        31           Si  tau(  31) = (   0.5750010   0.1429110   0.3014250  )
        32           Si  tau(  32) = (   0.2456000   0.7474480   0.4136580  )
        33           Si  tau(  33) = (   0.5758040   0.0455527   0.0896441  )
        34           Si  tau(  34) = (   0.2024610   0.4564970   0.8323570  )
        35           Si  tau(  35) = (   0.4740470   0.9419010   0.8132290  )
        36           Si  tau(  36) = (   0.2201550   0.0457792   0.4701460  )
        37           Si  tau(  37) = (   0.5702610   0.3589720   0.8740230  )
        38           Si  tau(  38) = (   0.0711483   0.2253630   0.5285250  )
        39           Si  tau(  39) = (   0.3022500   0.3257160   0.4028380  )
        40           Si  tau(  40) = (   0.2355640   0.4666610   0.5933860  )
        41           Si  tau(  41) = (   0.7965780   0.3704040   0.6449650  )
        42           Si  tau(  42) = (   0.2426710   0.9647260   0.9199430  )
        43           Si  tau(  43) = (   0.6139360   0.0332456   0.6588430  )
        44           Si  tau(  44) = (   0.0406709   0.5463150   0.2006500  )
        45           Si  tau(  45) = (   0.6519350   0.5828980   0.8999960  )
        46           Si  tau(  46) = (   0.9045050   0.2691100   0.8334150  )
        47           Si  tau(  47) = (   0.7121440   0.2104510   0.5313470  )
        48           Si  tau(  48) = (   0.3043550   0.4590690   0.0295888  )
        49           Si  tau(  49) = (   0.1337270   0.9585540   0.7009670  )
        50           Si  tau(  50) = (   0.0342510   0.7851250   0.2894130  )
        51           Si  tau(  51) = (   0.0243322   0.0662631   0.9403270  )
        52           Si  tau(  52) = (   0.9484180   0.4406740   0.4713550  )
        53           Si  tau(  53) = (   0.4159360   0.5890520   0.8362650  )
        54           Si  tau(  54) = (   0.4129810   0.1873260   0.5557990  )
        55           Si  tau(  55) = (   0.3911470   0.5512140   0.3177210  )
        56           Si  tau(  56) = (   0.7029250   0.8565850   0.5131360  )
        57           Si  tau(  57) = (   0.3556420   0.8353400   0.6305830  )
        58           Si  tau(  58) = (   0.7205510   0.1809110   0.9269310  )
        59           Si  tau(  59) = (   0.1684480   0.2386150   0.0349645  )
        60           Si  tau(  60) = (   0.7661380   0.4549370   0.3110970  )
        61           Si  tau(  61) = (   0.9407340   0.0775384   0.6852440  )
        62           Si  tau(  62) = (   0.1779420   0.2383350   0.7629890  )
        63           Si  tau(  63) = (   0.9317770   0.9263510   0.4815840  )
        64           Si  tau(  64) = (   0.6255560   0.6425370   0.4399880  )

     number of k points=     1  Fermi-Dirac smearing, width (Ry)=  0.0100
                       cart. coord. in units 2pi/alat
        k(    1) = (   0.0000000   0.0000000   0.0000000), wk =   2.0000000

     Dense  grid:    90090 G-vectors     FFT dimensions: (  72,  72,  72)

     Estimated max dynamical RAM per process >     144.62 MB

     Estimated total dynamical RAM >     556.50 MB

     Initial potential from superposition of free atoms

     starting charge     255.9608, renormalised to     256.0000
     Starting wfcs are  256 randomized atomic wfcs

     total cpu time spent up to now is        4.4 secs

     Self-consistent Calculation

     iteration #  1     ecut=    30.00 Ry     beta= 0.50
     Davidson diagonalization with overlap
     ethr =  1.00E-02,  avg # of iterations =  3.0

     Threshold (ethr) on eigenvalues was too large:
     Diagonalizing with lowered threshold

     Davidson diagonalization with overlap
     ethr =  4.01E-04,  avg # of iterations =  5.0

     total cpu time spent up to now is        4.6 secs

     total energy              =    -501.16339465 Ry
     estimated scf accuracy    <       1.25447498 Ry

     iteration #  2     ecut=    30.00 Ry     beta= 0.50
     Davidson diagonalization with overlap
     ethr =  4.90E-04,  avg # of iterations =  5.0

     total cpu time spent up to now is        4.7 secs

     total energy              =    -500.50137634 Ry
     estimated scf accuracy    <       9.38636132 Ry

     iteration #  3     ecut=    30.00 Ry     beta= 0.50
     Davidson diagonalization with overlap
     ethr =  4.90E-04,  avg # of iterations =  5.0

     total cpu time spent up to now is        4.8 secs

     total energy              =    -501.27919268 Ry
     estimated scf accuracy    <       2.02750190 Ry

     iteration #  4     ecut=    30.00 Ry     beta= 0.50
     Davidson diagonalization with overlap
     ethr =  4.90E-04,  avg # of iterations =  2.0

     total cpu time spent up to now is        4.9 secs

     total energy              =    -501.40056239 Ry
     estimated scf accuracy    <       0.76521796 Ry

     iteration #  5     ecut=    30.00 Ry     beta= 0.50
     Davidson diagonalization with overlap
     ethr =  2.99E-04,  avg # of iterations =  2.0

     total cpu time spent up to now is        5.0 secs

     total energy              =    -501.42576382 Ry
     estimated scf accuracy    <       0.86569700 Ry

     iteration #  6     ecut=    30.00 Ry     beta= 0.50
     Davidson diagonalization with overlap
     ethr =  2.99E-04,  avg # of iterations =  1.0

     total cpu time spent up to now is        5.1 secs

     total energy              =    -501.49226298 Ry
     estimated scf accuracy    <       0.04343018 Ry

     iteration #  7     ecut=    30.00 Ry     beta= 0.50
     Davidson diagonalization with overlap
     ethr =  1.70E-05,  avg # of iterations =  4.0

     total cpu time spent up to now is        5.2 secs

     total energy              =    -501.49899886 Ry
     estimated scf accuracy    <       0.04459095 Ry

     iteration #  8     ecut=    30.00 Ry     beta= 0.50
     Davidson diagonalization with overlap
     ethr =  1.70E-05,  avg # of iterations =  3.0

     total cpu time spent up to now is        5.3 secs

     total energy              =    -501.50361566 Ry
     estimated scf accuracy    <       0.01859196 Ry

     iteration #  9     ecut=    30.00 Ry     beta= 0.50
     Davidson diagonalization with overlap
     ethr =  7.26E-06,  avg # of iterations =  2.0

     total cpu time spent up to now is        5.4 secs

     total energy              =    -501.50500359 Ry
     estimated scf accuracy    <       0.00174601 Ry

     iteration # 10     ecut=    30.00 Ry     beta= 0.50
     Davidson diagonalization with overlap
     ethr =  6.82E-07,  avg # of iterations = 17.0

     total cpu time spent up to now is        5.5 secs

     total energy              =    -501.50519015 Ry
     estimated scf accuracy    <       0.00092127 Ry

     iteration # 11     ecut=    30.00 Ry     beta= 0.50
     Davidson diagonalization with overlap
     ethr =  3.60E-07,  avg # of iterations =  3.0

     total cpu time spent up to now is        5.6 secs

     total energy              =    -501.50525309 Ry
     estimated scf accuracy    <       0.00086506 Ry

     iteration # 12     ecut=    30.00 Ry     beta= 0.50
     Davidson diagonalization with overlap
     ethr =  3.38E-07,  avg # of iterations =  2.0

     total cpu time spent up to now is        5.7 secs

     total energy              =    -501.50531812 Ry
     estimated scf accuracy    <       0.00015712 Ry

     iteration # 13     ecut=    30.00 Ry     beta= 0.50
     Davidson diagonalization with overlap
     ethr =  6.14E-08,  avg # of iterations =  3.0

     total cpu time spent up to now is        5.8 secs

     total energy              =    -501.50532716 Ry
     estimated scf accuracy    <       0.00025227 Ry

     iteration # 14     ecut=    30.00 Ry     beta= 0.50
     Davidson diagonalization with overlap
     ethr =  6.14E-08,  avg # of iterations =  2.0

     total cpu time spent up to now is        5.9 secs

     total energy              =    -501.50534169 Ry
     estimated scf accuracy    <       0.00001448 Ry

     iteration # 15     ecut=    30.00 Ry     beta= 0.50
     Davidson diagonalization with overlap
     ethr =  5.66E-09,  avg # of iterations =  5.0

     total cpu time spent up to now is        6.0 secs

     total energy              =    -501.50534457 Ry
     estimated scf accuracy    <       0.00002450 Ry

     iteration # 16     ecut=    30.00 Ry     beta= 0.50
     Davidson diagonalization with overlap
     ethr =  5.66E-09,  avg # of iterations =  2.0

     total cpu time spent up to now is        6.1 secs

     total energy              =    -501.50534622 Ry
     estimated scf accuracy    <       0.00000491 Ry

     iteration # 17     ecut=    30.00 Ry     beta= 0.50
     Davidson diagonalization with overlap
     ethr =  1.92E-09,  avg # of iterations =  2.0

     total cpu time spent up to now is        6.1 secs

     total energy              =    -501.50534647 Ry
     estimated scf accuracy    <       0.00000312 Ry

     iteration # 18     ecut=    30.00 Ry     beta= 0.50
     Davidson diagonalization with overlap
     ethr =  1.22E-09,  avg # of iterations =  2.0

     total cpu time spent up to now is        6.2 secs

     End of self-consistent calculation

          k = 0.0000 0.0000 0.0000 ( 11288 PWs)   bands (ev):

    -5.3328  -4.3557  -4.2617  -4.1704  -4.0516  -3.9947  -3.9360  -3.2950
    -3.2193  -3.0749  -3.0655  -3.0149  -2.9467  -2.8802  -2.7991  -2.7621
    -2.6208  -2.3611  -2.2509  -2.0733  -1.8838  -1.7691  -1.6858  -1.6148
    -1.5081  -1.3689  -1.2893  -0.8541  -0.6883  -0.6105  -0.4808  -0.3754
    -0.2491  -0.1356   0.0059   0.1028   0.1335   0.1537   0.3108   0.3872
     0.5104   0.6068   0.6490   0.7123   0.7879   0.8675   0.9482   0.9918
     1.0498   1.0952   1.3390   1.3633   1.4172   1.4481   1.5827   1.6805
     1.7859   1.8866   1.9144   2.0041   2.1773   2.3126   2.4285   2.5158
     2.5688   2.6616   2.7228   2.7629   2.8272   2.8725   2.9714   2.9987
     3.0805   3.1843   3.2360   3.3917   3.4517   3.4769   3.6039   3.8666
     4.0057   4.3641   4.4326   4.5243   4.5533   4.6172   4.6493   4.7102
     4.8490   4.8830   5.0073   5.0226   5.0549   5.1524   5.2024   5.2535
     5.3747   5.4450   5.4677   5.5612   5.5737   5.6202   5.6544   5.7230
     5.7685   5.8285   5.9370   5.9717   6.0569   6.1118   6.1348   6.1438
     6.2350   6.2751   6.2994   6.3991   6.4339   6.5293   6.5879   6.6424
     6.7285   6.8153   6.8894   6.9589   7.0019   7.0536   7.1171   7.1498
     7.1905   7.2497   7.3039   7.4058   7.4279   7.4880   7.5230   7.6066
     7.7313   7.7822   7.8362   7.8721   7.9390   7.9508   8.0461   8.1068
     8.2149   8.2616   8.3056   8.3581   8.4190   8.4420   8.5191   8.6043
     8.7832   8.8220

     the Fermi energy is     7.1824 ev

!    total energy              =    -501.50534616 Ry
     estimated scf accuracy    <       0.00000074 Ry
     smearing contrib. (-TS)   =      -0.15623266 Ry
     internal energy E=F+TS    =    -501.34911350 Ry

     The total energy is F=E-TS. E is the sum of the following terms:
     one-electron contribution =     187.13737125 Ry
     hartree contribution      =      25.12040463 Ry
     xc contribution           =    -150.68655604 Ry
     ewald contribution        =    -562.92033334 Ry

     convergence has been achieved in  18 iterations

     Forces acting on atoms (cartesian axes, Ry/au):

     atom    1 type  1   force =    -0.02141735   -0.02458045   -0.00213240
     atom    2 type  1   force =    -0.00245604   -0.00743044   -0.00419892
     atom    3 type  1   force =     0.01224678   -0.00491546    0.03446078
     atom    4 type  1   force =     0.02030840    0.04134899    0.01076795
     atom    5 type  1   force =    -0.10957320    0.02489523   -0.00030972
     atom    6 type  1   force =    -0.02905245   -0.00017012    0.01045070
     atom    7 type  1   force =    -0.02000802    0.00543896   -0.01882090
     atom    8 type  1   force =     0.02933532   -0.04106469    0.03513879
     atom    9 type  1   force =     0.02910570    0.01292225    0.00774717
     atom   10 type  1   force =     0.08459207    0.01791813    0.05282369
     atom   11 type  1   force =    -0.00138955   -0.00588976    0.00062653
     atom   12 type  1   force =     0.03929303   -0.00164886   -0.04122116
     atom   13 type  1   force =     0.00392947   -0.00351638   -0.00660934
     atom   14 type  1   force =     0.01311525   -0.00433208    0.01426390
     atom   15 type  1   force =    -0.02150261    0.07203300   -0.03096618
     atom   16 type  1   force =     0.00360272    0.01181379   -0.00887590
     atom   17 type  1   force =     0.02873328   -0.02606776   -0.02736359
     atom   18 type  1   force =     0.00365711   -0.02255569    0.00933677
     atom   19 type  1   force =     0.02181594    0.01026224    0.00266442
     atom   20 type  1   force =    -0.00470055    0.03014089   -0.01288627
     atom   21 type  1   force =    -0.00864804   -0.06373115   -0.03620145
     atom   22 type  1   force =    -0.00466083   -0.00422471   -0.01526209
     atom   23 type  1   force =    -0.01381121   -0.02296575    0.01589349
     atom   24 type  1   force =     0.01850701    0.01402704    0.00054427
     atom   25 type  1   force =     0.00613069   -0.04842148    0.00484253
     atom   26 type  1   force =     0.00272289    0.00478613    0.03798215
     atom   27 type  1   force =    -0.00301909    0.02541876    0.00230857
     atom   28 type  1   force =     0.02182467    0.03275479    0.02381671
     atom   29 type  1   force =     0.03372594   -0.00210004   -0.01251446
     atom   30 type  1   force =    -0.03811388   -0.01224676    0.05241904
     atom   31 type  1   force =    -0.00378449    0.01323444    0.01568601
     atom   32 type  1   force =     0.01518985   -0.01426437   -0.00368719
     atom   33 type  1   force =    -0.02176399   -0.02449477    0.00106156
     atom   34 type  1   force =    -0.01276902    0.00526466   -0.02242750
     atom   35 type  1   force =    -0.02531620    0.01035399   -0.02415568
     atom   36 type  1   force =     0.00089207    0.00477156   -0.00017038
     atom   37 type  1   force =    -0.00993344   -0.02319234    0.00587473
     atom   38 type  1   force =     0.02162802    0.00986843    0.02864422
     atom   39 type  1   force =    -0.02526860    0.03462078    0.02887709
     atom   40 type  1   force =     0.01318800   -0.01869798    0.01732086
     atom   41 type  1   force =     0.02437303    0.04993815    0.02719776
     atom   42 type  1   force =    -0.00474253    0.02614277   -0.02770193
     atom   43 type  1   force =     0.00041979    0.00073133   -0.03477806
     atom   44 type  1   force =    -0.03358802    0.01610060   -0.03797185
     atom   45 type  1   force =    -0.02228259    0.00922863   -0.03290374
     atom   46 type  1   force =    -0.00646224   -0.01863044   -0.04212755
     atom   47 type  1   force =    -0.03182468   -0.02652896   -0.02180122
     atom   48 type  1   force =     0.03901076   -0.07140602   -0.02441787
     atom   49 type  1   force =     0.01463395   -0.01078574   -0.00594002
     atom   50 type  1   force =    -0.00068383    0.02738244    0.00517716
     atom   51 type  1   force =     0.00340957    0.00184667   -0.01171505
     atom   52 type  1   force =     0.00335986    0.01303219    0.00745682
     atom   53 type  1   force =    -0.00371908    0.01722670    0.00794861
     atom   54 type  1   force =    -0.00042679   -0.04038488   -0.00595381
     atom   55 type  1   force =     0.02815916   -0.00670098    0.05845691
     atom   56 type  1   force =     0.02061879    0.01611288   -0.00565180
     atom   57 type  1   force =    -0.01331726   -0.00589230   -0.01458415
     atom   58 type  1   force =    -0.01503925   -0.01103998    0.02660008
     atom   59 type  1   force =    -0.00791040    0.01793985   -0.00969639
     atom   60 type  1   force =    -0.00152423    0.01034884    0.00036327
     atom   61 type  1   force =     0.00516768   -0.00240810    0.01106870
     atom   62 type  1   force =    -0.00360319   -0.00242616   -0.01267734
     atom   63 type  1   force =    -0.01996989   -0.01323433   -0.00606035
     atom   64 type  1   force =    -0.02041427   -0.00195619    0.00396301

     Total force =     0.336206     Total SCF correction =     0.001739


     Computing stress (Cartesian axis) and pressure

          total   stress  (Ry/bohr**3)                   (kbar)     P=      -37.75
  -0.00016161   0.00002544  -0.00000946          -23.77        3.74       -1.39
   0.00002544  -0.00028695   0.00001680            3.74      -42.21        2.47
  -0.00000946   0.00001680  -0.00032128           -1.39        2.47      -47.26

 
     init_run     :      1.00s CPU      4.35s WALL (       1 calls)
     electrons    :      1.68s CPU      1.81s WALL (       1 calls)
     forces       :      0.03s CPU      0.03s WALL (       1 calls)
     stress       :      0.14s CPU      0.14s WALL (       1 calls)

     Called by init_run:
     wfcinit      :      0.49s CPU      3.70s WALL (       1 calls)
                                        3.70s GPU  (       1 calls)
     potinit      :      0.04s CPU      0.11s WALL (       1 calls)
     hinit0       :      0.45s CPU      0.47s WALL (       1 calls)

     Called by electrons:
     c_bands      :      1.09s CPU      1.16s WALL (      19 calls)
     sum_band     :      0.30s CPU      0.35s WALL (      19 calls)
     v_of_rho     :      0.13s CPU      0.21s WALL (      19 calls)
     mix_rho      :      0.13s CPU      0.15s WALL (      19 calls)

     Called by c_bands:
     init_us_2    :      0.05s CPU      0.05s WALL (      39 calls)
     init_us_2:gp :      0.05s CPU      0.05s WALL (      39 calls)
     regterg      :      0.95s CPU      1.01s WALL (      19 calls)

     Called by *egterg:
     rdiaghg      :      0.41s CPU      1.10s WALL (      88 calls)
                                        1.08s GPU  (      88 calls)
     h_psi        :      0.86s CPU      3.42s WALL (      90 calls)
                                        3.42s GPU  (      90 calls)
     g_psi        :      0.00s CPU      0.00s WALL (      70 calls)
                                        0.00s GPU  (      70 calls)

     Called by h_psi:
     h_psi:calbec :      0.46s CPU      2.96s WALL (      90 calls)
                                        2.96s GPU  (      90 calls)
     vloc_psi     :      0.35s CPU      0.41s WALL (      90 calls)
                                        0.41s GPU  (      90 calls)
     add_vuspsi   :      0.03s CPU      0.05s WALL (      90 calls)
                                        0.05s GPU  (      90 calls)

     General routines
     calbec       :      0.46s CPU      2.96s WALL (      95 calls)
     fft          :      0.56s CPU      0.65s WALL (     159 calls)
                                        0.11s GPU  (     101 calls)
     ffts         :      0.03s CPU      0.03s WALL (      19 calls)
     fftw         :      0.43s CPU      0.55s WALL (    2015 calls)
                                        0.49s GPU  (    2015 calls)
 
     Parallel routines
 
     PWSCF        :      2.88s CPU      6.40s WALL

 
   This run was terminated on:  10:46:14  10May2023            

=------------------------------------------------------------------------------=
   JOB DONE.
=------------------------------------------------------------------------------=
