An instance of this daemon is already running

     Program PWSCF v.7.1 starts on 10May2023 at 10:50:14 

     This program is part of the open-source Quantum ESPRESSO suite
     for quantum simulation of materials; please cite
         "P. Giannozzi et al., J. Phys.:Condens. Matter 21 395502 (2009);
         "P. Giannozzi et al., J. Phys.:Condens. Matter 29 465901 (2017);
         "P. Giannozzi et al., J. Chem. Phys. 152 154105 (2020);
          URL http://www.quantum-espresso.org", 
     in publications or presentations arising from this work. More details at
     http://www.quantum-espresso.org/quote

     Parallel version (MPI & OpenMP), running on       4 processor cores
     Number of MPI processes:                 4
     Threads/MPI process:                     1

     MPI processes distributed on     1 nodes
     153144 MiB available memory on the printing compute node when the environment starts
 
     Reading input from pw-si-65.in
Warning: card &CELL ignored
Warning: card / ignored

     Current dimensions of program PWSCF are:
     Max number of different atomic species (ntypx) = 10
     Max number of k-points (npk) =  40000
     Max angular momentum in pseudopotentials (lmaxx) =  4

     IMPORTANT: XC functional enforced from input :
     Exchange-correlation= PBE
                           (   1   4   3   4   0   0   0)
     Any further DFT definition will be discarded
     Please, verify this is what you really want


     gamma-point specific algorithms are used
 
     K-points division:     npool     =       2
     R & G space division:  proc/nbgrp/npool/nimage =       2
     Subspace diagonalization in iterative solution of the eigenvalue problem:
     a serial algorithm will be used

     Message from routine divide_et_impera:
     suboptimal parallelization: some nodes have no k-points
 
     Parallelization info
     --------------------
     sticks:   dense  smooth     PW     G-vecs:    dense   smooth      PW
     Min        1945    1945    516                91383    91383   12416
     Max        1948    1948    517                91388    91388   12421
     Sum        3893    3893   1033               182771   182771   24837
 
     Using Slab Decomposition
 


     bravais-lattice index     =            0
     lattice parameter (alat)  =      20.1816  a.u.
     unit-cell volume          =    8219.8862 (a.u.)^3
     number of atoms/cell      =           64
     number of atomic types    =            1
     number of electrons       =       256.00
     number of Kohn-Sham states=          154
     kinetic-energy cutoff     =      30.0000  Ry
     charge density cutoff     =     120.0000  Ry
     scf convergence threshold =      1.0E-06
     mixing beta               =       0.5000
     number of iterations used =            8  plain     mixing
     Exchange-correlation= PBE
                           (   1   4   3   4   0   0   0)

     GPU acceleration is ACTIVE.
     GPU-aware MPI enabled

     Message from routine print_cuda_info:
     High GPU oversubscription detected. Are you sure this is what you want?

     celldm(1)=  20.181585  celldm(2)=   0.000000  celldm(3)=   0.000000
     celldm(4)=   0.000000  celldm(5)=   0.000000  celldm(6)=   0.000000

     crystal axes: (cart. coord. in units of alat)
               a(1) = (   1.000000   0.000000   0.000000 )  
               a(2) = (   0.000000   1.000000   0.000000 )  
               a(3) = (   0.000000   0.000000   1.000000 )  

     reciprocal axes: (cart. coord. in units 2 pi/alat)
               b(1) = (  1.000000  0.000000  0.000000 )  
               b(2) = (  0.000000  1.000000  0.000000 )  
               b(3) = (  0.000000  0.000000  1.000000 )  


     PseudoPot. # 1 for Si read from file:
     /home/ppiaggi/pseudos/Si_ONCV_PBE_sr.upf
     MD5 check sum: 8553c464762ac42b85b1eed164b4d029
     Pseudo is Norm-conserving, Zval =  4.0
     Generated using ONCVPSP code by D. R. Hamann
     Using radial grid of 1510 points,  4 beta functions with: 
                l(1) =   0
                l(2) =   0
                l(3) =   1
                l(4) =   1

     atomic species   valence    mass     pseudopotential
        Si             4.00    28.08500     Si( 1.00)

     No symmetry found



   Cartesian axes

     site n.     atom                  positions (alat units)
         1           Si  tau(   1) = (   0.5667850   0.6727490   0.6759840  )
         2           Si  tau(   2) = (   0.6472140   0.7910140   0.2700280  )
         3           Si  tau(   3) = (   0.4672010   0.3000800   0.1200630  )
         4           Si  tau(   4) = (   0.8464660   0.8006340   0.9495260  )
         5           Si  tau(   5) = (   0.4343800   0.7930560   0.9091820  )
         6           Si  tau(   6) = (   0.8754800   0.1955680   0.2499100  )
         7           Si  tau(   7) = (   0.7724920   0.6483080   0.7918880  )
         8           Si  tau(   8) = (   0.8177850   0.4345610   0.7481010  )
         9           Si  tau(   9) = (   0.3205690   0.6370180   0.3689510  )
        10           Si  tau(  10) = (   0.1006150   0.4098620   0.4714340  )
        11           Si  tau(  11) = (   0.1303930   0.9396540   0.8019340  )
        12           Si  tau(  12) = (   0.6482360   0.3638190   0.9247670  )
        13           Si  tau(  13) = (   0.5025890   0.4811890   0.3016290  )
        14           Si  tau(  14) = (   0.4438250   0.9609970   0.5463020  )
        15           Si  tau(  15) = (   0.7051700   0.4207420   0.1843810  )
        16           Si  tau(  16) = (   0.7810210   0.6362490   0.1910590  )
        17           Si  tau(  17) = (   0.0144242   0.4782090   0.0670838  )
        18           Si  tau(  18) = (   0.4609260   0.5190940   0.9875640  )
        19           Si  tau(  19) = (   0.7006330   0.0587014   0.2909440  )
        20           Si  tau(  20) = (   0.6788290   0.9803640   0.5711430  )
        21           Si  tau(  21) = (   0.5144890   0.7480390   0.4661800  )
        22           Si  tau(  22) = (   0.2987280   0.3312680   0.5546360  )
        23           Si  tau(  23) = (   0.4161800   0.2713680   0.3628610  )
        24           Si  tau(  24) = (   0.8660580   0.3239000   0.4735110  )
        25           Si  tau(  25) = (   0.0799450   0.7505380   0.4916150  )
        26           Si  tau(  26) = (   0.8640310   0.3228620   0.0247899  )
        27           Si  tau(  27) = (   0.6622670   0.1498370   0.8885330  )
        28           Si  tau(  28) = (   0.2424820   0.2637400   0.9844120  )
        29           Si  tau(  29) = (   0.9315320   0.8937560   0.7350730  )
        30           Si  tau(  30) = (   0.3609050   0.1397390   0.8351960  )
        31           Si  tau(  31) = (   0.0189958   0.8396490   0.2410040  )
        32           Si  tau(  32) = (   0.5920560   0.1187180   0.1142860  )
        33           Si  tau(  33) = (   0.0578309   0.1987910   0.6693060  )
        34           Si  tau(  34) = (   0.0930120   0.6925340   0.8326070  )
        35           Si  tau(  35) = (   0.4795190   0.9246930   0.1310930  )
        36           Si  tau(  36) = (   0.2305580   0.9751590   0.0202358  )
        37           Si  tau(  37) = (   0.5987080   0.1892410   0.4610930  )
        38           Si  tau(  38) = (   0.1040370   0.9961640   0.4256350  )
        39           Si  tau(  39) = (   0.4008140   0.5042670   0.7392070  )
        40           Si  tau(  40) = (   0.2064490   0.4540640   0.9183560  )
        41           Si  tau(  41) = (   0.8584480   0.7495360   0.5771170  )
        42           Si  tau(  42) = (   0.2560380   0.8280430   0.2513700  )
        43           Si  tau(  43) = (   0.3339060   0.7880840   0.6929150  )
        44           Si  tau(  44) = (   0.0242415   0.1632900   0.9149030  )
        45           Si  tau(  45) = (   0.8373650   0.0748113   0.7215520  )
        46           Si  tau(  46) = (   0.9008980   0.0904432   0.4974580  )
        47           Si  tau(  47) = (   0.8318390   0.8705080   0.3874080  )
        48           Si  tau(  48) = (   0.3381160   0.0422977   0.3573550  )
        49           Si  tau(  49) = (   0.1761180   0.5756450   0.6286270  )
        50           Si  tau(  50) = (   0.2626590   0.1155960   0.6321640  )
        51           Si  tau(  51) = (   0.8591390   0.0197799   0.0037919  )
        52           Si  tau(  52) = (   0.1511160   0.4133210   0.2552650  )
        53           Si  tau(  53) = (   0.2458730   0.7148550   0.0166539  )
        54           Si  tau(  54) = (   0.2104390   0.2086730   0.2044150  )
        55           Si  tau(  55) = (   0.6821850   0.3869100   0.5675740  )
        56           Si  tau(  56) = (   0.5050780   0.2895500   0.7256200  )
        57           Si  tau(  57) = (   0.5242690   0.9769730   0.7886710  )
        58           Si  tau(  58) = (   0.2943870   0.5626250   0.1772200  )
        59           Si  tau(  59) = (   0.6517010   0.5537520   0.4470310  )
        60           Si  tau(  60) = (   0.9748420   0.6933940   0.0705777  )
        61           Si  tau(  61) = (   0.6263510   0.7013840   0.9979390  )
        62           Si  tau(  62) = (   0.0527541   0.0505938   0.1651090  )
        63           Si  tau(  63) = (   0.8806550   0.5630570   0.4080430  )
        64           Si  tau(  64) = (   0.0201839   0.4156020   0.7376150  )

     number of k points=     1  Fermi-Dirac smearing, width (Ry)=  0.0100
                       cart. coord. in units 2pi/alat
        k(    1) = (   0.0000000   0.0000000   0.0000000), wk =   2.0000000

     Dense  grid:    91386 G-vectors     FFT dimensions: (  72,  72,  72)

     Estimated max dynamical RAM per process >     146.38 MB

     Estimated total dynamical RAM >     563.20 MB

     Initial potential from superposition of free atoms

     starting charge     255.9608, renormalised to     256.0000
     Starting wfcs are  256 randomized atomic wfcs

     total cpu time spent up to now is        4.3 secs

     Self-consistent Calculation

     iteration #  1     ecut=    30.00 Ry     beta= 0.50
     Davidson diagonalization with overlap
     ethr =  1.00E-02,  avg # of iterations =  3.0

     Threshold (ethr) on eigenvalues was too large:
     Diagonalizing with lowered threshold

     Davidson diagonalization with overlap
     ethr =  3.42E-04,  avg # of iterations =  4.0

     total cpu time spent up to now is        4.5 secs

     total energy              =    -501.31145832 Ry
     estimated scf accuracy    <       1.07950764 Ry

     iteration #  2     ecut=    30.00 Ry     beta= 0.50
     Davidson diagonalization with overlap
     ethr =  4.22E-04,  avg # of iterations =  3.0

     total cpu time spent up to now is        4.6 secs

     total energy              =    -501.07946361 Ry
     estimated scf accuracy    <       2.16548739 Ry

     iteration #  3     ecut=    30.00 Ry     beta= 0.50
     Davidson diagonalization with overlap
     ethr =  4.22E-04,  avg # of iterations =  4.0

     total cpu time spent up to now is        4.7 secs

     total energy              =    -501.25036733 Ry
     estimated scf accuracy    <       2.60725228 Ry

     iteration #  4     ecut=    30.00 Ry     beta= 0.50
     Davidson diagonalization with overlap
     ethr =  4.22E-04,  avg # of iterations =  3.0

     total cpu time spent up to now is        4.8 secs

     total energy              =    -501.42391127 Ry
     estimated scf accuracy    <       0.52597004 Ry

     iteration #  5     ecut=    30.00 Ry     beta= 0.50
     Davidson diagonalization with overlap
     ethr =  2.05E-04,  avg # of iterations =  2.0

     total cpu time spent up to now is        4.8 secs

     total energy              =    -501.46740030 Ry
     estimated scf accuracy    <       0.15174776 Ry

     iteration #  6     ecut=    30.00 Ry     beta= 0.50
     Davidson diagonalization with overlap
     ethr =  5.93E-05,  avg # of iterations =  3.0

     total cpu time spent up to now is        4.9 secs

     total energy              =    -501.48026172 Ry
     estimated scf accuracy    <       0.22967419 Ry

     iteration #  7     ecut=    30.00 Ry     beta= 0.50
     Davidson diagonalization with overlap
     ethr =  5.93E-05,  avg # of iterations =  2.0

     total cpu time spent up to now is        5.0 secs

     total energy              =    -501.49558703 Ry
     estimated scf accuracy    <       0.00799488 Ry

     iteration #  8     ecut=    30.00 Ry     beta= 0.50
     Davidson diagonalization with overlap
     ethr =  3.12E-06,  avg # of iterations = 20.0

     total cpu time spent up to now is        5.2 secs

     total energy              =    -501.49651770 Ry
     estimated scf accuracy    <       0.02118351 Ry

     iteration #  9     ecut=    30.00 Ry     beta= 0.50
     Davidson diagonalization with overlap
     ethr =  3.12E-06,  avg # of iterations =  2.0

     total cpu time spent up to now is        5.3 secs

     total energy              =    -501.49813173 Ry
     estimated scf accuracy    <       0.00265614 Ry

     iteration # 10     ecut=    30.00 Ry     beta= 0.50
     Davidson diagonalization with overlap
     ethr =  1.04E-06,  avg # of iterations =  2.0

     total cpu time spent up to now is        5.4 secs

     total energy              =    -501.49831301 Ry
     estimated scf accuracy    <       0.00056092 Ry

     iteration # 11     ecut=    30.00 Ry     beta= 0.50
     Davidson diagonalization with overlap
     ethr =  2.19E-07,  avg # of iterations =  4.0

     total cpu time spent up to now is        5.5 secs

     total energy              =    -501.49835354 Ry
     estimated scf accuracy    <       0.00029103 Ry

     iteration # 12     ecut=    30.00 Ry     beta= 0.50
     Davidson diagonalization with overlap
     ethr =  1.14E-07,  avg # of iterations =  3.0

     total cpu time spent up to now is        5.5 secs

     total energy              =    -501.49837474 Ry
     estimated scf accuracy    <       0.00028420 Ry

     iteration # 13     ecut=    30.00 Ry     beta= 0.50
     Davidson diagonalization with overlap
     ethr =  1.11E-07,  avg # of iterations =  2.0

     total cpu time spent up to now is        5.6 secs

     total energy              =    -501.49839269 Ry
     estimated scf accuracy    <       0.00004217 Ry

     iteration # 14     ecut=    30.00 Ry     beta= 0.50
     Davidson diagonalization with overlap
     ethr =  1.65E-08,  avg # of iterations =  4.0

     total cpu time spent up to now is        5.8 secs

     total energy              =    -501.49839445 Ry
     estimated scf accuracy    <       0.00009459 Ry

     iteration # 15     ecut=    30.00 Ry     beta= 0.50
     Davidson diagonalization with overlap
     ethr =  1.65E-08,  avg # of iterations =  2.0

     total cpu time spent up to now is        5.8 secs

     total energy              =    -501.49840028 Ry
     estimated scf accuracy    <       0.00000508 Ry

     iteration # 16     ecut=    30.00 Ry     beta= 0.50
     Davidson diagonalization with overlap
     ethr =  1.98E-09,  avg # of iterations =  4.0

     total cpu time spent up to now is        5.9 secs

     total energy              =    -501.49840131 Ry
     estimated scf accuracy    <       0.00000366 Ry

     iteration # 17     ecut=    30.00 Ry     beta= 0.50
     Davidson diagonalization with overlap
     ethr =  1.43E-09,  avg # of iterations =  2.0

     total cpu time spent up to now is        6.0 secs

     total energy              =    -501.49840148 Ry
     estimated scf accuracy    <       0.00000246 Ry

     iteration # 18     ecut=    30.00 Ry     beta= 0.50
     Davidson diagonalization with overlap
     ethr =  9.60E-10,  avg # of iterations =  2.0

     total cpu time spent up to now is        6.1 secs

     total energy              =    -501.49840164 Ry
     estimated scf accuracy    <       0.00000136 Ry

     iteration # 19     ecut=    30.00 Ry     beta= 0.50
     Davidson diagonalization with overlap
     ethr =  5.33E-10,  avg # of iterations =  1.0

     total cpu time spent up to now is        6.2 secs

     End of self-consistent calculation

          k = 0.0000 0.0000 0.0000 ( 11444 PWs)   bands (ev):

    -5.3900  -4.5181  -4.4206  -4.2933  -4.1489  -4.0269  -3.9911  -3.5409
    -3.3780  -3.3271  -3.2664  -3.1764  -3.0667  -2.9920  -2.9711  -2.7946
    -2.6591  -2.6476  -2.5658  -2.1664  -2.0886  -1.9654  -1.8248  -1.7697
    -1.5948  -1.4971  -1.4150  -1.1333  -0.9283  -0.7929  -0.6923  -0.5639
    -0.4886  -0.3045  -0.2037  -0.1465  -0.0737   0.1346   0.1822   0.2313
     0.3942   0.4172   0.4406   0.4987   0.6091   0.7743   0.8171   0.8459
     0.9299   1.0649   1.1187   1.1468   1.2808   1.3599   1.4379   1.5415
     1.6993   1.7435   1.9188   1.9660   2.0778   2.2272   2.2959   2.3496
     2.4229   2.4936   2.6216   2.7012   2.7320   2.7923   2.8605   2.8823
     2.9517   3.0394   3.1768   3.2357   3.2734   3.5379   3.5546   3.5801
     3.7490   4.0171   4.0889   4.1876   4.3847   4.4495   4.5243   4.5480
     4.5918   4.6895   4.7093   4.7435   4.8409   4.9475   5.0423   5.1054
     5.1149   5.2364   5.2661   5.3510   5.3783   5.4393   5.5004   5.6052
     5.6702   5.7087   5.7678   5.7994   5.8550   5.8962   5.9311   5.9719
     6.0854   6.1286   6.2163   6.3032   6.3836   6.3924   6.5119   6.5195
     6.5879   6.6444   6.6996   6.7611   6.8301   6.8867   6.9589   6.9832
     7.0237   7.0341   7.1540   7.1920   7.2384   7.2720   7.3510   7.4425
     7.5562   7.6372   7.6995   7.7281   7.7872   7.8773   7.9168   7.9651
     8.0752   8.1191   8.2696   8.2970   8.3971   8.4355   8.5403   8.5546
     8.6168   8.6462

     the Fermi energy is     7.0065 ev

!    total energy              =    -501.49840141 Ry
     estimated scf accuracy    <       0.00000036 Ry
     smearing contrib. (-TS)   =      -0.16082616 Ry
     internal energy E=F+TS    =    -501.33757525 Ry

     The total energy is F=E-TS. E is the sum of the following terms:
     one-electron contribution =     189.29840483 Ry
     hartree contribution      =      22.50240712 Ry
     xc contribution           =    -150.60844690 Ry
     ewald contribution        =    -562.52994030 Ry

     convergence has been achieved in  19 iterations

     Forces acting on atoms (cartesian axes, Ry/au):

     atom    1 type  1   force =    -0.02197709   -0.02608480    0.01475205
     atom    2 type  1   force =    -0.02615886    0.03434861    0.02541182
     atom    3 type  1   force =    -0.01228351    0.02461131    0.01912528
     atom    4 type  1   force =    -0.04801215    0.05151970   -0.07278319
     atom    5 type  1   force =     0.00429128    0.02835116   -0.01333097
     atom    6 type  1   force =     0.00269511    0.02117104   -0.01326856
     atom    7 type  1   force =    -0.03083747    0.00440740   -0.02853197
     atom    8 type  1   force =    -0.09262069    0.00529069    0.03077209
     atom    9 type  1   force =     0.02084198    0.04721349    0.09796335
     atom   10 type  1   force =    -0.02009231    0.01337224    0.02072738
     atom   11 type  1   force =     0.04984482   -0.01783641    0.01591678
     atom   12 type  1   force =     0.02289205    0.02474382   -0.00554236
     atom   13 type  1   force =    -0.01275044   -0.01665634   -0.02996695
     atom   14 type  1   force =    -0.00153068   -0.00842525    0.02184394
     atom   15 type  1   force =    -0.01220804   -0.00168151   -0.01591655
     atom   16 type  1   force =     0.01556957   -0.03233674   -0.00080459
     atom   17 type  1   force =     0.03935621   -0.00123504    0.00931169
     atom   18 type  1   force =     0.00660914   -0.01051136    0.00187010
     atom   19 type  1   force =     0.01704902    0.00921354    0.02499622
     atom   20 type  1   force =    -0.01355059    0.00601177    0.02522688
     atom   21 type  1   force =     0.00134645    0.00630828   -0.02113117
     atom   22 type  1   force =     0.00065305   -0.01432741   -0.00539547
     atom   23 type  1   force =    -0.01007887    0.00875503   -0.01885819
     atom   24 type  1   force =     0.06500597   -0.03687368   -0.04854729
     atom   25 type  1   force =     0.00439743    0.01006816   -0.01687304
     atom   26 type  1   force =    -0.01214522   -0.02454291    0.01152842
     atom   27 type  1   force =     0.01900860   -0.04889499    0.01375685
     atom   28 type  1   force =     0.01706781   -0.08632009    0.03741022
     atom   29 type  1   force =     0.00462009   -0.07598705    0.02910011
     atom   30 type  1   force =     0.01341231   -0.01561893   -0.01225266
     atom   31 type  1   force =     0.01528127    0.00467097    0.02741127
     atom   32 type  1   force =    -0.01361733   -0.00383976   -0.04164644
     atom   33 type  1   force =    -0.03454832    0.01140661    0.00764307
     atom   34 type  1   force =     0.01344372    0.00279062    0.01458763
     atom   35 type  1   force =    -0.02692463   -0.02468705    0.00222751
     atom   36 type  1   force =     0.00634104   -0.02586173   -0.00415084
     atom   37 type  1   force =     0.01896477   -0.02475632    0.00922426
     atom   38 type  1   force =     0.02281635   -0.02123725   -0.00295639
     atom   39 type  1   force =    -0.00279020   -0.01251901    0.00921277
     atom   40 type  1   force =    -0.03725504    0.08542355   -0.03844157
     atom   41 type  1   force =     0.01408572   -0.01497027   -0.00286526
     atom   42 type  1   force =     0.00409435    0.02465301   -0.02615840
     atom   43 type  1   force =    -0.00716874    0.01872133    0.01742213
     atom   44 type  1   force =    -0.00201041   -0.00249662   -0.00958066
     atom   45 type  1   force =    -0.05000347    0.06780872   -0.02294619
     atom   46 type  1   force =     0.02014630    0.02563215    0.02887518
     atom   47 type  1   force =    -0.01342709    0.01728350   -0.01653464
     atom   48 type  1   force =    -0.03714196   -0.00922473   -0.00330594
     atom   49 type  1   force =    -0.00037719    0.00073857   -0.00493543
     atom   50 type  1   force =     0.00059569    0.00730585   -0.00632257
     atom   51 type  1   force =     0.00516155    0.02286810    0.00723356
     atom   52 type  1   force =    -0.03297542    0.00309268   -0.01730365
     atom   53 type  1   force =    -0.00159080    0.02135195   -0.00058761
     atom   54 type  1   force =     0.02787086   -0.00557120   -0.01414541
     atom   55 type  1   force =    -0.02014977   -0.05555662    0.07097472
     atom   56 type  1   force =     0.00010902    0.02683065   -0.00901457
     atom   57 type  1   force =    -0.00606096    0.01232852    0.00191171
     atom   58 type  1   force =     0.03548085   -0.02610900   -0.08071871
     atom   59 type  1   force =     0.00427187    0.06225316   -0.02073076
     atom   60 type  1   force =     0.02675334   -0.03571709    0.04968222
     atom   61 type  1   force =     0.01149115   -0.02134124   -0.00360273
     atom   62 type  1   force =    -0.02627277   -0.00533787   -0.00995128
     atom   63 type  1   force =    -0.01149519    0.01086250   -0.00108665
     atom   64 type  1   force =     0.10648650   -0.01485038   -0.00593053

     Total force =     0.399880     Total SCF correction =     0.001255


     Computing stress (Cartesian axis) and pressure

          total   stress  (Ry/bohr**3)                   (kbar)     P=      -32.89
  -0.00021463  -0.00006681   0.00006067          -31.57       -9.83        8.92
  -0.00006681  -0.00012948  -0.00005102           -9.83      -19.05       -7.51
   0.00006067  -0.00005102  -0.00032659            8.92       -7.51      -48.04

 
     init_run     :      1.23s CPU      4.21s WALL (       1 calls)
     electrons    :      1.73s CPU      1.90s WALL (       1 calls)
     forces       :      0.03s CPU      0.03s WALL (       1 calls)
     stress       :      0.14s CPU      0.14s WALL (       1 calls)

     Called by init_run:
     wfcinit      :      0.71s CPU      3.55s WALL (       1 calls)
                                        3.55s GPU  (       1 calls)
     potinit      :      0.04s CPU      0.11s WALL (       1 calls)
     hinit0       :      0.45s CPU      0.48s WALL (       1 calls)

     Called by electrons:
     c_bands      :      1.11s CPU      1.22s WALL (      20 calls)
     sum_band     :      0.31s CPU      0.35s WALL (      20 calls)
     v_of_rho     :      0.14s CPU      0.22s WALL (      20 calls)
     mix_rho      :      0.14s CPU      0.16s WALL (      20 calls)

     Called by c_bands:
     init_us_2    :      0.05s CPU      0.06s WALL (      41 calls)
     init_us_2:gp :      0.05s CPU      0.05s WALL (      41 calls)
     regterg      :      0.97s CPU      1.07s WALL (      20 calls)

     Called by *egterg:
     rdiaghg      :      0.40s CPU      1.07s WALL (      91 calls)
                                        1.05s GPU  (      91 calls)
     h_psi        :      1.12s CPU      3.37s WALL (      93 calls)
                                        3.36s GPU  (      93 calls)
     g_psi        :      0.00s CPU      0.00s WALL (      72 calls)
                                        0.00s GPU  (      72 calls)

     Called by h_psi:
     h_psi:calbec :      0.70s CPU      2.88s WALL (      93 calls)
                                        2.88s GPU  (      93 calls)
     vloc_psi     :      0.37s CPU      0.43s WALL (      93 calls)
                                        0.43s GPU  (      93 calls)
     add_vuspsi   :      0.03s CPU      0.05s WALL (      93 calls)
                                        0.05s GPU  (      93 calls)

     General routines
     calbec       :      0.71s CPU      2.88s WALL (      98 calls)
     fft          :      0.56s CPU      0.66s WALL (     167 calls)
                                        0.11s GPU  (     106 calls)
     ffts         :      0.03s CPU      0.03s WALL (      20 calls)
     fftw         :      0.45s CPU      0.58s WALL (    2110 calls)
                                        0.51s GPU  (    2110 calls)
 
     Parallel routines
 
     PWSCF        :      3.16s CPU      6.36s WALL

 
   This run was terminated on:  10:50:20  10May2023            

=------------------------------------------------------------------------------=
   JOB DONE.
=------------------------------------------------------------------------------=
