An instance of this daemon is already running
An instance of this daemon is already running

     Program PWSCF v.7.1 starts on 10May2023 at 10:40:54 

     This program is part of the open-source Quantum ESPRESSO suite
     for quantum simulation of materials; please cite
         "P. Giannozzi et al., J. Phys.:Condens. Matter 21 395502 (2009);
         "P. Giannozzi et al., J. Phys.:Condens. Matter 29 465901 (2017);
         "P. Giannozzi et al., J. Chem. Phys. 152 154105 (2020);
          URL http://www.quantum-espresso.org", 
     in publications or presentations arising from this work. More details at
     http://www.quantum-espresso.org/quote

     Parallel version (MPI & OpenMP), running on       4 processor cores
     Number of MPI processes:                 4
     Threads/MPI process:                     1

     MPI processes distributed on     1 nodes
     153206 MiB available memory on the printing compute node when the environment starts
 
     Reading input from pw-si-2.in
Warning: card &CELL ignored
Warning: card / ignored

     Current dimensions of program PWSCF are:
     Max number of different atomic species (ntypx) = 10
     Max number of k-points (npk) =  40000
     Max angular momentum in pseudopotentials (lmaxx) =  4

     IMPORTANT: XC functional enforced from input :
     Exchange-correlation= PBE
                           (   1   4   3   4   0   0   0)
     Any further DFT definition will be discarded
     Please, verify this is what you really want


     gamma-point specific algorithms are used
 
     K-points division:     npool     =       2
     R & G space division:  proc/nbgrp/npool/nimage =       2
     Subspace diagonalization in iterative solution of the eigenvalue problem:
     a serial algorithm will be used

     Message from routine divide_et_impera:
     suboptimal parallelization: some nodes have no k-points
 
     Parallelization info
     --------------------
     sticks:   dense  smooth     PW     G-vecs:    dense   smooth      PW
     Min        1933    1933    515                90495    90495   12286
     Max        1936    1936    518                90500    90500   12287
     Sum        3869    3869   1033               180995   180995   24573
 
     Using Slab Decomposition
 


     bravais-lattice index     =            0
     lattice parameter (alat)  =      20.1170  a.u.
     unit-cell volume          =    8141.1957 (a.u.)^3
     number of atoms/cell      =           64
     number of atomic types    =            1
     number of electrons       =       256.00
     number of Kohn-Sham states=          154
     kinetic-energy cutoff     =      30.0000  Ry
     charge density cutoff     =     120.0000  Ry
     scf convergence threshold =      1.0E-06
     mixing beta               =       0.5000
     number of iterations used =            8  plain     mixing
     Exchange-correlation= PBE
                           (   1   4   3   4   0   0   0)

     GPU acceleration is ACTIVE.
     GPU-aware MPI enabled

     Message from routine print_cuda_info:
     High GPU oversubscription detected. Are you sure this is what you want?

     celldm(1)=  20.116978  celldm(2)=   0.000000  celldm(3)=   0.000000
     celldm(4)=   0.000000  celldm(5)=   0.000000  celldm(6)=   0.000000

     crystal axes: (cart. coord. in units of alat)
               a(1) = (   1.000000   0.000000   0.000000 )  
               a(2) = (   0.000000   1.000000   0.000000 )  
               a(3) = (   0.000000   0.000000   1.000000 )  

     reciprocal axes: (cart. coord. in units 2 pi/alat)
               b(1) = (  1.000000  0.000000  0.000000 )  
               b(2) = (  0.000000  1.000000  0.000000 )  
               b(3) = (  0.000000  0.000000  1.000000 )  


     PseudoPot. # 1 for Si read from file:
     /home/ppiaggi/pseudos/Si_ONCV_PBE_sr.upf
     MD5 check sum: 8553c464762ac42b85b1eed164b4d029
     Pseudo is Norm-conserving, Zval =  4.0
     Generated using ONCVPSP code by D. R. Hamann
     Using radial grid of 1510 points,  4 beta functions with: 
                l(1) =   0
                l(2) =   0
                l(3) =   1
                l(4) =   1

     atomic species   valence    mass     pseudopotential
        Si             4.00    28.08500     Si( 1.00)

     No symmetry found



   Cartesian axes

     site n.     atom                  positions (alat units)
         1           Si  tau(   1) = (   0.2338880   0.7790950   0.7967440  )
         2           Si  tau(   2) = (   0.3615010   0.0071300   0.6255200  )
         3           Si  tau(   3) = (   0.8379580   0.5248570   0.3988790  )
         4           Si  tau(   4) = (   0.0912551   0.5216780   0.1368970  )
         5           Si  tau(   5) = (   0.8277450   0.1704210   0.5296500  )
         6           Si  tau(   6) = (   0.9471470   0.9100660   0.5364320  )
         7           Si  tau(   7) = (   0.0523706   0.4558250   0.4800030  )
         8           Si  tau(   8) = (   0.0720442   0.6052270   0.7745780  )
         9           Si  tau(   9) = (   0.5567200   0.1750920   0.8714100  )
        10           Si  tau(  10) = (   0.7291660   0.6694960   0.8573770  )
        11           Si  tau(  11) = (   0.3316380   0.0870825   0.0218711  )
        12           Si  tau(  12) = (   0.5244890   0.0174100   0.3239600  )
        13           Si  tau(  13) = (   0.6324080   0.7803800   0.0225408  )
        14           Si  tau(  14) = (   0.1326470   0.9957830   0.8547720  )
        15           Si  tau(  15) = (   0.2284450   0.5777530   0.3737580  )
        16           Si  tau(  16) = (   0.0151391   0.2658510   0.3395100  )
        17           Si  tau(  17) = (   0.4978130   0.2954490   0.6099820  )
        18           Si  tau(  18) = (   0.5198900   0.4672560   0.8660600  )
        19           Si  tau(  19) = (   0.9408920   0.8602930   0.0479906  )
        20           Si  tau(  20) = (   0.7378780   0.3163340   0.3280940  )
        21           Si  tau(  21) = (   0.7762230   0.8394030   0.2684200  )
        22           Si  tau(  22) = (   0.3441760   0.1723530   0.3123540  )
        23           Si  tau(  23) = (   0.4870690   0.5896330   0.4209140  )
        24           Si  tau(  24) = (   0.9509540   0.6683730   0.2620050  )
        25           Si  tau(  25) = (   0.8876950   0.9123440   0.8229260  )
        26           Si  tau(  26) = (   0.9476610   0.0432364   0.3453690  )
        27           Si  tau(  27) = (   0.9265040   0.3142700   0.7908270  )
        28           Si  tau(  28) = (   0.5600100   0.6723450   0.7149560  )
        29           Si  tau(  29) = (   0.1982330   0.1426280   0.6567420  )
        30           Si  tau(  30) = (   0.6665480   0.9897960   0.7590080  )
        31           Si  tau(  31) = (   0.1794560   0.0235294   0.3117930  )
        32           Si  tau(  32) = (   0.1120080   0.4061870   0.7090410  )
        33           Si  tau(  33) = (   0.0271224   0.2341690   0.9904740  )
        34           Si  tau(  34) = (   0.1026610   0.0135964   0.0721970  )
        35           Si  tau(  35) = (   0.2292090   0.2756810   0.4724590  )
        36           Si  tau(  36) = (   0.4212330   0.7995870   0.2620520  )
        37           Si  tau(  37) = (   0.5198510   0.2237530   0.1140790  )
        38           Si  tau(  38) = (   0.2861550   0.8606750   0.4711790  )
        39           Si  tau(  39) = (   0.9610590   0.6271720   0.9775640  )
        40           Si  tau(  40) = (   0.5474890   0.0829923   0.5444180  )
        41           Si  tau(  41) = (   0.7285340   0.0008937   0.0341399  )
        42           Si  tau(  42) = (   0.3190960   0.4170670   0.2188860  )
        43           Si  tau(  43) = (   0.6051640   0.4771930   0.1708680  )
        44           Si  tau(  44) = (   0.9355210   0.3497700   0.1316920  )
        45           Si  tau(  45) = (   0.2284880   0.3797660   0.9467950  )
        46           Si  tau(  46) = (   0.9587010   0.1028930   0.6849270  )
        47           Si  tau(  47) = (   0.7029910   0.8909670   0.5001620  )
        48           Si  tau(  48) = (   0.7150100   0.0796524   0.2361520  )
        49           Si  tau(  49) = (   0.3995460   0.4967750   0.0449847  )
        50           Si  tau(  50) = (   0.8839520   0.7270170   0.6709810  )
        51           Si  tau(  51) = (   0.4919120   0.8646830   0.7721370  )
        52           Si  tau(  52) = (   0.0790465   0.7342440   0.4985050  )
        53           Si  tau(  53) = (   0.6159290   0.6890270   0.2410900  )
        54           Si  tau(  54) = (   0.7237750   0.3427520   0.8676720  )
        55           Si  tau(  55) = (   0.3443660   0.6413670   0.6464680  )
        56           Si  tau(  56) = (   0.6884350   0.6791760   0.5141470  )
        57           Si  tau(  57) = (   0.7965940   0.4738220   0.0525190  )
        58           Si  tau(  58) = (   0.3441720   0.4366520   0.6901560  )
        59           Si  tau(  59) = (   0.7345420   0.3746010   0.5978590  )
        60           Si  tau(  60) = (   0.1669410   0.7579010   0.2090890  )
        61           Si  tau(  61) = (   0.5177510   0.3641420   0.3991700  )
        62           Si  tau(  62) = (   0.3317600   0.2191930   0.8180080  )
        63           Si  tau(  63) = (   0.4355510   0.8758530   0.9919900  )
        64           Si  tau(  64) = (   0.2821010   0.7093060   0.0046893  )

     number of k points=     1  Fermi-Dirac smearing, width (Ry)=  0.0100
                       cart. coord. in units 2pi/alat
        k(    1) = (   0.0000000   0.0000000   0.0000000), wk =   2.0000000

     Dense  grid:    90498 G-vectors     FFT dimensions: (  72,  72,  72)

     Estimated max dynamical RAM per process >     145.12 MB

     Estimated total dynamical RAM >     558.38 MB

     Initial potential from superposition of free atoms

     starting charge     255.9608, renormalised to     256.0000
     Starting wfcs are  256 randomized atomic wfcs

     total cpu time spent up to now is        4.3 secs

     Self-consistent Calculation

     iteration #  1     ecut=    30.00 Ry     beta= 0.50
     Davidson diagonalization with overlap
     ethr =  1.00E-02,  avg # of iterations =  3.0

     Threshold (ethr) on eigenvalues was too large:
     Diagonalizing with lowered threshold

     Davidson diagonalization with overlap
     ethr =  4.11E-04,  avg # of iterations =  4.0

     total cpu time spent up to now is        4.5 secs

     total energy              =    -501.28510075 Ry
     estimated scf accuracy    <       1.27143244 Ry

     iteration #  2     ecut=    30.00 Ry     beta= 0.50
     Davidson diagonalization with overlap
     ethr =  4.97E-04,  avg # of iterations =  4.0

     total cpu time spent up to now is        4.7 secs

     total energy              =    -501.00500027 Ry
     estimated scf accuracy    <       3.14540344 Ry

     iteration #  3     ecut=    30.00 Ry     beta= 0.50
     Davidson diagonalization with overlap
     ethr =  4.97E-04,  avg # of iterations =  3.0

     total cpu time spent up to now is        4.8 secs

     total energy              =    -501.25843092 Ry
     estimated scf accuracy    <       2.55641181 Ry

     iteration #  4     ecut=    30.00 Ry     beta= 0.50
     Davidson diagonalization with overlap
     ethr =  4.97E-04,  avg # of iterations =  2.0

     total cpu time spent up to now is        4.9 secs

     total energy              =    -501.44737300 Ry
     estimated scf accuracy    <       0.84669294 Ry

     iteration #  5     ecut=    30.00 Ry     beta= 0.50
     Davidson diagonalization with overlap
     ethr =  3.31E-04,  avg # of iterations =  2.0

     total cpu time spent up to now is        4.9 secs

     total energy              =    -501.49221699 Ry
     estimated scf accuracy    <       0.33509400 Ry

     iteration #  6     ecut=    30.00 Ry     beta= 0.50
     Davidson diagonalization with overlap
     ethr =  1.31E-04,  avg # of iterations =  2.0

     total cpu time spent up to now is        5.0 secs

     total energy              =    -501.53043550 Ry
     estimated scf accuracy    <       0.11156202 Ry

     iteration #  7     ecut=    30.00 Ry     beta= 0.50
     Davidson diagonalization with overlap
     ethr =  4.36E-05,  avg # of iterations =  2.0

     total cpu time spent up to now is        5.1 secs

     total energy              =    -501.53975710 Ry
     estimated scf accuracy    <       0.01323843 Ry

     iteration #  8     ecut=    30.00 Ry     beta= 0.50
     Davidson diagonalization with overlap
     ethr =  5.17E-06,  avg # of iterations = 20.0

     total cpu time spent up to now is        5.3 secs

     total energy              =    -501.54096488 Ry
     estimated scf accuracy    <       0.02092439 Ry

     iteration #  9     ecut=    30.00 Ry     beta= 0.50
     Davidson diagonalization with overlap
     ethr =  5.17E-06,  avg # of iterations =  2.0

     total cpu time spent up to now is        5.4 secs

     total energy              =    -501.54273419 Ry
     estimated scf accuracy    <       0.00302185 Ry

     iteration # 10     ecut=    30.00 Ry     beta= 0.50
     Davidson diagonalization with overlap
     ethr =  1.18E-06,  avg # of iterations =  2.0

     total cpu time spent up to now is        5.5 secs

     total energy              =    -501.54296081 Ry
     estimated scf accuracy    <       0.00194416 Ry

     iteration # 11     ecut=    30.00 Ry     beta= 0.50
     Davidson diagonalization with overlap
     ethr =  7.59E-07,  avg # of iterations =  2.0

     total cpu time spent up to now is        5.6 secs

     total energy              =    -501.54311757 Ry
     estimated scf accuracy    <       0.00073228 Ry

     iteration # 12     ecut=    30.00 Ry     beta= 0.50
     Davidson diagonalization with overlap
     ethr =  2.86E-07,  avg # of iterations =  2.0

     total cpu time spent up to now is        5.7 secs

     total energy              =    -501.54319018 Ry
     estimated scf accuracy    <       0.00007916 Ry

     iteration # 13     ecut=    30.00 Ry     beta= 0.50
     Davidson diagonalization with overlap
     ethr =  3.09E-08,  avg # of iterations =  5.0

     total cpu time spent up to now is        5.8 secs

     total energy              =    -501.54318667 Ry
     estimated scf accuracy    <       0.00032236 Ry

     iteration # 14     ecut=    30.00 Ry     beta= 0.50
     Davidson diagonalization with overlap
     ethr =  3.09E-08,  avg # of iterations =  3.0

     total cpu time spent up to now is        5.9 secs

     total energy              =    -501.54321009 Ry
     estimated scf accuracy    <       0.00000728 Ry

     iteration # 15     ecut=    30.00 Ry     beta= 0.50
     Davidson diagonalization with overlap
     ethr =  2.84E-09,  avg # of iterations =  5.0

     total cpu time spent up to now is        6.0 secs

     total energy              =    -501.54320887 Ry
     estimated scf accuracy    <       0.00002434 Ry

     iteration # 16     ecut=    30.00 Ry     beta= 0.50
     Davidson diagonalization with overlap
     ethr =  2.84E-09,  avg # of iterations =  3.0

     total cpu time spent up to now is        6.1 secs

     total energy              =    -501.54321059 Ry
     estimated scf accuracy    <       0.00002461 Ry

     iteration # 17     ecut=    30.00 Ry     beta= 0.50
     Davidson diagonalization with overlap
     ethr =  2.84E-09,  avg # of iterations =  2.0

     total cpu time spent up to now is        6.2 secs

     total energy              =    -501.54321225 Ry
     estimated scf accuracy    <       0.00000140 Ry

     iteration # 18     ecut=    30.00 Ry     beta= 0.50
     Davidson diagonalization with overlap
     ethr =  5.46E-10,  avg # of iterations =  4.0

     total cpu time spent up to now is        6.3 secs

     total energy              =    -501.54321233 Ry
     estimated scf accuracy    <       0.00000137 Ry

     iteration # 19     ecut=    30.00 Ry     beta= 0.50
     Davidson diagonalization with overlap
     ethr =  5.37E-10,  avg # of iterations =  2.0

     total cpu time spent up to now is        6.3 secs

     End of self-consistent calculation

          k = 0.0000 0.0000 0.0000 ( 11324 PWs)   bands (ev):

    -5.3449  -4.4447  -4.3601  -4.2240  -4.1783  -3.9232  -3.8912  -3.4938
    -3.3626  -3.2145  -3.1976  -3.0598  -2.9847  -2.9487  -2.9189  -2.7761
    -2.6740  -2.6403  -2.4453  -2.2373  -2.0480  -1.9695  -1.8603  -1.7781
    -1.6649  -1.5413  -1.4251  -0.9378  -0.7151  -0.5682  -0.5348  -0.4738
    -0.3939  -0.2443  -0.1264   0.0071   0.0441   0.1563   0.1930   0.3063
     0.4064   0.4332   0.5126   0.5713   0.6385   0.6731   0.9395   0.9485
     1.0387   1.1618   1.2400   1.3889   1.4352   1.4834   1.5580   1.5968
     1.6931   1.7280   1.8108   1.9092   2.1383   2.1728   2.2938   2.4270
     2.5819   2.6301   2.6946   2.7766   2.8237   2.8845   2.9913   3.0575
     3.0980   3.1596   3.2100   3.3615   3.4700   3.4975   3.5365   3.6161
     3.7106   4.2097   4.3033   4.3710   4.4105   4.4716   4.6225   4.7090
     4.7137   4.8254   4.8551   4.8997   4.9989   5.0376   5.1520   5.1832
     5.3019   5.3315   5.3601   5.4220   5.4606   5.5138   5.5758   5.6123
     5.6657   5.7357   5.8531   5.8623   5.9025   5.9760   5.9844   6.0939
     6.1828   6.2096   6.3091   6.3276   6.3815   6.4261   6.4779   6.5659
     6.6329   6.6949   6.7549   6.8691   6.8914   6.9733   7.0362   7.0702
     7.1489   7.1567   7.2518   7.3171   7.3820   7.3898   7.4284   7.5733
     7.5847   7.6329   7.7716   7.8186   7.8839   7.9712   8.0248   8.0743
     8.2015   8.2468   8.3352   8.3666   8.4194   8.5794   8.6031   8.6500
     8.7095   8.8014

     the Fermi energy is     7.1018 ev

!    total energy              =    -501.54321222 Ry
     estimated scf accuracy    <       0.00000031 Ry
     smearing contrib. (-TS)   =      -0.15142295 Ry
     internal energy E=F+TS    =    -501.39178927 Ry

     The total energy is F=E-TS. E is the sum of the following terms:
     one-electron contribution =     190.05463039 Ry
     hartree contribution      =      23.10419496 Ry
     xc contribution           =    -151.08482338 Ry
     ewald contribution        =    -563.46579123 Ry

     convergence has been achieved in  19 iterations

     Forces acting on atoms (cartesian axes, Ry/au):

     atom    1 type  1   force =    -0.03977958   -0.02302075    0.02165383
     atom    2 type  1   force =     0.01429367   -0.07251118    0.00182677
     atom    3 type  1   force =    -0.00287628   -0.01396734    0.03044047
     atom    4 type  1   force =     0.00914397    0.00148822    0.02126118
     atom    5 type  1   force =    -0.02932081    0.02722592   -0.05376782
     atom    6 type  1   force =    -0.02234142    0.04028352    0.00045675
     atom    7 type  1   force =     0.00487300   -0.00934586    0.00592718
     atom    8 type  1   force =    -0.02423838    0.06999412    0.02002404
     atom    9 type  1   force =     0.02645910   -0.01351313    0.02137206
     atom   10 type  1   force =     0.04352703   -0.01249128    0.01393375
     atom   11 type  1   force =     0.01451907    0.00325670   -0.00773697
     atom   12 type  1   force =    -0.01632433   -0.01977264    0.02929145
     atom   13 type  1   force =    -0.00211703    0.03014981    0.02394917
     atom   14 type  1   force =     0.00892580   -0.01308929   -0.02562539
     atom   15 type  1   force =     0.00779736   -0.02407457   -0.01860458
     atom   16 type  1   force =    -0.01110153   -0.00089141    0.01720138
     atom   17 type  1   force =     0.02107739    0.01351018   -0.00927308
     atom   18 type  1   force =     0.01278304    0.01476084   -0.05845027
     atom   19 type  1   force =    -0.02613717   -0.01276089   -0.01203196
     atom   20 type  1   force =    -0.01387975    0.01832100   -0.00630555
     atom   21 type  1   force =     0.03014863    0.02101009    0.00623854
     atom   22 type  1   force =     0.02680046    0.03327938   -0.02909109
     atom   23 type  1   force =    -0.01889749   -0.00003363    0.01843072
     atom   24 type  1   force =     0.01502338    0.01588517    0.01576681
     atom   25 type  1   force =    -0.00974539    0.01468826   -0.02522502
     atom   26 type  1   force =    -0.00634308    0.01415553    0.00688033
     atom   27 type  1   force =     0.02239879   -0.06425752    0.00832713
     atom   28 type  1   force =    -0.01130879   -0.04652434   -0.03237504
     atom   29 type  1   force =    -0.04486941    0.01193268    0.01638781
     atom   30 type  1   force =     0.01660305    0.04872139   -0.00265602
     atom   31 type  1   force =    -0.02569558   -0.04635362   -0.02694777
     atom   32 type  1   force =     0.01700696   -0.00188111   -0.03934793
     atom   33 type  1   force =     0.05880428   -0.05703655   -0.06419450
     atom   34 type  1   force =     0.02056909    0.03665293    0.03183843
     atom   35 type  1   force =    -0.01830089    0.00723697    0.01534703
     atom   36 type  1   force =    -0.00830332    0.05214873    0.02847716
     atom   37 type  1   force =    -0.01930058   -0.01801932   -0.02161370
     atom   38 type  1   force =    -0.01288796   -0.00354832   -0.01674273
     atom   39 type  1   force =    -0.03799366    0.01626255   -0.01794017
     atom   40 type  1   force =     0.02244062   -0.00666433   -0.01643686
     atom   41 type  1   force =     0.00716096   -0.03211530   -0.02825768
     atom   42 type  1   force =    -0.03362492   -0.03423449    0.09078882
     atom   43 type  1   force =     0.01058205   -0.01260622    0.01735579
     atom   44 type  1   force =     0.05021315   -0.01179479    0.12328644
     atom   45 type  1   force =    -0.01802794   -0.01289835   -0.01005165
     atom   46 type  1   force =     0.03624690   -0.03521752    0.03674796
     atom   47 type  1   force =     0.02796382    0.03753691   -0.01743311
     atom   48 type  1   force =     0.01991448    0.03217766    0.01303672
     atom   49 type  1   force =     0.00398099    0.05633582   -0.04555938
     atom   50 type  1   force =    -0.01099119   -0.00950391    0.01789266
     atom   51 type  1   force =    -0.03572052    0.03106620    0.00467513
     atom   52 type  1   force =     0.01338911   -0.00670587   -0.02612107
     atom   53 type  1   force =    -0.01478233   -0.01144195   -0.02394390
     atom   54 type  1   force =    -0.04234386    0.02753195    0.02641533
     atom   55 type  1   force =     0.02159085    0.04599672   -0.04676993
     atom   56 type  1   force =     0.00569630   -0.05599772    0.02137961
     atom   57 type  1   force =    -0.06144057    0.05267156   -0.07359148
     atom   58 type  1   force =     0.00682565   -0.04626923    0.03291268
     atom   59 type  1   force =    -0.01024282   -0.01669644   -0.01230461
     atom   60 type  1   force =     0.00666516    0.00033335   -0.01060436
     atom   61 type  1   force =     0.00759120    0.01432811   -0.02143605
     atom   62 type  1   force =     0.01875036   -0.01980438    0.03355893
     atom   63 type  1   force =    -0.00986638   -0.00225904    0.00389956
     atom   64 type  1   force =     0.00903724   -0.02163997    0.02345808

     Total force =     0.407258     Total SCF correction =     0.001098


     Computing stress (Cartesian axis) and pressure

          total   stress  (Ry/bohr**3)                   (kbar)     P=      -23.71
  -0.00022650   0.00003827  -0.00005969          -33.32        5.63       -8.78
   0.00003827  -0.00013013  -0.00001604            5.63      -19.14       -2.36
  -0.00005969  -0.00001604  -0.00012682           -8.78       -2.36      -18.66

 
     init_run     :      0.95s CPU      4.29s WALL (       1 calls)
     electrons    :      1.75s CPU      1.98s WALL (       1 calls)
     forces       :      0.03s CPU      0.03s WALL (       1 calls)
     stress       :      0.14s CPU      0.14s WALL (       1 calls)

     Called by init_run:
     wfcinit      :      0.46s CPU      3.56s WALL (       1 calls)
                                        3.56s GPU  (       1 calls)
     potinit      :      0.03s CPU      0.20s WALL (       1 calls)
     hinit0       :      0.45s CPU      0.47s WALL (       1 calls)

     Called by electrons:
     c_bands      :      1.16s CPU      1.30s WALL (      20 calls)
     sum_band     :      0.31s CPU      0.35s WALL (      20 calls)
     v_of_rho     :      0.13s CPU      0.29s WALL (      20 calls)
     mix_rho      :      0.14s CPU      0.17s WALL (      20 calls)

     Called by c_bands:
     init_us_2    :      0.05s CPU      0.06s WALL (      41 calls)
     init_us_2:gp :      0.05s CPU      0.06s WALL (      41 calls)
     regterg      :      1.01s CPU      1.14s WALL (      20 calls)

     Called by *egterg:
     rdiaghg      :      0.44s CPU      1.10s WALL (      93 calls)
                                        1.08s GPU  (      93 calls)
     h_psi        :      0.86s CPU      3.39s WALL (      95 calls)
                                        3.39s GPU  (      95 calls)
     g_psi        :      0.00s CPU      0.00s WALL (      74 calls)
                                        0.00s GPU  (      74 calls)

     Called by h_psi:
     h_psi:calbec :      0.44s CPU      2.90s WALL (      95 calls)
                                        2.90s GPU  (      95 calls)
     vloc_psi     :      0.37s CPU      0.43s WALL (      95 calls)
                                        0.42s GPU  (      95 calls)
     add_vuspsi   :      0.03s CPU      0.05s WALL (      95 calls)
                                        0.05s GPU  (      95 calls)

     General routines
     calbec       :      0.44s CPU      2.91s WALL (     100 calls)
     fft          :      0.55s CPU      0.73s WALL (     167 calls)
                                        0.19s GPU  (     106 calls)
     ffts         :      0.03s CPU      0.03s WALL (      20 calls)
     fftw         :      0.45s CPU      0.57s WALL (    2120 calls)
                                        0.50s GPU  (    2120 calls)
 
     Parallel routines
 
     PWSCF        :      2.91s CPU      6.52s WALL

 
   This run was terminated on:  10:41: 1  10May2023            

=------------------------------------------------------------------------------=
   JOB DONE.
=------------------------------------------------------------------------------=
