An instance of this daemon is already running

     Program PWSCF v.7.1 starts on 10May2023 at 10:52:19 

     This program is part of the open-source Quantum ESPRESSO suite
     for quantum simulation of materials; please cite
         "P. Giannozzi et al., J. Phys.:Condens. Matter 21 395502 (2009);
         "P. Giannozzi et al., J. Phys.:Condens. Matter 29 465901 (2017);
         "P. Giannozzi et al., J. Chem. Phys. 152 154105 (2020);
          URL http://www.quantum-espresso.org", 
     in publications or presentations arising from this work. More details at
     http://www.quantum-espresso.org/quote

     Parallel version (MPI & OpenMP), running on       4 processor cores
     Number of MPI processes:                 4
     Threads/MPI process:                     1

     MPI processes distributed on     1 nodes
     153137 MiB available memory on the printing compute node when the environment starts
 
     Reading input from pw-si-79.in
Warning: card &CELL ignored
Warning: card / ignored

     Current dimensions of program PWSCF are:
     Max number of different atomic species (ntypx) = 10
     Max number of k-points (npk) =  40000
     Max angular momentum in pseudopotentials (lmaxx) =  4

     IMPORTANT: XC functional enforced from input :
     Exchange-correlation= PBE
                           (   1   4   3   4   0   0   0)
     Any further DFT definition will be discarded
     Please, verify this is what you really want


     gamma-point specific algorithms are used
 
     K-points division:     npool     =       2
     R & G space division:  proc/nbgrp/npool/nimage =       2
     Subspace diagonalization in iterative solution of the eigenvalue problem:
     a serial algorithm will be used

     Message from routine divide_et_impera:
     suboptimal parallelization: some nodes have no k-points
 
     Parallelization info
     --------------------
     sticks:   dense  smooth     PW     G-vecs:    dense   smooth      PW
     Min        1953    1953    519                91863    91863   12442
     Max        1956    1956    522                91868    91868   12443
     Sum        3909    3909   1041               183731   183731   24885
 
     Using Slab Decomposition
 


     bravais-lattice index     =            0
     lattice parameter (alat)  =      20.2237  a.u.
     unit-cell volume          =    8271.4573 (a.u.)^3
     number of atoms/cell      =           64
     number of atomic types    =            1
     number of electrons       =       256.00
     number of Kohn-Sham states=          154
     kinetic-energy cutoff     =      30.0000  Ry
     charge density cutoff     =     120.0000  Ry
     scf convergence threshold =      1.0E-06
     mixing beta               =       0.5000
     number of iterations used =            8  plain     mixing
     Exchange-correlation= PBE
                           (   1   4   3   4   0   0   0)

     GPU acceleration is ACTIVE.
     GPU-aware MPI enabled

     Message from routine print_cuda_info:
     High GPU oversubscription detected. Are you sure this is what you want?

     celldm(1)=  20.223703  celldm(2)=   0.000000  celldm(3)=   0.000000
     celldm(4)=   0.000000  celldm(5)=   0.000000  celldm(6)=   0.000000

     crystal axes: (cart. coord. in units of alat)
               a(1) = (   1.000000   0.000000   0.000000 )  
               a(2) = (   0.000000   1.000000   0.000000 )  
               a(3) = (   0.000000   0.000000   1.000000 )  

     reciprocal axes: (cart. coord. in units 2 pi/alat)
               b(1) = (  1.000000  0.000000  0.000000 )  
               b(2) = (  0.000000  1.000000  0.000000 )  
               b(3) = (  0.000000  0.000000  1.000000 )  


     PseudoPot. # 1 for Si read from file:
     /home/ppiaggi/pseudos/Si_ONCV_PBE_sr.upf
     MD5 check sum: 8553c464762ac42b85b1eed164b4d029
     Pseudo is Norm-conserving, Zval =  4.0
     Generated using ONCVPSP code by D. R. Hamann
     Using radial grid of 1510 points,  4 beta functions with: 
                l(1) =   0
                l(2) =   0
                l(3) =   1
                l(4) =   1

     atomic species   valence    mass     pseudopotential
        Si             4.00    28.08500     Si( 1.00)

     No symmetry found



   Cartesian axes

     site n.     atom                  positions (alat units)
         1           Si  tau(   1) = (   0.2792230   0.4697040   0.3246270  )
         2           Si  tau(   2) = (   0.0747180   0.6861370   0.3114780  )
         3           Si  tau(   3) = (   0.5569840   0.2703020   0.9314730  )
         4           Si  tau(   4) = (   0.3082240   0.8200160   0.8710520  )
         5           Si  tau(   5) = (   0.5481250   0.6877960   0.3630330  )
         6           Si  tau(   6) = (   0.3846120   0.8671150   0.2279200  )
         7           Si  tau(   7) = (   0.1555550   0.9068060   0.2064450  )
         8           Si  tau(   8) = (   0.1419790   0.1335560   0.2575380  )
         9           Si  tau(   9) = (   0.9146140   0.6107810   0.5020810  )
        10           Si  tau(  10) = (   0.0480104   0.7555700   0.6314980  )
        11           Si  tau(  11) = (   0.0548707   0.4232220   0.3834360  )
        12           Si  tau(  12) = (   0.0347819   0.5752390   0.1170100  )
        13           Si  tau(  13) = (   0.7546920   0.6953800   0.7179410  )
        14           Si  tau(  14) = (   0.1728590   0.9521200   0.7368350  )
        15           Si  tau(  15) = (   0.2485970   0.2036170   0.7380140  )
        16           Si  tau(  16) = (   0.5493330   0.2095140   0.2582320  )
        17           Si  tau(  17) = (   0.1244000   0.7781030   0.9933960  )
        18           Si  tau(  18) = (   0.7652390   0.2493120   0.9959720  )
        19           Si  tau(  19) = (   0.4802680   0.1534240   0.5568480  )
        20           Si  tau(  20) = (   0.6011350   0.6522270   0.8757540  )
        21           Si  tau(  21) = (   0.9690750   0.6340810   0.8268030  )
        22           Si  tau(  22) = (   0.8753690   0.0538002   0.2988200  )
        23           Si  tau(  23) = (   0.9833440   0.0472541   0.4926380  )
        24           Si  tau(  24) = (   0.8805040   0.1405920   0.8601850  )
        25           Si  tau(  25) = (   0.5015530   0.6799810   0.6508600  )
        26           Si  tau(  26) = (   0.7836420   0.8774090   0.0224046  )
        27           Si  tau(  27) = (   0.3094260   0.6050080   0.7990650  )
        28           Si  tau(  28) = (   0.5152860   0.5035980   0.4972060  )
        29           Si  tau(  29) = (   0.6819760   0.2463960   0.4508170  )
        30           Si  tau(  30) = (   0.2949170   0.6909700   0.3900770  )
        31           Si  tau(  31) = (   0.2478570   0.0461824   0.0055470  )
        32           Si  tau(  32) = (   0.7316160   0.4714280   0.3910430  )
        33           Si  tau(  33) = (   0.6999360   0.0677841   0.1349730  )
        34           Si  tau(  34) = (   0.5747580   0.3782760   0.6762800  )
        35           Si  tau(  35) = (   0.9698730   0.2250430   0.1282100  )
        36           Si  tau(  36) = (   0.8505340   0.2549670   0.6246720  )
        37           Si  tau(  37) = (   0.2018830   0.4723140   0.9824040  )
        38           Si  tau(  38) = (   0.4229240   0.1189180   0.8208780  )
        39           Si  tau(  39) = (   0.9711920   0.9189050   0.8784570  )
        40           Si  tau(  40) = (   0.0699448   0.2410240   0.5645590  )
        41           Si  tau(  41) = (   0.3612040   0.8381110   0.6037700  )
        42           Si  tau(  42) = (   0.4951540   0.9697850   0.4406990  )
        43           Si  tau(  43) = (   0.6618750   0.0665170   0.7171970  )
        44           Si  tau(  44) = (   0.6472060   0.5814270   0.1752670  )
        45           Si  tau(  45) = (   0.1575200   0.8890240   0.4538120  )
        46           Si  tau(  46) = (   0.8799910   0.9087900   0.6630380  )
        47           Si  tau(  47) = (   0.7106340   0.9974700   0.4831600  )
        48           Si  tau(  48) = (   0.3586540   0.5207850   0.1257700  )
        49           Si  tau(  49) = (   0.8202230   0.6351550   0.0645203  )
        50           Si  tau(  50) = (   0.4856680   0.0358531   0.0714146  )
        51           Si  tau(  51) = (   0.5387810   0.3929170   0.1343620  )
        52           Si  tau(  52) = (   0.8838860   0.8246520   0.2421160  )
        53           Si  tau(  53) = (   0.3336780   0.2463220   0.3375480  )
        54           Si  tau(  54) = (   0.4878530   0.4887160   0.8852920  )
        55           Si  tau(  55) = (   0.7839100   0.4735990   0.6466880  )
        56           Si  tau(  56) = (   0.7361270   0.7794090   0.4282020  )
        57           Si  tau(  57) = (   0.4619900   0.7358740   0.0710386  )
        58           Si  tau(  58) = (   0.8052470   0.4741440   0.9190730  )
        59           Si  tau(  59) = (   0.5529640   0.9108390   0.9107950  )
        60           Si  tau(  60) = (   0.0223108   0.4069150   0.7787890  )
        61           Si  tau(  61) = (   0.1738020   0.5137350   0.6521480  )
        62           Si  tau(  62) = (   0.3184240   0.3612780   0.5584520  )
        63           Si  tau(  63) = (   0.1211620   0.2103280   0.9353430  )
        64           Si  tau(  64) = (   0.9001350   0.4234000   0.2229180  )

     number of k points=     1  Fermi-Dirac smearing, width (Ry)=  0.0100
                       cart. coord. in units 2pi/alat
        k(    1) = (   0.0000000   0.0000000   0.0000000), wk =   2.0000000

     Dense  grid:    91866 G-vectors     FFT dimensions: (  72,  72,  72)

     Estimated max dynamical RAM per process >     147.18 MB

     Estimated total dynamical RAM >     566.30 MB

     Initial potential from superposition of free atoms

     starting charge     255.9608, renormalised to     256.0000
     Starting wfcs are  256 randomized atomic wfcs

     total cpu time spent up to now is        4.4 secs

     Self-consistent Calculation

     iteration #  1     ecut=    30.00 Ry     beta= 0.50
     Davidson diagonalization with overlap
     ethr =  1.00E-02,  avg # of iterations =  3.0

     Threshold (ethr) on eigenvalues was too large:
     Diagonalizing with lowered threshold

     Davidson diagonalization with overlap
     ethr =  4.10E-04,  avg # of iterations =  4.0

     total cpu time spent up to now is        4.5 secs

     total energy              =    -501.25161820 Ry
     estimated scf accuracy    <       1.24373046 Ry

     iteration #  2     ecut=    30.00 Ry     beta= 0.50
     Davidson diagonalization with overlap
     ethr =  4.86E-04,  avg # of iterations =  4.0

     total cpu time spent up to now is        4.7 secs

     total energy              =    -500.58568849 Ry
     estimated scf accuracy    <       8.63369859 Ry

     iteration #  3     ecut=    30.00 Ry     beta= 0.50
     Davidson diagonalization with overlap
     ethr =  4.86E-04,  avg # of iterations =  5.0

     total cpu time spent up to now is        4.8 secs

     total energy              =    -501.41298659 Ry
     estimated scf accuracy    <       1.30593412 Ry

     iteration #  4     ecut=    30.00 Ry     beta= 0.50
     Davidson diagonalization with overlap
     ethr =  4.86E-04,  avg # of iterations =  2.0

     total cpu time spent up to now is        4.8 secs

     total energy              =    -501.46691284 Ry
     estimated scf accuracy    <       0.52567217 Ry

     iteration #  5     ecut=    30.00 Ry     beta= 0.50
     Davidson diagonalization with overlap
     ethr =  2.05E-04,  avg # of iterations =  2.0

     total cpu time spent up to now is        4.9 secs

     total energy              =    -501.49709388 Ry
     estimated scf accuracy    <       0.42984471 Ry

     iteration #  6     ecut=    30.00 Ry     beta= 0.50
     Davidson diagonalization with overlap
     ethr =  1.68E-04,  avg # of iterations =  2.0

     total cpu time spent up to now is        5.0 secs

     total energy              =    -501.53630362 Ry
     estimated scf accuracy    <       0.05824748 Ry

     iteration #  7     ecut=    30.00 Ry     beta= 0.50
     Davidson diagonalization with overlap
     ethr =  2.28E-05,  avg # of iterations =  8.0

     total cpu time spent up to now is        5.1 secs

     total energy              =    -501.54315129 Ry
     estimated scf accuracy    <       0.01499292 Ry

     iteration #  8     ecut=    30.00 Ry     beta= 0.50
     Davidson diagonalization with overlap
     ethr =  5.86E-06,  avg # of iterations = 16.0

     total cpu time spent up to now is        5.3 secs

     total energy              =    -501.54424150 Ry
     estimated scf accuracy    <       0.02378202 Ry

     iteration #  9     ecut=    30.00 Ry     beta= 0.50
     Davidson diagonalization with overlap
     ethr =  5.86E-06,  avg # of iterations =  2.0

     total cpu time spent up to now is        5.4 secs

     total energy              =    -501.54602748 Ry
     estimated scf accuracy    <       0.00184061 Ry

     iteration # 10     ecut=    30.00 Ry     beta= 0.50
     Davidson diagonalization with overlap
     ethr =  7.19E-07,  avg # of iterations =  4.0

     total cpu time spent up to now is        5.5 secs

     total energy              =    -501.54617981 Ry
     estimated scf accuracy    <       0.00219877 Ry

     iteration # 11     ecut=    30.00 Ry     beta= 0.50
     Davidson diagonalization with overlap
     ethr =  7.19E-07,  avg # of iterations =  2.0

     total cpu time spent up to now is        5.5 secs

     total energy              =    -501.54632760 Ry
     estimated scf accuracy    <       0.00039062 Ry

     iteration # 12     ecut=    30.00 Ry     beta= 0.50
     Davidson diagonalization with overlap
     ethr =  1.53E-07,  avg # of iterations =  3.0

     total cpu time spent up to now is        5.6 secs

     total energy              =    -501.54638348 Ry
     estimated scf accuracy    <       0.00025846 Ry

     iteration # 13     ecut=    30.00 Ry     beta= 0.50
     Davidson diagonalization with overlap
     ethr =  1.01E-07,  avg # of iterations =  2.0

     total cpu time spent up to now is        5.7 secs

     total energy              =    -501.54639782 Ry
     estimated scf accuracy    <       0.00008684 Ry

     iteration # 14     ecut=    30.00 Ry     beta= 0.50
     Davidson diagonalization with overlap
     ethr =  3.39E-08,  avg # of iterations =  2.0

     total cpu time spent up to now is        5.8 secs

     total energy              =    -501.54640526 Ry
     estimated scf accuracy    <       0.00001504 Ry

     iteration # 15     ecut=    30.00 Ry     beta= 0.50
     Davidson diagonalization with overlap
     ethr =  5.88E-09,  avg # of iterations =  4.0

     total cpu time spent up to now is        5.9 secs

     total energy              =    -501.54640647 Ry
     estimated scf accuracy    <       0.00002461 Ry

     iteration # 16     ecut=    30.00 Ry     beta= 0.50
     Davidson diagonalization with overlap
     ethr =  5.88E-09,  avg # of iterations =  2.0

     total cpu time spent up to now is        6.0 secs

     total energy              =    -501.54640827 Ry
     estimated scf accuracy    <       0.00000544 Ry

     iteration # 17     ecut=    30.00 Ry     beta= 0.50
     Davidson diagonalization with overlap
     ethr =  2.13E-09,  avg # of iterations =  2.0

     total cpu time spent up to now is        6.0 secs

     total energy              =    -501.54640875 Ry
     estimated scf accuracy    <       0.00000117 Ry

     iteration # 18     ecut=    30.00 Ry     beta= 0.50
     Davidson diagonalization with overlap
     ethr =  4.59E-10,  avg # of iterations =  3.0

     total cpu time spent up to now is        6.1 secs

     total energy              =    -501.54640886 Ry
     estimated scf accuracy    <       0.00000124 Ry

     iteration # 19     ecut=    30.00 Ry     beta= 0.50
     Davidson diagonalization with overlap
     ethr =  4.59E-10,  avg # of iterations =  2.0

     total cpu time spent up to now is        6.2 secs

     End of self-consistent calculation

          k = 0.0000 0.0000 0.0000 ( 11492 PWs)   bands (ev):

    -5.4449  -4.4636  -4.4023  -4.3523  -4.2620  -4.2369  -4.0104  -3.5267
    -3.4256  -3.2938  -3.2435  -3.1638  -3.1072  -3.0670  -2.9918  -2.9338
    -2.8216  -2.7653  -2.7061  -2.2095  -2.1385  -2.0366  -1.8568  -1.6768
    -1.6099  -1.4928  -1.3303  -1.0766  -0.9513  -0.8656  -0.7540  -0.6120
    -0.5065  -0.3227  -0.1716  -0.1286  -0.0953   0.0102   0.0885   0.1441
     0.1665   0.2987   0.3512   0.5196   0.5550   0.6360   0.7024   0.7394
     0.8557   0.9544   1.0003   1.0972   1.1815   1.2948   1.3841   1.4822
     1.5575   1.6590   1.7380   1.9681   1.9939   2.1008   2.2654   2.3617
     2.4842   2.5714   2.5940   2.6902   2.7631   2.8146   2.8555   2.9138
     3.0129   3.1079   3.1572   3.2268   3.3662   3.3819   3.4796   3.5353
     3.8860   4.0248   4.0922   4.2207   4.2518   4.3592   4.4349   4.5391
     4.5720   4.6084   4.7268   4.7829   4.8505   4.9455   4.9673   5.0359
     5.1159   5.1322   5.1978   5.2202   5.3145   5.3305   5.4170   5.4785
     5.5522   5.6038   5.6385   5.6744   5.7172   5.8941   5.9187   5.9323
     5.9567   6.0472   6.1131   6.1429   6.1794   6.3210   6.3740   6.4101
     6.4402   6.4964   6.5789   6.6731   6.7090   6.7219   6.8171   6.9214
     6.9554   7.0532   7.0823   7.1343   7.2103   7.2843   7.3657   7.4069
     7.4802   7.5728   7.6510   7.7314   7.7512   7.7747   7.8626   7.9593
     7.9985   8.0338   8.0949   8.1162   8.1759   8.2601   8.3291   8.4452
     8.4759   8.5851

     the Fermi energy is     6.9301 ev

!    total energy              =    -501.54640887 Ry
     estimated scf accuracy    <       0.00000013 Ry
     smearing contrib. (-TS)   =      -0.13945404 Ry
     internal energy E=F+TS    =    -501.40695483 Ry

     The total energy is F=E-TS. E is the sum of the following terms:
     one-electron contribution =     181.95873762 Ry
     hartree contribution      =      25.53309048 Ry
     xc contribution           =    -150.44194497 Ry
     ewald contribution        =    -558.45683797 Ry

     convergence has been achieved in  19 iterations

     Forces acting on atoms (cartesian axes, Ry/au):

     atom    1 type  1   force =    -0.01975646   -0.01764657    0.03331156
     atom    2 type  1   force =    -0.01887972    0.01263509   -0.00373104
     atom    3 type  1   force =    -0.01529237    0.01563919   -0.00096823
     atom    4 type  1   force =     0.02304157   -0.00084027    0.01687803
     atom    5 type  1   force =    -0.00358731   -0.01722955   -0.02742585
     atom    6 type  1   force =     0.00181554    0.02701618    0.03836644
     atom    7 type  1   force =     0.01641173    0.00710897   -0.02047949
     atom    8 type  1   force =    -0.00319835   -0.01517459   -0.01618482
     atom    9 type  1   force =    -0.00743632   -0.00789038   -0.02060517
     atom   10 type  1   force =     0.00826733   -0.00650448   -0.00848248
     atom   11 type  1   force =     0.01074833    0.01232207    0.03737461
     atom   12 type  1   force =     0.00970250    0.02583709   -0.01082537
     atom   13 type  1   force =     0.01707946    0.00240763   -0.00117713
     atom   14 type  1   force =     0.02075651   -0.00751373   -0.01358138
     atom   15 type  1   force =    -0.04461297    0.00120208   -0.03979841
     atom   16 type  1   force =     0.00658329    0.00639931    0.02096995
     atom   17 type  1   force =    -0.03742748    0.00018513    0.02208575
     atom   18 type  1   force =    -0.01337865    0.02237232    0.04818637
     atom   19 type  1   force =     0.01472449    0.03762565    0.02197771
     atom   20 type  1   force =     0.07484063    0.08872723   -0.00016155
     atom   21 type  1   force =    -0.00675739    0.01146480   -0.00673738
     atom   22 type  1   force =    -0.01296374   -0.01483780   -0.01703040
     atom   23 type  1   force =     0.02258385   -0.01364048    0.00721977
     atom   24 type  1   force =     0.04798324   -0.02511128   -0.06534773
     atom   25 type  1   force =     0.01040209   -0.05629417    0.02501507
     atom   26 type  1   force =    -0.00063474   -0.02062100    0.00928366
     atom   27 type  1   force =     0.02118879   -0.00922887    0.00959160
     atom   28 type  1   force =    -0.02163635    0.01004458    0.01522244
     atom   29 type  1   force =    -0.01388327   -0.00264756   -0.00988822
     atom   30 type  1   force =     0.01767046    0.02676395    0.00066533
     atom   31 type  1   force =     0.04909785   -0.02459608    0.02621696
     atom   32 type  1   force =    -0.00175010   -0.00480708   -0.02392442
     atom   33 type  1   force =     0.00819416    0.02557038    0.01205466
     atom   34 type  1   force =     0.00244103    0.00848189    0.01362438
     atom   35 type  1   force =    -0.00003207   -0.00066605    0.01564155
     atom   36 type  1   force =     0.00908347   -0.00287975    0.02303395
     atom   37 type  1   force =    -0.03888829   -0.00424749   -0.01280914
     atom   38 type  1   force =     0.05019347   -0.03101953    0.01340829
     atom   39 type  1   force =    -0.02510139    0.01611664   -0.00258967
     atom   40 type  1   force =    -0.00422315    0.01809532   -0.01832670
     atom   41 type  1   force =    -0.02411399    0.03948209   -0.05234110
     atom   42 type  1   force =    -0.04004893   -0.04483932   -0.00903635
     atom   43 type  1   force =    -0.00673749   -0.01043044   -0.00648341
     atom   44 type  1   force =    -0.03876569    0.00173165    0.06155673
     atom   45 type  1   force =    -0.01330852   -0.02412774    0.02767453
     atom   46 type  1   force =    -0.00983952   -0.01388341    0.00783139
     atom   47 type  1   force =    -0.00195051    0.01583554    0.01549102
     atom   48 type  1   force =     0.02741623    0.01643636   -0.01944046
     atom   49 type  1   force =     0.03008508    0.05297827   -0.01513269
     atom   50 type  1   force =    -0.05472275    0.01101442    0.03007990
     atom   51 type  1   force =     0.00219058   -0.00151577   -0.01842821
     atom   52 type  1   force =    -0.01207173    0.01841006    0.01773636
     atom   53 type  1   force =     0.00408565    0.01041986    0.01824125
     atom   54 type  1   force =    -0.04931324   -0.09446768   -0.02934447
     atom   55 type  1   force =     0.00217253    0.00495801    0.02416499
     atom   56 type  1   force =     0.04727584   -0.00531130   -0.01482970
     atom   57 type  1   force =     0.01427850   -0.03723357   -0.02335009
     atom   58 type  1   force =    -0.01142279   -0.01268169   -0.05601043
     atom   59 type  1   force =     0.01073615   -0.02970224   -0.02734041
     atom   60 type  1   force =    -0.01478473   -0.00438603    0.00497620
     atom   61 type  1   force =    -0.01801148    0.01210238   -0.00667723
     atom   62 type  1   force =     0.03118799   -0.02311490   -0.02028248
     atom   63 type  1   force =    -0.03070925    0.04813563   -0.00376753
     atom   64 type  1   force =     0.00300234   -0.02242900    0.00465869

     Total force =     0.350350     Total SCF correction =     0.000697


     Computing stress (Cartesian axis) and pressure

          total   stress  (Ry/bohr**3)                   (kbar)     P=      -40.25
  -0.00023531   0.00000725   0.00001955          -34.62        1.07        2.88
   0.00000725  -0.00033661   0.00008516            1.07      -49.52       12.53
   0.00001955   0.00008516  -0.00024895            2.88       12.53      -36.62

 
     init_run     :      1.02s CPU      4.29s WALL (       1 calls)
     electrons    :      1.72s CPU      1.85s WALL (       1 calls)
     forces       :      0.03s CPU      0.03s WALL (       1 calls)
     stress       :      0.14s CPU      0.14s WALL (       1 calls)

     Called by init_run:
     wfcinit      :      0.51s CPU      3.63s WALL (       1 calls)
                                        3.63s GPU  (       1 calls)
     potinit      :      0.03s CPU      0.13s WALL (       1 calls)
     hinit0       :      0.45s CPU      0.47s WALL (       1 calls)

     Called by electrons:
     c_bands      :      1.12s CPU      1.18s WALL (      20 calls)
     sum_band     :      0.31s CPU      0.34s WALL (      20 calls)
     v_of_rho     :      0.13s CPU      0.23s WALL (      20 calls)
     mix_rho      :      0.14s CPU      0.15s WALL (      20 calls)

     Called by c_bands:
     init_us_2    :      0.05s CPU      0.05s WALL (      41 calls)
     init_us_2:gp :      0.05s CPU      0.05s WALL (      41 calls)
     regterg      :      0.99s CPU      1.04s WALL (      20 calls)

     Called by *egterg:
     rdiaghg      :      0.42s CPU      1.07s WALL (      93 calls)
                                        1.05s GPU  (      93 calls)
     h_psi        :      0.92s CPU      3.41s WALL (      95 calls)
                                        3.41s GPU  (      95 calls)
     g_psi        :      0.00s CPU      0.00s WALL (      74 calls)
                                        0.00s GPU  (      74 calls)

     Called by h_psi:
     h_psi:calbec :      0.50s CPU      2.93s WALL (      95 calls)
                                        2.93s GPU  (      95 calls)
     vloc_psi     :      0.36s CPU      0.42s WALL (      95 calls)
                                        0.42s GPU  (      95 calls)
     add_vuspsi   :      0.03s CPU      0.05s WALL (      95 calls)
                                        0.05s GPU  (      95 calls)

     General routines
     calbec       :      0.50s CPU      2.93s WALL (     100 calls)
     fft          :      0.54s CPU      0.67s WALL (     167 calls)
                                        0.13s GPU  (     106 calls)
     ffts         :      0.03s CPU      0.03s WALL (      20 calls)
     fftw         :      0.44s CPU      0.57s WALL (    2116 calls)
                                        0.50s GPU  (    2116 calls)
 
     Parallel routines
 
     PWSCF        :      2.94s CPU      6.38s WALL

 
   This run was terminated on:  10:52:25  10May2023            

=------------------------------------------------------------------------------=
   JOB DONE.
=------------------------------------------------------------------------------=
