An instance of this daemon is already running
An instance of this daemon is already running

     Program PWSCF v.7.1 starts on 10May2023 at 10:50: 5 

     This program is part of the open-source Quantum ESPRESSO suite
     for quantum simulation of materials; please cite
         "P. Giannozzi et al., J. Phys.:Condens. Matter 21 395502 (2009);
         "P. Giannozzi et al., J. Phys.:Condens. Matter 29 465901 (2017);
         "P. Giannozzi et al., J. Chem. Phys. 152 154105 (2020);
          URL http://www.quantum-espresso.org", 
     in publications or presentations arising from this work. More details at
     http://www.quantum-espresso.org/quote

     Parallel version (MPI & OpenMP), running on       4 processor cores
     Number of MPI processes:                 4
     Threads/MPI process:                     1

     MPI processes distributed on     1 nodes
     153142 MiB available memory on the printing compute node when the environment starts
 
     Reading input from pw-si-64.in
Warning: card &CELL ignored
Warning: card / ignored

     Current dimensions of program PWSCF are:
     Max number of different atomic species (ntypx) = 10
     Max number of k-points (npk) =  40000
     Max angular momentum in pseudopotentials (lmaxx) =  4

     IMPORTANT: XC functional enforced from input :
     Exchange-correlation= PBE
                           (   1   4   3   4   0   0   0)
     Any further DFT definition will be discarded
     Please, verify this is what you really want


     gamma-point specific algorithms are used
 
     K-points division:     npool     =       2
     R & G space division:  proc/nbgrp/npool/nimage =       2
     Subspace diagonalization in iterative solution of the eigenvalue problem:
     a serial algorithm will be used

     Message from routine divide_et_impera:
     suboptimal parallelization: some nodes have no k-points
 
     Parallelization info
     --------------------
     sticks:   dense  smooth     PW     G-vecs:    dense   smooth      PW
     Min        1904    1904    502                88764    88764   12054
     Max        1905    1905    503                88769    88769   12057
     Sum        3809    3809   1005               177533   177533   24111
 
     Using Slab Decomposition
 


     bravais-lattice index     =            0
     lattice parameter (alat)  =      20.0086  a.u.
     unit-cell volume          =    8010.3661 (a.u.)^3
     number of atoms/cell      =           64
     number of atomic types    =            1
     number of electrons       =       256.00
     number of Kohn-Sham states=          154
     kinetic-energy cutoff     =      30.0000  Ry
     charge density cutoff     =     120.0000  Ry
     scf convergence threshold =      1.0E-06
     mixing beta               =       0.5000
     number of iterations used =            8  plain     mixing
     Exchange-correlation= PBE
                           (   1   4   3   4   0   0   0)

     GPU acceleration is ACTIVE.
     GPU-aware MPI enabled

     Message from routine print_cuda_info:
     High GPU oversubscription detected. Are you sure this is what you want?

     celldm(1)=  20.008635  celldm(2)=   0.000000  celldm(3)=   0.000000
     celldm(4)=   0.000000  celldm(5)=   0.000000  celldm(6)=   0.000000

     crystal axes: (cart. coord. in units of alat)
               a(1) = (   1.000000   0.000000   0.000000 )  
               a(2) = (   0.000000   1.000000   0.000000 )  
               a(3) = (   0.000000   0.000000   1.000000 )  

     reciprocal axes: (cart. coord. in units 2 pi/alat)
               b(1) = (  1.000000  0.000000  0.000000 )  
               b(2) = (  0.000000  1.000000  0.000000 )  
               b(3) = (  0.000000  0.000000  1.000000 )  


     PseudoPot. # 1 for Si read from file:
     /home/ppiaggi/pseudos/Si_ONCV_PBE_sr.upf
     MD5 check sum: 8553c464762ac42b85b1eed164b4d029
     Pseudo is Norm-conserving, Zval =  4.0
     Generated using ONCVPSP code by D. R. Hamann
     Using radial grid of 1510 points,  4 beta functions with: 
                l(1) =   0
                l(2) =   0
                l(3) =   1
                l(4) =   1

     atomic species   valence    mass     pseudopotential
        Si             4.00    28.08500     Si( 1.00)

     No symmetry found



   Cartesian axes

     site n.     atom                  positions (alat units)
         1           Si  tau(   1) = (   0.0844879   0.1814850   0.2568840  )
         2           Si  tau(   2) = (   0.5883840   0.3689350   0.8424620  )
         3           Si  tau(   3) = (   0.5788100   0.7325290   0.9839330  )
         4           Si  tau(   4) = (   0.8429590   0.9466480   0.7924390  )
         5           Si  tau(   5) = (   0.5015780   0.7280860   0.4169510  )
         6           Si  tau(   6) = (   0.4198810   0.5302550   0.7406380  )
         7           Si  tau(   7) = (   0.7048590   0.7579630   0.7823310  )
         8           Si  tau(   8) = (   0.0974349   0.2948350   0.5717410  )
         9           Si  tau(   9) = (   0.4265060   0.2760430   0.3997420  )
        10           Si  tau(  10) = (   0.0579164   0.8074640   0.7171590  )
        11           Si  tau(  11) = (   0.8929970   0.6462460   0.8610240  )
        12           Si  tau(  12) = (   0.6584010   0.2407910   0.1077870  )
        13           Si  tau(  13) = (   0.2052480   0.3605640   0.3747690  )
        14           Si  tau(  14) = (   0.5243850   0.1112670   0.4670390  )
        15           Si  tau(  15) = (   0.2335380   0.7302810   0.6093270  )
        16           Si  tau(  16) = (   0.6692830   0.7007520   0.5614740  )
        17           Si  tau(  17) = (   0.7343040   0.1983990   0.6309590  )
        18           Si  tau(  18) = (   0.2094770   0.7473620   0.3557540  )
        19           Si  tau(  19) = (   0.4011460   0.3284610   0.1544920  )
        20           Si  tau(  20) = (   0.0651487   0.5670920   0.4243950  )
        21           Si  tau(  21) = (   0.5582770   0.9275500   0.7664910  )
        22           Si  tau(  22) = (   0.2681340   0.1565670   0.8388190  )
        23           Si  tau(  23) = (   0.3292420   0.2762010   0.6399700  )
        24           Si  tau(  24) = (   0.7800700   0.7392200   0.2018460  )
        25           Si  tau(  25) = (   0.8949920   0.3074560   0.1080330  )
        26           Si  tau(  26) = (   0.0400489   0.5549660   0.6915720  )
        27           Si  tau(  27) = (   0.8254570   0.4387910   0.3348750  )
        28           Si  tau(  28) = (   0.2321990   0.0640153   0.4926900  )
        29           Si  tau(  29) = (   0.5569880   0.4821630   0.0498967  )
        30           Si  tau(  30) = (   0.2666790   0.9894190   0.1475820  )
        31           Si  tau(  31) = (   0.7083510   0.1146060   0.9238800  )
        32           Si  tau(  32) = (   0.2259510   0.4361150   0.7754780  )
        33           Si  tau(  33) = (   0.2480270   0.7954310   0.0175586  )
        34           Si  tau(  34) = (   0.3550780   0.9346300   0.6841540  )
        35           Si  tau(  35) = (   0.8184930   0.0287616   0.1767690  )
        36           Si  tau(  36) = (   0.9104220   0.9039670   0.0214410  )
        37           Si  tau(  37) = (   0.5493120   0.6221020   0.2273670  )
        38           Si  tau(  38) = (   0.3685500   0.5662990   0.5081120  )
        39           Si  tau(  39) = (   0.2098800   0.4678870   0.1563640  )
        40           Si  tau(  40) = (   0.8546510   0.6705500   0.3977250  )
        41           Si  tau(  41) = (   0.9802640   0.0983173   0.6784630  )
        42           Si  tau(  42) = (   0.3561160   0.9231900   0.3729110  )
        43           Si  tau(  43) = (   0.5678620   0.9666810   0.0672790  )
        44           Si  tau(  44) = (   0.6346520   0.4857290   0.6005980  )
        45           Si  tau(  45) = (   0.5272790   0.1724650   0.7712670  )
        46           Si  tau(  46) = (   0.7171180   0.1906430   0.3579270  )
        47           Si  tau(  47) = (   0.0070940   0.5121420   0.1854970  )
        48           Si  tau(  48) = (   0.3944930   0.6980840   0.8686090  )
        49           Si  tau(  49) = (   0.9120380   0.8890620   0.5276720  )
        50           Si  tau(  50) = (   0.6330660   0.9272440   0.2891650  )
        51           Si  tau(  51) = (   0.8072090   0.4353200   0.8084140  )
        52           Si  tau(  52) = (   0.8893460   0.2467170   0.8753200  )
        53           Si  tau(  53) = (   0.3493290   0.6621590   0.1745990  )
        54           Si  tau(  54) = (   0.0613340   0.9044250   0.2924810  )
        55           Si  tau(  55) = (   0.5846300   0.4196860   0.3749200  )
        56           Si  tau(  56) = (   0.9443590   0.1041260   0.4208330  )
        57           Si  tau(  57) = (   0.8758220   0.3992830   0.5697600  )
        58           Si  tau(  58) = (   0.1231470   0.3330000   0.9778420  )
        59           Si  tau(  59) = (   0.0876599   0.0761060   0.0363384  )
        60           Si  tau(  60) = (   0.0466893   0.7145780   0.1072120  )
        61           Si  tau(  61) = (   0.4080000   0.1364300   0.0249516  )
        62           Si  tau(  62) = (   0.7845770   0.5408730   0.0536152  )
        63           Si  tau(  63) = (   0.6784000   0.9452220   0.5359960  )
        64           Si  tau(  64) = (   0.1641980   0.9452800   0.8343000  )

     number of k points=     1  Fermi-Dirac smearing, width (Ry)=  0.0100
                       cart. coord. in units 2pi/alat
        k(    1) = (   0.0000000   0.0000000   0.0000000), wk =   2.0000000

     Dense  grid:    88767 G-vectors     FFT dimensions: (  72,  72,  72)

     Estimated max dynamical RAM per process >     143.00 MB

     Estimated total dynamical RAM >     550.32 MB

     Initial potential from superposition of free atoms

     starting charge     255.9608, renormalised to     256.0000
     Starting wfcs are  256 randomized atomic wfcs

     total cpu time spent up to now is        4.3 secs

     Self-consistent Calculation

     iteration #  1     ecut=    30.00 Ry     beta= 0.50
     Davidson diagonalization with overlap
     ethr =  1.00E-02,  avg # of iterations =  3.0

     Threshold (ethr) on eigenvalues was too large:
     Diagonalizing with lowered threshold

     Davidson diagonalization with overlap
     ethr =  3.65E-04,  avg # of iterations =  5.0

     total cpu time spent up to now is        4.5 secs

     total energy              =    -501.23514429 Ry
     estimated scf accuracy    <       1.11793404 Ry

     iteration #  2     ecut=    30.00 Ry     beta= 0.50
     Davidson diagonalization with overlap
     ethr =  4.37E-04,  avg # of iterations =  3.0

     total cpu time spent up to now is        4.6 secs

     total energy              =    -500.88106252 Ry
     estimated scf accuracy    <       3.63346382 Ry

     iteration #  3     ecut=    30.00 Ry     beta= 0.50
     Davidson diagonalization with overlap
     ethr =  4.37E-04,  avg # of iterations =  4.0

     total cpu time spent up to now is        4.7 secs

     total energy              =    -501.23431322 Ry
     estimated scf accuracy    <       2.23371265 Ry

     iteration #  4     ecut=    30.00 Ry     beta= 0.50
     Davidson diagonalization with overlap
     ethr =  4.37E-04,  avg # of iterations =  2.0

     total cpu time spent up to now is        4.8 secs

     total energy              =    -501.38081124 Ry
     estimated scf accuracy    <       0.54782798 Ry

     iteration #  5     ecut=    30.00 Ry     beta= 0.50
     Davidson diagonalization with overlap
     ethr =  2.14E-04,  avg # of iterations =  2.0

     total cpu time spent up to now is        4.8 secs

     total energy              =    -501.42423298 Ry
     estimated scf accuracy    <       0.14900436 Ry

     iteration #  6     ecut=    30.00 Ry     beta= 0.50
     Davidson diagonalization with overlap
     ethr =  5.82E-05,  avg # of iterations =  3.0

     total cpu time spent up to now is        4.9 secs

     total energy              =    -501.43908096 Ry
     estimated scf accuracy    <       0.17567047 Ry

     iteration #  7     ecut=    30.00 Ry     beta= 0.50
     Davidson diagonalization with overlap
     ethr =  5.82E-05,  avg # of iterations =  2.0

     total cpu time spent up to now is        5.0 secs

     total energy              =    -501.45196441 Ry
     estimated scf accuracy    <       0.00928081 Ry

     iteration #  8     ecut=    30.00 Ry     beta= 0.50
     Davidson diagonalization with overlap
     ethr =  3.63E-06,  avg # of iterations = 18.0

     total cpu time spent up to now is        5.2 secs

     total energy              =    -501.45290593 Ry
     estimated scf accuracy    <       0.01954917 Ry

     iteration #  9     ecut=    30.00 Ry     beta= 0.50
     Davidson diagonalization with overlap
     ethr =  3.63E-06,  avg # of iterations =  2.0

     total cpu time spent up to now is        5.3 secs

     total energy              =    -501.45447651 Ry
     estimated scf accuracy    <       0.00438905 Ry

     iteration # 10     ecut=    30.00 Ry     beta= 0.50
     Davidson diagonalization with overlap
     ethr =  1.71E-06,  avg # of iterations =  2.0

     total cpu time spent up to now is        5.4 secs

     total energy              =    -501.45479446 Ry
     estimated scf accuracy    <       0.00073877 Ry

     iteration # 11     ecut=    30.00 Ry     beta= 0.50
     Davidson diagonalization with overlap
     ethr =  2.89E-07,  avg # of iterations =  3.0

     total cpu time spent up to now is        5.5 secs

     total energy              =    -501.45484013 Ry
     estimated scf accuracy    <       0.00066978 Ry

     iteration # 12     ecut=    30.00 Ry     beta= 0.50
     Davidson diagonalization with overlap
     ethr =  2.62E-07,  avg # of iterations =  2.0

     total cpu time spent up to now is        5.5 secs

     total energy              =    -501.45490672 Ry
     estimated scf accuracy    <       0.00021995 Ry

     iteration # 13     ecut=    30.00 Ry     beta= 0.50
     Davidson diagonalization with overlap
     ethr =  8.59E-08,  avg # of iterations =  1.0

     total cpu time spent up to now is        5.6 secs

     total energy              =    -501.45492174 Ry
     estimated scf accuracy    <       0.00004747 Ry

     iteration # 14     ecut=    30.00 Ry     beta= 0.50
     Davidson diagonalization with overlap
     ethr =  1.85E-08,  avg # of iterations =  3.0

     total cpu time spent up to now is        5.7 secs

     total energy              =    -501.45492643 Ry
     estimated scf accuracy    <       0.00004943 Ry

     iteration # 15     ecut=    30.00 Ry     beta= 0.50
     Davidson diagonalization with overlap
     ethr =  1.85E-08,  avg # of iterations =  2.0

     total cpu time spent up to now is        5.8 secs

     total energy              =    -501.45492912 Ry
     estimated scf accuracy    <       0.00000595 Ry

     iteration # 16     ecut=    30.00 Ry     beta= 0.50
     Davidson diagonalization with overlap
     ethr =  2.33E-09,  avg # of iterations =  4.0

     total cpu time spent up to now is        5.9 secs

     total energy              =    -501.45493013 Ry
     estimated scf accuracy    <       0.00000873 Ry

     iteration # 17     ecut=    30.00 Ry     beta= 0.50
     Davidson diagonalization with overlap
     ethr =  2.33E-09,  avg # of iterations =  3.0

     total cpu time spent up to now is        6.0 secs

     total energy              =    -501.45493047 Ry
     estimated scf accuracy    <       0.00000707 Ry

     iteration # 18     ecut=    30.00 Ry     beta= 0.50
     Davidson diagonalization with overlap
     ethr =  2.33E-09,  avg # of iterations =  2.0

     total cpu time spent up to now is        6.1 secs

     End of self-consistent calculation

          k = 0.0000 0.0000 0.0000 ( 11072 PWs)   bands (ev):

    -5.2284  -4.2571  -4.1048  -4.0807  -4.0192  -3.9634  -3.8699  -3.2718
    -3.1201  -3.1119  -2.9880  -2.9543  -2.8682  -2.8073  -2.6961  -2.6475
    -2.5624  -2.4699  -2.3871  -1.9918  -1.8236  -1.7085  -1.5964  -1.4512
    -1.3514  -1.2882  -1.2088  -0.7512  -0.6652  -0.4859  -0.3981  -0.2924
    -0.1098   0.0310   0.1358   0.2169   0.2537   0.3311   0.4425   0.4957
     0.5604   0.6335   0.7149   0.8042   0.8848   0.9738   1.0508   1.1489
     1.2280   1.2593   1.3319   1.4659   1.5056   1.6091   1.7833   1.8791
     1.9322   2.0344   2.1729   2.2294   2.2529   2.3323   2.4398   2.5477
     2.7073   2.7372   2.8187   2.8941   2.9617   3.0512   3.0893   3.1180
     3.1802   3.2629   3.3718   3.4737   3.4924   3.5785   3.6983   3.7924
     3.8425   4.3881   4.4808   4.5771   4.6447   4.7194   4.7913   4.8848
     5.0128   5.0647   5.0917   5.1504   5.2489   5.2755   5.3875   5.4651
     5.5100   5.5517   5.5792   5.6422   5.7279   5.7688   5.8461   5.9396
     5.9696   6.0403   6.0966   6.1461   6.2178   6.2556   6.3224   6.3764
     6.4041   6.4768   6.5130   6.5671   6.6508   6.6660   6.7698   6.8319
     6.8523   6.8748   6.9337   7.0035   7.0280   7.0945   7.1417   7.1715
     7.3311   7.3626   7.4757   7.5136   7.5318   7.6438   7.7169   7.7930
     7.8426   7.8645   7.9141   8.0458   8.0583   8.1274   8.2632   8.3114
     8.3272   8.3714   8.4563   8.4767   8.5740   8.6574   8.7595   8.8192
     8.8833   9.0007

     the Fermi energy is     7.2718 ev

!    total energy              =    -501.45493039 Ry
     estimated scf accuracy    <       0.00000072 Ry
     smearing contrib. (-TS)   =      -0.14083389 Ry
     internal energy E=F+TS    =    -501.31409650 Ry

     The total energy is F=E-TS. E is the sum of the following terms:
     one-electron contribution =     197.55138597 Ry
     hartree contribution      =      21.16651855 Ry
     xc contribution           =    -151.04932240 Ry
     ewald contribution        =    -568.98267862 Ry

     convergence has been achieved in  18 iterations

     Forces acting on atoms (cartesian axes, Ry/au):

     atom    1 type  1   force =    -0.01064289    0.00789676   -0.00342817
     atom    2 type  1   force =     0.00204815    0.04075696    0.00527315
     atom    3 type  1   force =     0.01304324    0.00593379   -0.01333016
     atom    4 type  1   force =    -0.00166427   -0.00534787    0.02991677
     atom    5 type  1   force =    -0.02274649    0.04545792    0.00577855
     atom    6 type  1   force =     0.03794120   -0.02938829   -0.04566275
     atom    7 type  1   force =     0.03065887   -0.00797778    0.01512229
     atom    8 type  1   force =    -0.01254543   -0.01477924    0.00539338
     atom    9 type  1   force =    -0.09902538    0.07253897   -0.05292043
     atom   10 type  1   force =    -0.08112976   -0.04175981   -0.05421757
     atom   11 type  1   force =     0.00287567   -0.01015045    0.01342133
     atom   12 type  1   force =     0.01785683    0.01326820    0.02644444
     atom   13 type  1   force =     0.00717001   -0.00001608   -0.01201016
     atom   14 type  1   force =     0.06289667   -0.10182087    0.03170237
     atom   15 type  1   force =     0.02579767    0.00434549   -0.02616996
     atom   16 type  1   force =     0.04254755    0.01206249    0.00060945
     atom   17 type  1   force =     0.01960961   -0.00327265   -0.00977843
     atom   18 type  1   force =    -0.00087709   -0.03540704    0.00396737
     atom   19 type  1   force =     0.02292851   -0.00377802    0.01045352
     atom   20 type  1   force =    -0.00495679    0.01121739   -0.00534731
     atom   21 type  1   force =    -0.01291704    0.03491161   -0.00973266
     atom   22 type  1   force =    -0.01246251    0.00516874    0.02222719
     atom   23 type  1   force =    -0.01261335   -0.03556968    0.00934775
     atom   24 type  1   force =    -0.03377106   -0.00022514   -0.01498797
     atom   25 type  1   force =     0.00657412    0.00855484    0.00722378
     atom   26 type  1   force =     0.00427819    0.01167051   -0.02187845
     atom   27 type  1   force =    -0.00200644    0.00035418    0.01737713
     atom   28 type  1   force =     0.01155371    0.01224352    0.04024661
     atom   29 type  1   force =     0.00597233   -0.02925949   -0.02670578
     atom   30 type  1   force =     0.00154373   -0.00735278    0.01984656
     atom   31 type  1   force =    -0.00035630   -0.03116496   -0.01357314
     atom   32 type  1   force =    -0.05593201   -0.03663659    0.01561819
     atom   33 type  1   force =    -0.01301820   -0.00061971   -0.00350936
     atom   34 type  1   force =    -0.04811619   -0.01334890   -0.03403355
     atom   35 type  1   force =    -0.02379000    0.02725469    0.03640052
     atom   36 type  1   force =     0.03865670   -0.03561381   -0.01852235
     atom   37 type  1   force =     0.06747253   -0.01157362    0.02521062
     atom   38 type  1   force =    -0.01290828   -0.01007023    0.02539396
     atom   39 type  1   force =     0.08387820   -0.01617477    0.00991277
     atom   40 type  1   force =    -0.00220755    0.01064318    0.04231801
     atom   41 type  1   force =    -0.01649529    0.02526453    0.00761921
     atom   42 type  1   force =     0.03410494   -0.01285001   -0.02778562
     atom   43 type  1   force =     0.01188306   -0.00599349   -0.00309024
     atom   44 type  1   force =    -0.00494751   -0.01662776   -0.01471280
     atom   45 type  1   force =     0.01103860   -0.02207380   -0.01565388
     atom   46 type  1   force =     0.00694900   -0.00302746   -0.02570597
     atom   47 type  1   force =    -0.05347196    0.00072551    0.03571971
     atom   48 type  1   force =     0.00104723    0.05540928    0.02747528
     atom   49 type  1   force =     0.00670442   -0.00921451   -0.01127133
     atom   50 type  1   force =     0.00194499    0.00222105   -0.00935781
     atom   51 type  1   force =    -0.01423873    0.02246226   -0.01208643
     atom   52 type  1   force =     0.04357255   -0.01777430    0.00883160
     atom   53 type  1   force =    -0.08449183   -0.00800967   -0.00049045
     atom   54 type  1   force =    -0.02107536    0.02035604   -0.01326989
     atom   55 type  1   force =     0.03093758    0.04140676    0.00524090
     atom   56 type  1   force =    -0.01279032   -0.02141591    0.00838397
     atom   57 type  1   force =    -0.00039679   -0.01869285    0.01184820
     atom   58 type  1   force =     0.00179933   -0.02794391   -0.03462997
     atom   59 type  1   force =     0.00308638    0.00565087   -0.02334361
     atom   60 type  1   force =    -0.01656839    0.06637768   -0.02042474
     atom   61 type  1   force =    -0.01207625   -0.01188129    0.00519282
     atom   62 type  1   force =    -0.00239522    0.01648565   -0.01657164
     atom   63 type  1   force =     0.00124131    0.01221089    0.01472422
     atom   64 type  1   force =     0.04302181    0.06396296    0.04996096

     Total force =     0.388894     Total SCF correction =     0.001721


     Computing stress (Cartesian axis) and pressure

          total   stress  (Ry/bohr**3)                   (kbar)     P=      -31.18
  -0.00014325  -0.00000970   0.00003143          -21.07       -1.43        4.62
  -0.00000970  -0.00012770   0.00001434           -1.43      -18.79        2.11
   0.00003143   0.00001434  -0.00036493            4.62        2.11      -53.68

 
     init_run     :      0.90s CPU      4.21s WALL (       1 calls)
     electrons    :      1.61s CPU      1.81s WALL (       1 calls)
     forces       :      0.03s CPU      0.03s WALL (       1 calls)
     stress       :      0.14s CPU      0.14s WALL (       1 calls)

     Called by init_run:
     wfcinit      :      0.39s CPU      3.55s WALL (       1 calls)
                                        3.55s GPU  (       1 calls)
     potinit      :      0.04s CPU      0.12s WALL (       1 calls)
     hinit0       :      0.45s CPU      0.47s WALL (       1 calls)

     Called by electrons:
     c_bands      :      1.04s CPU      1.15s WALL (      19 calls)
     sum_band     :      0.29s CPU      0.36s WALL (      19 calls)
     v_of_rho     :      0.13s CPU      0.21s WALL (      19 calls)
     mix_rho      :      0.13s CPU      0.14s WALL (      19 calls)

     Called by c_bands:
     init_us_2    :      0.05s CPU      0.05s WALL (      39 calls)
     init_us_2:gp :      0.05s CPU      0.05s WALL (      39 calls)
     regterg      :      0.90s CPU      1.00s WALL (      19 calls)

     Called by *egterg:
     rdiaghg      :      0.38s CPU      1.02s WALL (      84 calls)
                                        1.00s GPU  (      84 calls)
     h_psi        :      0.76s CPU      3.33s WALL (      86 calls)
                                        3.33s GPU  (      86 calls)
     g_psi        :      0.00s CPU      0.00s WALL (      66 calls)
                                        0.00s GPU  (      66 calls)

     Called by h_psi:
     h_psi:calbec :      0.38s CPU      2.87s WALL (      86 calls)
                                        2.87s GPU  (      86 calls)
     vloc_psi     :      0.34s CPU      0.41s WALL (      86 calls)
                                        0.41s GPU  (      86 calls)
     add_vuspsi   :      0.03s CPU      0.05s WALL (      86 calls)
                                        0.05s GPU  (      86 calls)

     General routines
     calbec       :      0.38s CPU      2.87s WALL (      91 calls)
     fft          :      0.55s CPU      0.66s WALL (     159 calls)
                                        0.11s GPU  (     101 calls)
     ffts         :      0.03s CPU      0.03s WALL (      19 calls)
     fftw         :      0.41s CPU      0.56s WALL (    2001 calls)
                                        0.49s GPU  (    2001 calls)
 
     Parallel routines
 
     PWSCF        :      2.71s CPU      6.26s WALL

 
   This run was terminated on:  10:50:11  10May2023            

=------------------------------------------------------------------------------=
   JOB DONE.
=------------------------------------------------------------------------------=
