An instance of this daemon is already running
An instance of this daemon is already running

     Program PWSCF v.7.1 starts on 10May2023 at 11:18: 2 

     This program is part of the open-source Quantum ESPRESSO suite
     for quantum simulation of materials; please cite
         "P. Giannozzi et al., J. Phys.:Condens. Matter 21 395502 (2009);
         "P. Giannozzi et al., J. Phys.:Condens. Matter 29 465901 (2017);
         "P. Giannozzi et al., J. Chem. Phys. 152 154105 (2020);
          URL http://www.quantum-espresso.org", 
     in publications or presentations arising from this work. More details at
     http://www.quantum-espresso.org/quote

     Parallel version (MPI & OpenMP), running on       4 processor cores
     Number of MPI processes:                 4
     Threads/MPI process:                     1

     MPI processes distributed on     1 nodes
     153047 MiB available memory on the printing compute node when the environment starts
 
     Reading input from pw-si-57.in
Warning: card &CELL ignored
Warning: card / ignored

     Current dimensions of program PWSCF are:
     Max number of different atomic species (ntypx) = 10
     Max number of k-points (npk) =  40000
     Max angular momentum in pseudopotentials (lmaxx) =  4

     IMPORTANT: XC functional enforced from input :
     Exchange-correlation= PBE
                           (   1   4   3   4   0   0   0)
     Any further DFT definition will be discarded
     Please, verify this is what you really want


     gamma-point specific algorithms are used
 
     K-points division:     npool     =       2
     R & G space division:  proc/nbgrp/npool/nimage =       2
     Subspace diagonalization in iterative solution of the eigenvalue problem:
     a serial algorithm will be used

     Message from routine divide_et_impera:
     suboptimal parallelization: some nodes have no k-points
 
     Parallelization info
     --------------------
     sticks:   dense  smooth     PW     G-vecs:    dense   smooth      PW
     Min        2072    2072    549               100360   100360   13652
     Max        2075    2075    552               100363   100363   13653
     Sum        4147    4147   1101               200723   200723   27305
 
     Using Slab Decomposition
 


     bravais-lattice index     =            0
     lattice parameter (alat)  =      20.6167  a.u.
     unit-cell volume          =    9042.6408 (a.u.)^3
     number of atoms/cell      =           64
     number of atomic types    =            1
     number of electrons       =       256.00
     number of Kohn-Sham states=          154
     kinetic-energy cutoff     =      30.0000  Ry
     charge density cutoff     =     120.0000  Ry
     scf convergence threshold =      1.0E-06
     mixing beta               =       0.5000
     number of iterations used =            8  plain     mixing
     Exchange-correlation= PBE
                           (   1   4   3   4   0   0   0)

     GPU acceleration is ACTIVE.
     GPU-aware MPI enabled

     Message from routine print_cuda_info:
     High GPU oversubscription detected. Are you sure this is what you want?

     celldm(1)=  20.616719  celldm(2)=   0.000000  celldm(3)=   0.000000
     celldm(4)=   0.000000  celldm(5)=   0.000000  celldm(6)=   0.000000

     crystal axes: (cart. coord. in units of alat)
               a(1) = (   1.000000   0.000000   0.000000 )  
               a(2) = (   0.000000   1.023297   0.000000 )  
               a(3) = (   0.000000   0.000000   1.008405 )  

     reciprocal axes: (cart. coord. in units 2 pi/alat)
               b(1) = (  1.000000  0.000000  0.000000 )  
               b(2) = (  0.000000  0.977233  0.000000 )  
               b(3) = (  0.000000  0.000000  0.991665 )  


     PseudoPot. # 1 for Si read from file:
     /home/ppiaggi/pseudos/Si_ONCV_PBE_sr.upf
     MD5 check sum: 8553c464762ac42b85b1eed164b4d029
     Pseudo is Norm-conserving, Zval =  4.0
     Generated using ONCVPSP code by D. R. Hamann
     Using radial grid of 1510 points,  4 beta functions with: 
                l(1) =   0
                l(2) =   0
                l(3) =   1
                l(4) =   1

     atomic species   valence    mass     pseudopotential
        Si             4.00    28.08500     Si( 1.00)

     No symmetry found



   Cartesian axes

     site n.     atom                  positions (alat units)
         1           Si  tau(   1) = (  -0.0002907   0.0040625  -0.0016002  )
         2           Si  tau(   2) = (   0.0015868   0.2540755   0.2548245  )
         3           Si  tau(   3) = (   0.2479129   0.0022813   0.2553721  )
         4           Si  tau(   4) = (   0.2442153   0.2544700  -0.0044791  )
         5           Si  tau(   5) = (   0.1206179   0.1288604   0.1314911  )
         6           Si  tau(   6) = (   0.4892595   0.0001189   0.0019902  )
         7           Si  tau(   7) = (   0.4908534   0.2605888   0.2594733  )
         8           Si  tau(   8) = (   0.6130313   0.1264599   0.1270408  )
         9           Si  tau(   9) = (   0.7374348  -0.0025853   0.2563047  )
        10           Si  tau(  10) = (   0.7325250   0.2605852   0.0023744  )
        11           Si  tau(  11) = (  -0.0029698   0.5108297   0.0034090  )
        12           Si  tau(  12) = (   0.2466369   0.5163447   0.2542210  )
        13           Si  tau(  13) = (   0.1204672   0.6374428   0.1278541  )
        14           Si  tau(  14) = (   0.3674654   0.3882455   0.1253238  )
        15           Si  tau(  15) = (   0.4909874   0.5149537  -0.0030427  )
        16           Si  tau(  16) = (   0.6087524   0.6437150   0.1302837  )
        17           Si  tau(  17) = (   0.8589659   0.3817696   0.1253028  )
        18           Si  tau(  18) = (   0.7371410   0.5100843   0.2512820  )
        19           Si  tau(  19) = (   0.0023244   0.7711272   0.2565919  )
        20           Si  tau(  20) = (   0.2463870   0.7670359  -0.0019767  )
        21           Si  tau(  21) = (   0.3644639   0.8940140   0.1249840  )
        22           Si  tau(  22) = (   0.4865832   0.7743500   0.2575196  )
        23           Si  tau(  23) = (   0.7352546   0.7681715  -0.0009674  )
        24           Si  tau(  24) = (   0.8575513   0.8968866   0.1313539  )
        25           Si  tau(  25) = (  -0.0007702   0.0009748   0.5086410  )
        26           Si  tau(  26) = (   0.2485545   0.2532237   0.5127565  )
        27           Si  tau(  27) = (   0.1259557   0.1248472   0.6408927  )
        28           Si  tau(  28) = (   0.3710990   0.1283663   0.3842174  )
        29           Si  tau(  29) = (   0.4945493   0.0021294   0.5144541  )
        30           Si  tau(  30) = (   0.6133978   0.1272458   0.6419516  )
        31           Si  tau(  31) = (   0.8540589   0.1288678   0.3866157  )
        32           Si  tau(  32) = (   0.7392143   0.2601164   0.5100158  )
        33           Si  tau(  33) = (   0.1206676   0.3809935   0.3874942  )
        34           Si  tau(  34) = (  -0.0032069   0.5087308   0.5074995  )
        35           Si  tau(  35) = (   0.1261537   0.6413139   0.6390494  )
        36           Si  tau(  36) = (   0.6104164   0.3812453   0.3844103  )
        37           Si  tau(  37) = (   0.3701992   0.6437602   0.3860545  )
        38           Si  tau(  38) = (   0.3707390   0.3820615   0.6403104  )
        39           Si  tau(  39) = (   0.4865531   0.5168471   0.5081535  )
        40           Si  tau(  40) = (   0.6123082   0.6441187   0.6407700  )
        41           Si  tau(  41) = (   0.8574705   0.6389784   0.3837962  )
        42           Si  tau(  42) = (   0.8571436   0.3845771   0.6370614  )
        43           Si  tau(  43) = (   0.1202379   0.8974804   0.3834655  )
        44           Si  tau(  44) = (   0.2463928   0.7656183   0.5111342  )
        45           Si  tau(  45) = (   0.6128735   0.8997653   0.3794360  )
        46           Si  tau(  46) = (   0.3716760   0.8986446   0.6370446  )
        47           Si  tau(  47) = (   0.7318424   0.7667185   0.5133312  )
        48           Si  tau(  48) = (   0.8546211   0.9020698   0.6349959  )
        49           Si  tau(  49) = (   0.0013863   0.2585944   0.7687135  )
        50           Si  tau(  50) = (   0.2482463  -0.0033345   0.7630709  )
        51           Si  tau(  51) = (   0.3661929   0.1328613   0.8935266  )
        52           Si  tau(  52) = (   0.4866723   0.2564004   0.7703876  )
        53           Si  tau(  53) = (   0.7382125   0.0020497   0.7706154  )
        54           Si  tau(  54) = (   0.8547865   0.1286773   0.8933697  )
        55           Si  tau(  55) = (   0.1224707   0.3805652   0.8918257  )
        56           Si  tau(  56) = (   0.2460278   0.5086965   0.7651308  )
        57           Si  tau(  57) = (   0.6122606   0.3841371   0.8943385  )
        58           Si  tau(  58) = (   0.3646282   0.6373617   0.8908649  )
        59           Si  tau(  59) = (   0.7347672   0.5086905   0.7674573  )
        60           Si  tau(  60) = (   0.8581742   0.6445144   0.8910704  )
        61           Si  tau(  61) = (  -0.0010719   0.7745419   0.7700289  )
        62           Si  tau(  62) = (   0.1233649   0.9026653   0.8958877  )
        63           Si  tau(  63) = (   0.4914761   0.7721388   0.7692733  )
        64           Si  tau(  64) = (   0.6122228   0.8958860   0.8963842  )

     number of k points=     1  Fermi-Dirac smearing, width (Ry)=  0.0100
                       cart. coord. in units 2pi/alat
        k(    1) = (   0.0000000   0.0000000   0.0000000), wk =   2.0000000

     Dense  grid:   100362 G-vectors     FFT dimensions: (  72,  75,  75)

     Estimated max dynamical RAM per process >     160.69 MB

     Estimated total dynamical RAM >     618.26 MB

     Initial potential from superposition of free atoms

     starting charge     255.9608, renormalised to     256.0000
     Starting wfcs are  256 randomized atomic wfcs

     total cpu time spent up to now is        4.1 secs

     Self-consistent Calculation

     iteration #  1     ecut=    30.00 Ry     beta= 0.50
     Davidson diagonalization with overlap
     ethr =  1.00E-02,  avg # of iterations =  3.0

     Threshold (ethr) on eigenvalues was too large:
     Diagonalizing with lowered threshold

     Davidson diagonalization with overlap
     ethr =  6.34E-04,  avg # of iterations =  4.0

     total cpu time spent up to now is        4.3 secs

     total energy              =    -503.78494805 Ry
     estimated scf accuracy    <       1.79622326 Ry

     iteration #  2     ecut=    30.00 Ry     beta= 0.50
     Davidson diagonalization with overlap
     ethr =  7.02E-04,  avg # of iterations =  1.0

     total cpu time spent up to now is        4.4 secs

     total energy              =    -503.76988284 Ry
     estimated scf accuracy    <       0.33833049 Ry

     iteration #  3     ecut=    30.00 Ry     beta= 0.50
     Davidson diagonalization with overlap
     ethr =  1.32E-04,  avg # of iterations =  4.0

     total cpu time spent up to now is        4.5 secs

     total energy              =    -503.78578142 Ry
     estimated scf accuracy    <       0.04351088 Ry

     iteration #  4     ecut=    30.00 Ry     beta= 0.50
     Davidson diagonalization with overlap
     ethr =  1.70E-05,  avg # of iterations = 17.0

     total cpu time spent up to now is        4.7 secs

     total energy              =    -503.79502025 Ry
     estimated scf accuracy    <       0.00896815 Ry

     iteration #  5     ecut=    30.00 Ry     beta= 0.50
     Davidson diagonalization with overlap
     c_bands:  2 eigenvalues not converged
     ethr =  3.50E-06,  avg # of iterations = 20.0

     total cpu time spent up to now is        4.9 secs

     total energy              =    -503.79653394 Ry
     estimated scf accuracy    <       0.00156738 Ry

     iteration #  6     ecut=    30.00 Ry     beta= 0.50
     Davidson diagonalization with overlap
     ethr =  6.12E-07,  avg # of iterations =  6.0

     total cpu time spent up to now is        5.0 secs

     total energy              =    -503.79669299 Ry
     estimated scf accuracy    <       0.00036504 Ry

     iteration #  7     ecut=    30.00 Ry     beta= 0.50
     Davidson diagonalization with overlap
     ethr =  1.43E-07,  avg # of iterations =  4.0

     total cpu time spent up to now is        5.1 secs

     total energy              =    -503.79674197 Ry
     estimated scf accuracy    <       0.00005615 Ry

     iteration #  8     ecut=    30.00 Ry     beta= 0.50
     Davidson diagonalization with overlap
     ethr =  2.19E-08,  avg # of iterations =  5.0

     total cpu time spent up to now is        5.3 secs

     total energy              =    -503.79675547 Ry
     estimated scf accuracy    <       0.00002020 Ry

     iteration #  9     ecut=    30.00 Ry     beta= 0.50
     Davidson diagonalization with overlap
     ethr =  7.89E-09,  avg # of iterations =  3.0

     total cpu time spent up to now is        5.4 secs

     total energy              =    -503.79675736 Ry
     estimated scf accuracy    <       0.00000176 Ry

     iteration # 10     ecut=    30.00 Ry     beta= 0.50
     Davidson diagonalization with overlap
     ethr =  6.88E-10,  avg # of iterations =  5.0

     total cpu time spent up to now is        5.5 secs

     End of self-consistent calculation

          k = 0.0000 0.0000 0.0000 ( 12556 PWs)   bands (ev):

    -5.9447  -4.9929  -4.9591  -4.9334  -4.9039  -4.7847  -4.7077  -4.1896
    -4.1159  -4.0825  -4.0418  -3.9924  -3.9465  -3.9198  -3.8925  -3.8655
    -3.8433  -3.7910  -3.7375  -3.6681  -3.6372  -3.5766  -3.3486  -2.1587
    -2.1117  -2.0196  -1.9404  -1.9235  -1.8771  -1.8647  -1.8609  -1.8047
    -1.7866  -1.7430  -1.6938  -1.6590  -1.6426  -1.6207  -1.5795  -1.5479
    -1.5264  -1.1400  -1.0117  -0.9388  -0.8265   0.2454   0.2551   0.2703
     0.2914   0.3293   0.3402   0.3736   0.4183   0.4246   0.4916   0.5322
     0.5648   1.8831   1.8915   1.9430   1.9461   1.9657   1.9833   2.0194
     2.0355   2.0522   2.0698   2.1021   2.1092   2.1188   2.1384   2.1749
     2.1916   2.1974   2.2030   2.2323   2.2481   2.2896   2.3028   2.3109
     2.3583   2.3908   2.4060   2.4572   2.4720   2.4976   2.5194   2.9098
     2.9495   2.9759   3.0581   3.1867   3.1976   3.7757   3.8249   3.8356
     3.9254   3.9662   4.0081   4.0316   4.0458   4.0861   4.0994   4.1165
     4.1453   4.1597   4.3153   4.3209   4.3749   4.4033   4.4415   4.5054
     4.5126   4.5397   4.5574   4.5971   4.6197   4.6567   4.6884   4.7112
     4.7397   4.7970   4.8507   4.8686   5.1895   5.6217   5.8817   6.0025
     6.3510   6.3787   6.4131   6.5086   6.7068   6.7329   6.8251   6.9022
     6.9590   6.9769   7.0180   7.0568   7.0811   7.0908   7.1007   7.1611
     7.9327   7.9572   7.9716   8.0257   8.1276   8.1494   8.1737   8.1835
     8.2101   8.2245

     the Fermi energy is     6.1176 ev

!    total energy              =    -503.79675766 Ry
     estimated scf accuracy    <       0.00000061 Ry
     smearing contrib. (-TS)   =      -0.05535130 Ry
     internal energy E=F+TS    =    -503.74140636 Ry

     The total energy is F=E-TS. E is the sum of the following terms:
     one-electron contribution =     138.71225311 Ry
     hartree contribution      =      38.32489861 Ry
     xc contribution           =    -152.85639670 Ry
     ewald contribution        =    -527.92216138 Ry

     convergence has been achieved in  10 iterations

     Forces acting on atoms (cartesian axes, Ry/au):

     atom    1 type  1   force =    -0.06201135    0.01344173    0.05363405
     atom    2 type  1   force =    -0.06404861    0.01238847    0.01730060
     atom    3 type  1   force =    -0.00990727   -0.00862211    0.00420952
     atom    4 type  1   force =    -0.00896873    0.01480847    0.08113513
     atom    5 type  1   force =     0.01169012   -0.00580215   -0.01992101
     atom    6 type  1   force =    -0.00697564    0.01081607    0.02600992
     atom    7 type  1   force =    -0.00807507   -0.02277235   -0.03321965
     atom    8 type  1   force =    -0.00313447    0.01187017    0.02515677
     atom    9 type  1   force =    -0.00043381    0.02981484   -0.00376046
     atom   10 type  1   force =     0.01675153   -0.03100641    0.02728772
     atom   11 type  1   force =    -0.04072837    0.00363037    0.00346688
     atom   12 type  1   force =    -0.00570215   -0.01692202    0.02074111
     atom   13 type  1   force =    -0.00055714    0.02049841    0.00391049
     atom   14 type  1   force =    -0.00210275   -0.01368821    0.00500967
     atom   15 type  1   force =     0.00071455    0.00301796    0.05143530
     atom   16 type  1   force =     0.01093039   -0.00696106   -0.00243119
     atom   17 type  1   force =     0.04922940    0.00594087    0.01823112
     atom   18 type  1   force =    -0.00917396    0.00588778    0.01665747
     atom   19 type  1   force =    -0.05868192   -0.01553775   -0.00659384
     atom   20 type  1   force =    -0.02495781   -0.00407972    0.03753189
     atom   21 type  1   force =     0.00224499    0.01162293    0.01367398
     atom   22 type  1   force =     0.01038292   -0.01159341   -0.00704743
     atom   23 type  1   force =     0.00478250    0.00251471    0.05959701
     atom   24 type  1   force =     0.05884631   -0.01372711   -0.01982694
     atom   25 type  1   force =    -0.04776507    0.01299813    0.01240119
     atom   26 type  1   force =    -0.00802312    0.00417728   -0.00002819
     atom   27 type  1   force =    -0.02310755    0.01085363   -0.00714252
     atom   28 type  1   force =    -0.00252196   -0.00069630    0.00269597
     atom   29 type  1   force =    -0.00039637    0.00152415   -0.02304558
     atom   30 type  1   force =     0.01108631    0.02277870    0.00471300
     atom   31 type  1   force =     0.06616531   -0.00672168   -0.01892817
     atom   32 type  1   force =    -0.02558202   -0.01788939    0.01457407
     atom   33 type  1   force =     0.01608605    0.00547455   -0.02163240
     atom   34 type  1   force =    -0.03344537    0.02454228    0.02162012
     atom   35 type  1   force =    -0.03657878   -0.01081989    0.00530313
     atom   36 type  1   force =     0.01922643    0.03705845    0.00423069
     atom   37 type  1   force =    -0.02193716   -0.00138038   -0.02652375
     atom   38 type  1   force =    -0.01081608    0.01239599   -0.01549027
     atom   39 type  1   force =     0.03055946   -0.02156432    0.02498278
     atom   40 type  1   force =    -0.01043560   -0.02522924    0.00577793
     atom   41 type  1   force =     0.04118946    0.00253418   -0.00464066
     atom   42 type  1   force =     0.05874866    0.00456108    0.01203745
     atom   43 type  1   force =     0.01962249   -0.00299733    0.00289271
     atom   44 type  1   force =    -0.00220503    0.02834822    0.00137016
     atom   45 type  1   force =    -0.00225129   -0.01646248    0.03073537
     atom   46 type  1   force =    -0.00785354   -0.02439130   -0.00198768
     atom   47 type  1   force =     0.01850142    0.01583475   -0.02281282
     atom   48 type  1   force =     0.05464571   -0.01755043    0.00962985
     atom   49 type  1   force =    -0.05881771   -0.02475425   -0.02975106
     atom   50 type  1   force =     0.00199779    0.01999774    0.01403198
     atom   51 type  1   force =     0.00746288   -0.04986039   -0.04050836
     atom   52 type  1   force =     0.03102097    0.00155179   -0.02073024
     atom   53 type  1   force =    -0.01601315   -0.01153924   -0.02194050
     atom   54 type  1   force =     0.06382972    0.01826887   -0.01332731
     atom   55 type  1   force =    -0.01413572    0.03541400   -0.01837187
     atom   56 type  1   force =    -0.00724919    0.00200006   -0.00945162
     atom   57 type  1   force =    -0.00871982    0.00439890   -0.03984193
     atom   58 type  1   force =     0.00997718    0.01231333   -0.03996524
     atom   59 type  1   force =     0.00956339    0.02284072   -0.01452754
     atom   60 type  1   force =     0.05300075   -0.02850402   -0.02560143
     atom   61 type  1   force =    -0.03621645   -0.00789231   -0.02898500
     atom   62 type  1   force =     0.00405866   -0.02684136   -0.04192761
     atom   63 type  1   force =    -0.00961183   -0.01308018   -0.01352055
     atom   64 type  1   force =     0.00682652    0.01276719   -0.03850222

     Total force =     0.341505     Total SCF correction =     0.001450


     Computing stress (Cartesian axis) and pressure

          total   stress  (Ry/bohr**3)                   (kbar)     P=       -7.56
  -0.00000703  -0.00005198   0.00000062           -1.03       -7.65        0.09
  -0.00005198  -0.00010654   0.00006829           -7.65      -15.67       10.05
   0.00000062   0.00006829  -0.00004069            0.09       10.05       -5.99

 
     init_run     :      1.07s CPU      4.08s WALL (       1 calls)
     electrons    :      1.25s CPU      1.33s WALL (       1 calls)
     forces       :      0.03s CPU      0.04s WALL (       1 calls)
     stress       :      0.16s CPU      0.16s WALL (       1 calls)

     Called by init_run:
     wfcinit      :      0.60s CPU      3.45s WALL (       1 calls)
                                        3.45s GPU  (       1 calls)
     potinit      :      0.15s CPU      0.24s WALL (       1 calls)
     hinit0       :      0.30s CPU      0.33s WALL (       1 calls)

     Called by electrons:
     c_bands      :      0.89s CPU      0.94s WALL (      11 calls)
     sum_band     :      0.19s CPU      0.21s WALL (      11 calls)
     v_of_rho     :      0.09s CPU      0.18s WALL (      11 calls)
     mix_rho      :      0.07s CPU      0.08s WALL (      11 calls)

     Called by c_bands:
     init_us_2    :      0.03s CPU      0.03s WALL (      23 calls)
     init_us_2:gp :      0.03s CPU      0.03s WALL (      23 calls)
     regterg      :      0.81s CPU      0.85s WALL (      11 calls)

     Called by *egterg:
     rdiaghg      :      0.38s CPU      0.98s WALL (      82 calls)
                                        0.96s GPU  (      82 calls)
     h_psi        :      0.90s CPU      3.18s WALL (      84 calls)
                                        3.18s GPU  (      84 calls)
     g_psi        :      0.00s CPU      0.00s WALL (      72 calls)
                                        0.00s GPU  (      72 calls)

     Called by h_psi:
     h_psi:calbec :      0.56s CPU      2.77s WALL (      84 calls)
                                        2.77s GPU  (      84 calls)
     vloc_psi     :      0.30s CPU      0.36s WALL (      84 calls)
                                        0.36s GPU  (      84 calls)
     add_vuspsi   :      0.03s CPU      0.04s WALL (      84 calls)
                                        0.04s GPU  (      84 calls)

     General routines
     calbec       :      0.56s CPU      2.78s WALL (      89 calls)
     fft          :      0.33s CPU      0.44s WALL (      95 calls)
                                        0.11s GPU  (      61 calls)
     ffts         :      0.02s CPU      0.02s WALL (      11 calls)
     fftw         :      0.34s CPU      0.45s WALL (    1237 calls)
                                        0.40s GPU  (    1237 calls)
 
     Parallel routines
 
     PWSCF        :      2.54s CPU      5.68s WALL

 
   This run was terminated on:  11:18: 8  10May2023            

=------------------------------------------------------------------------------=
   JOB DONE.
=------------------------------------------------------------------------------=
