An instance of this daemon is already running
An instance of this daemon is already running

     Program PWSCF v.7.1 starts on 10May2023 at 11:19:34 

     This program is part of the open-source Quantum ESPRESSO suite
     for quantum simulation of materials; please cite
         "P. Giannozzi et al., J. Phys.:Condens. Matter 21 395502 (2009);
         "P. Giannozzi et al., J. Phys.:Condens. Matter 29 465901 (2017);
         "P. Giannozzi et al., J. Chem. Phys. 152 154105 (2020);
          URL http://www.quantum-espresso.org", 
     in publications or presentations arising from this work. More details at
     http://www.quantum-espresso.org/quote

     Parallel version (MPI & OpenMP), running on       4 processor cores
     Number of MPI processes:                 4
     Threads/MPI process:                     1

     MPI processes distributed on     1 nodes
     150314 MiB available memory on the printing compute node when the environment starts
 
     Reading input from pw-si-68.in
Warning: card &CELL ignored
Warning: card / ignored

     Current dimensions of program PWSCF are:
     Max number of different atomic species (ntypx) = 10
     Max number of k-points (npk) =  40000
     Max angular momentum in pseudopotentials (lmaxx) =  4

     IMPORTANT: XC functional enforced from input :
     Exchange-correlation= PBE
                           (   1   4   3   4   0   0   0)
     Any further DFT definition will be discarded
     Please, verify this is what you really want


     gamma-point specific algorithms are used
 
     K-points division:     npool     =       2
     R & G space division:  proc/nbgrp/npool/nimage =       2
     Subspace diagonalization in iterative solution of the eigenvalue problem:
     a serial algorithm will be used

     Message from routine divide_et_impera:
     suboptimal parallelization: some nodes have no k-points
 
     Parallelization info
     --------------------
     sticks:   dense  smooth     PW     G-vecs:    dense   smooth      PW
     Min        2100    2100    553               103544   103544   14080
     Max        2101    2101    556               103549   103549   14081
     Sum        4201    4201   1109               207093   207093   28161
 
     Using Slab Decomposition
 


     bravais-lattice index     =            0
     lattice parameter (alat)  =      20.9898  a.u.
     unit-cell volume          =    9334.4615 (a.u.)^3
     number of atoms/cell      =           64
     number of atomic types    =            1
     number of electrons       =       256.00
     number of Kohn-Sham states=          154
     kinetic-energy cutoff     =      30.0000  Ry
     charge density cutoff     =     120.0000  Ry
     scf convergence threshold =      1.0E-06
     mixing beta               =       0.5000
     number of iterations used =            8  plain     mixing
     Exchange-correlation= PBE
                           (   1   4   3   4   0   0   0)

     GPU acceleration is ACTIVE.
     GPU-aware MPI enabled

     Message from routine print_cuda_info:
     High GPU oversubscription detected. Are you sure this is what you want?

     celldm(1)=  20.989789  celldm(2)=   0.000000  celldm(3)=   0.000000
     celldm(4)=   0.000000  celldm(5)=   0.000000  celldm(6)=   0.000000

     crystal axes: (cart. coord. in units of alat)
               a(1) = (   1.000000   0.000000   0.000000 )  
               a(2) = (   0.000000   1.001855   0.000000 )  
               a(3) = (   0.000000   0.000000   1.007535 )  

     reciprocal axes: (cart. coord. in units 2 pi/alat)
               b(1) = (  1.000000  0.000000  0.000000 )  
               b(2) = (  0.000000  0.998149  0.000000 )  
               b(3) = (  0.000000  0.000000  0.992521 )  


     PseudoPot. # 1 for Si read from file:
     /home/ppiaggi/pseudos/Si_ONCV_PBE_sr.upf
     MD5 check sum: 8553c464762ac42b85b1eed164b4d029
     Pseudo is Norm-conserving, Zval =  4.0
     Generated using ONCVPSP code by D. R. Hamann
     Using radial grid of 1510 points,  4 beta functions with: 
                l(1) =   0
                l(2) =   0
                l(3) =   1
                l(4) =   1

     atomic species   valence    mass     pseudopotential
        Si             4.00    28.08500     Si( 1.00)

     No symmetry found



   Cartesian axes

     site n.     atom                  positions (alat units)
         1           Si  tau(   1) = (  -0.0024180  -0.0022256  -0.0037405  )
         2           Si  tau(   2) = (  -0.0027172   0.2543478   0.2464764  )
         3           Si  tau(   3) = (   0.2512992   0.0024617   0.2493445  )
         4           Si  tau(   4) = (   0.2531313   0.2461875   0.0006819  )
         5           Si  tau(   5) = (   0.1320394   0.1284912   0.1211565  )
         6           Si  tau(   6) = (   0.5088261   0.0032732   0.0032153  )
         7           Si  tau(   7) = (   0.5095985   0.2487133   0.2445635  )
         8           Si  tau(   8) = (   0.6390591   0.1221609   0.1274002  )
         9           Si  tau(   9) = (   0.7619080   0.0004291   0.2463521  )
        10           Si  tau(  10) = (   0.7625172   0.2538841  -0.0044710  )
        11           Si  tau(  11) = (  -0.0022758   0.5043988  -0.0019860  )
        12           Si  tau(  12) = (   0.2577270   0.5006065   0.2483953  )
        13           Si  tau(  13) = (   0.1248236   0.6275686   0.1277003  )
        14           Si  tau(  14) = (   0.3781558   0.3709514   0.1265902  )
        15           Si  tau(  15) = (   0.5147733   0.5016823  -0.0026509  )
        16           Si  tau(  16) = (   0.6375800   0.6247358   0.1220365  )
        17           Si  tau(  17) = (   0.8942331   0.3773985   0.1252163  )
        18           Si  tau(  18) = (   0.7646986   0.5021468   0.2460957  )
        19           Si  tau(  19) = (  -0.0018789   0.7537659   0.2491269  )
        20           Si  tau(  20) = (   0.2573172   0.7479615  -0.0031602  )
        21           Si  tau(  21) = (   0.3845956   0.8760394   0.1203209  )
        22           Si  tau(  22) = (   0.5109501   0.7533056   0.2464449  )
        23           Si  tau(  23) = (   0.7675868   0.7494075   0.0000851  )
        24           Si  tau(  24) = (   0.8913615   0.8715069   0.1242974  )
        25           Si  tau(  25) = (   0.0002276  -0.0010993   0.4946447  )
        26           Si  tau(  26) = (   0.2544112   0.2477008   0.4936535  )
        27           Si  tau(  27) = (   0.1284825   0.1237053   0.6232649  )
        28           Si  tau(  28) = (   0.3864700   0.1260389   0.3745766  )
        29           Si  tau(  29) = (   0.5080730   0.0027874   0.4951494  )
        30           Si  tau(  30) = (   0.6361904   0.1246764   0.6220378  )
        31           Si  tau(  31) = (   0.8922173   0.1261550   0.3713478  )
        32           Si  tau(  32) = (   0.7669046   0.2529916   0.4982162  )
        33           Si  tau(  33) = (   0.1263336   0.3777954   0.3701951  )
        34           Si  tau(  34) = (  -0.0046101   0.5024174   0.5006526  )
        35           Si  tau(  35) = (   0.1319513   0.6244527   0.6221643  )
        36           Si  tau(  36) = (   0.6354857   0.3714639   0.3762994  )
        37           Si  tau(  37) = (   0.3847112   0.6295863   0.3680955  )
        38           Si  tau(  38) = (   0.3861162   0.3718663   0.6225822  )
        39           Si  tau(  39) = (   0.5146125   0.5038439   0.4975222  )
        40           Si  tau(  40) = (   0.6384597   0.6298170   0.6163736  )
        41           Si  tau(  41) = (   0.8936910   0.6273462   0.3693038  )
        42           Si  tau(  42) = (   0.8965311   0.3723566   0.6220796  )
        43           Si  tau(  43) = (   0.1238045   0.8754734   0.3715874  )
        44           Si  tau(  44) = (   0.2572626   0.7521974   0.4938596  )
        45           Si  tau(  45) = (   0.6392263   0.8747005   0.3730345  )
        46           Si  tau(  46) = (   0.3823241   0.8723570   0.6207019  )
        47           Si  tau(  47) = (   0.7617643   0.7472612   0.4921372  )
        48           Si  tau(  48) = (   0.8953989   0.8759387   0.6176350  )
        49           Si  tau(  49) = (  -0.0009305   0.2478888   0.7439420  )
        50           Si  tau(  50) = (   0.2538767  -0.0035573   0.7427133  )
        51           Si  tau(  51) = (   0.3840445   0.1250327   0.8676849  )
        52           Si  tau(  52) = (   0.5072115   0.2494314   0.7479893  )
        53           Si  tau(  53) = (   0.7645526   0.0018568   0.7403421  )
        54           Si  tau(  54) = (   0.8917195   0.1263487   0.8705710  )
        55           Si  tau(  55) = (   0.1247327   0.3719903   0.8667848  )
        56           Si  tau(  56) = (   0.2508191   0.5031488   0.7477460  )
        57           Si  tau(  57) = (   0.6401790   0.3736738   0.8688460  )
        58           Si  tau(  58) = (   0.3796928   0.6285034   0.8657786  )
        59           Si  tau(  59) = (   0.7628516   0.5008472   0.7401370  )
        60           Si  tau(  60) = (   0.8966028   0.6228596   0.8712433  )
        61           Si  tau(  61) = (  -0.0023548   0.7520673   0.7466805  )
        62           Si  tau(  62) = (   0.1241203   0.8756581   0.8714240  )
        63           Si  tau(  63) = (   0.5080420   0.7535471   0.7410871  )
        64           Si  tau(  64) = (   0.6333114   0.8796970   0.8720918  )

     number of k points=     1  Fermi-Dirac smearing, width (Ry)=  0.0100
                       cart. coord. in units 2pi/alat
        k(    1) = (   0.0000000   0.0000000   0.0000000), wk =   2.0000000

     Dense  grid:   103547 G-vectors     FFT dimensions: (  75,  75,  75)

     Estimated max dynamical RAM per process >     165.89 MB

     Estimated total dynamical RAM >     638.29 MB

     Initial potential from superposition of free atoms

     starting charge     255.9608, renormalised to     256.0000
     Starting wfcs are  256 randomized atomic wfcs

     total cpu time spent up to now is        4.0 secs

     Self-consistent Calculation

     iteration #  1     ecut=    30.00 Ry     beta= 0.50
     Davidson diagonalization with overlap
     ethr =  1.00E-02,  avg # of iterations =  3.0

     Threshold (ethr) on eigenvalues was too large:
     Diagonalizing with lowered threshold

     Davidson diagonalization with overlap
     ethr =  6.01E-04,  avg # of iterations =  4.0

     total cpu time spent up to now is        4.3 secs

     total energy              =    -503.71348623 Ry
     estimated scf accuracy    <       1.70756933 Ry

     iteration #  2     ecut=    30.00 Ry     beta= 0.50
     Davidson diagonalization with overlap
     ethr =  6.67E-04,  avg # of iterations =  1.0

     total cpu time spent up to now is        4.4 secs

     total energy              =    -503.69882735 Ry
     estimated scf accuracy    <       0.33010404 Ry

     iteration #  3     ecut=    30.00 Ry     beta= 0.50
     Davidson diagonalization with overlap
     ethr =  1.29E-04,  avg # of iterations =  5.0

     total cpu time spent up to now is        4.5 secs

     total energy              =    -503.70938505 Ry
     estimated scf accuracy    <       0.06685078 Ry

     iteration #  4     ecut=    30.00 Ry     beta= 0.50
     Davidson diagonalization with overlap
     ethr =  2.61E-05,  avg # of iterations = 19.0

     total cpu time spent up to now is        4.7 secs

     total energy              =    -503.72225800 Ry
     estimated scf accuracy    <       0.01100242 Ry

     iteration #  5     ecut=    30.00 Ry     beta= 0.50
     Davidson diagonalization with overlap
     ethr =  4.30E-06,  avg # of iterations = 15.0

     total cpu time spent up to now is        4.9 secs

     total energy              =    -503.72383999 Ry
     estimated scf accuracy    <       0.00195623 Ry

     iteration #  6     ecut=    30.00 Ry     beta= 0.50
     Davidson diagonalization with overlap
     ethr =  7.64E-07,  avg # of iterations =  5.0

     total cpu time spent up to now is        5.0 secs

     total energy              =    -503.72416410 Ry
     estimated scf accuracy    <       0.00070660 Ry

     iteration #  7     ecut=    30.00 Ry     beta= 0.50
     Davidson diagonalization with overlap
     ethr =  2.76E-07,  avg # of iterations =  4.0

     total cpu time spent up to now is        5.1 secs

     total energy              =    -503.72422970 Ry
     estimated scf accuracy    <       0.00011525 Ry

     iteration #  8     ecut=    30.00 Ry     beta= 0.50
     Davidson diagonalization with overlap
     ethr =  4.50E-08,  avg # of iterations =  4.0

     total cpu time spent up to now is        5.2 secs

     total energy              =    -503.72425628 Ry
     estimated scf accuracy    <       0.00000877 Ry

     iteration #  9     ecut=    30.00 Ry     beta= 0.50
     Davidson diagonalization with overlap
     ethr =  3.43E-09,  avg # of iterations =  4.0

     total cpu time spent up to now is        5.4 secs

     total energy              =    -503.72425740 Ry
     estimated scf accuracy    <       0.00000345 Ry

     iteration # 10     ecut=    30.00 Ry     beta= 0.50
     Davidson diagonalization with overlap
     ethr =  1.35E-09,  avg # of iterations =  4.0

     total cpu time spent up to now is        5.5 secs

     End of self-consistent calculation

          k = 0.0000 0.0000 0.0000 ( 12903 PWs)   bands (ev):

    -6.0664  -5.1748  -5.1222  -5.0798  -5.0096  -4.9428  -4.8492  -4.4811
    -4.3135  -4.2749  -4.1746  -4.1464  -4.1237  -4.1028  -4.0089  -3.9962
    -3.9653  -3.9517  -3.8926  -3.8293  -3.7920  -3.7495  -3.5941  -2.4150
    -2.3976  -2.2546  -2.1900  -2.1410  -2.1055  -2.0616  -2.0472  -2.0186
    -1.9590  -1.9297  -1.8989  -1.8959  -1.8828  -1.8467  -1.8148  -1.7971
    -1.7730  -1.2748  -1.2655  -1.1486  -0.9494  -0.0483  -0.0252   0.0254
     0.0382   0.0597   0.0873   0.1025   0.1319   0.1769   0.2211   0.2334
     0.3042   1.5392   1.6039   1.6149   1.6438   1.7718   1.8054   1.8297
     1.8678   1.8898   1.9072   1.9159   1.9256   1.9485   1.9552   1.9717
     2.0106   2.0157   2.0299   2.0347   2.0475   2.0674   2.0836   2.1068
     2.1267   2.1403   2.1784   2.2157   2.2237   2.2477   2.2644   2.5705
     2.8005   2.8202   2.8250   2.8661   2.8997   3.4610   3.4975   3.6001
     3.6404   3.6696   3.6822   3.7055   3.7540   3.8011   3.8539   3.8693
     3.9033   3.9190   4.1592   4.1603   4.1821   4.2097   4.2311   4.2480
     4.2556   4.2861   4.2975   4.3196   4.3719   4.3903   4.4046   4.4379
     4.4474   4.4547   4.4970   4.5512   4.8099   5.3804   5.4948   5.7066
     5.9614   6.1496   6.1696   6.3313   6.3784   6.4670   6.5786   6.5847
     6.6159   6.6249   6.6872   6.7042   6.7193   6.7387   6.7520   6.7891
     7.4531   7.6486   7.7038   7.7371   7.7752   7.7831   7.8297   7.8420
     7.8649   7.8879

     the Fermi energy is     5.8095 ev

!    total energy              =    -503.72425799 Ry
     estimated scf accuracy    <       0.00000034 Ry
     smearing contrib. (-TS)   =      -0.05088200 Ry
     internal energy E=F+TS    =    -503.67337598 Ry

     The total energy is F=E-TS. E is the sum of the following terms:
     one-electron contribution =     131.20359579 Ry
     hartree contribution      =      39.24607408 Ry
     xc contribution           =    -151.84011061 Ry
     ewald contribution        =    -522.28293524 Ry

     convergence has been achieved in  10 iterations

     Forces acting on atoms (cartesian axes, Ry/au):

     atom    1 type  1   force =     0.05694709    0.01500666   -0.01083156
     atom    2 type  1   force =     0.08013781   -0.02376202    0.00863669
     atom    3 type  1   force =     0.02087895   -0.01079542   -0.00427180
     atom    4 type  1   force =     0.01588906    0.02294161   -0.05678191
     atom    5 type  1   force =    -0.03795456   -0.02457006    0.01185692
     atom    6 type  1   force =     0.00050804   -0.00293080   -0.04470465
     atom    7 type  1   force =     0.00117860    0.00079942    0.02238896
     atom    8 type  1   force =    -0.00624916    0.02536918   -0.03227239
     atom    9 type  1   force =     0.01887782   -0.01650453    0.01698491
     atom   10 type  1   force =     0.00889593   -0.01534504   -0.00347056
     atom   11 type  1   force =     0.07189458   -0.01847121   -0.01250537
     atom   12 type  1   force =    -0.01668497    0.00669297    0.00118779
     atom   13 type  1   force =     0.02400510   -0.00566640   -0.02148668
     atom   14 type  1   force =     0.02388164    0.01754447   -0.02969638
     atom   15 type  1   force =    -0.03334870   -0.01374069   -0.02863008
     atom   16 type  1   force =     0.00660962    0.01021543    0.00117737
     atom   17 type  1   force =    -0.07880889    0.01191535   -0.03371078
     atom   18 type  1   force =    -0.01279347   -0.01252584    0.01509434
     atom   19 type  1   force =     0.06970647   -0.00856701    0.00141880
     atom   20 type  1   force =    -0.01713621    0.01262400   -0.01701540
     atom   21 type  1   force =    -0.01776232    0.00468161    0.01081883
     atom   22 type  1   force =     0.00348950   -0.00096575   -0.00728648
     atom   23 type  1   force =    -0.02249036   -0.00215827   -0.04045448
     atom   24 type  1   force =    -0.06020527    0.03477586   -0.01862757
     atom   25 type  1   force =     0.05980061    0.01492822    0.00427942
     atom   26 type  1   force =     0.00061411    0.01482356    0.01528378
     atom   27 type  1   force =     0.00415276   -0.00270151   -0.01988615
     atom   28 type  1   force =    -0.02051988   -0.00252729   -0.02507948
     atom   29 type  1   force =     0.01240620   -0.02416413    0.01701260
     atom   30 type  1   force =     0.00109309    0.01191138   -0.00977933
     atom   31 type  1   force =    -0.05943747   -0.00181283   -0.00392326
     atom   32 type  1   force =    -0.01386735   -0.01927598    0.00275292
     atom   33 type  1   force =     0.00536210   -0.00019543    0.01411260
     atom   34 type  1   force =     0.08293005    0.00728653   -0.01703875
     atom   35 type  1   force =    -0.01824808    0.01759743   -0.01081784
     atom   36 type  1   force =     0.01237907    0.01986442   -0.02469740
     atom   37 type  1   force =     0.00568412   -0.01502429    0.01291891
     atom   38 type  1   force =    -0.02071971    0.02550874   -0.01027678
     atom   39 type  1   force =    -0.02864077   -0.01238483   -0.00508100
     atom   40 type  1   force =    -0.00492837   -0.00988229    0.02088634
     atom   41 type  1   force =    -0.06959317   -0.01843419    0.01111258
     atom   42 type  1   force =    -0.08205540    0.01532145   -0.00454711
     atom   43 type  1   force =     0.02476427    0.00829760    0.00099788
     atom   44 type  1   force =    -0.01301314   -0.00907912    0.00255639
     atom   45 type  1   force =    -0.01590248    0.01574856   -0.00819318
     atom   46 type  1   force =    -0.00153521    0.02710981   -0.01757737
     atom   47 type  1   force =     0.02404294    0.02189666    0.00767187
     atom   48 type  1   force =    -0.08204251   -0.00965403    0.00266938
     atom   49 type  1   force =     0.06668256   -0.00917113    0.01659743
     atom   50 type  1   force =     0.00333373    0.00123403    0.02143432
     atom   51 type  1   force =    -0.01529504   -0.01448393    0.04315018
     atom   52 type  1   force =     0.02072035    0.00162879   -0.00164721
     atom   53 type  1   force =    -0.00389608   -0.01310497    0.02572266
     atom   54 type  1   force =    -0.06161872   -0.01463340    0.02615467
     atom   55 type  1   force =     0.01146502    0.01194547    0.04650895
     atom   56 type  1   force =     0.02156288   -0.02875071   -0.00411131
     atom   57 type  1   force =    -0.01385074    0.01313855    0.01938281
     atom   58 type  1   force =     0.02035833   -0.01177208    0.03695913
     atom   59 type  1   force =     0.01026656   -0.00154878    0.01989209
     atom   60 type  1   force =    -0.08273347    0.00634807    0.00762314
     atom   61 type  1   force =     0.07106950   -0.00683012   -0.00346921
     atom   62 type  1   force =     0.02015043   -0.00199270    0.02201106
     atom   63 type  1   force =     0.01152097   -0.00877021    0.02368592
     atom   64 type  1   force =     0.01807166   -0.00495885    0.01692984

     Total force =     0.369911     Total SCF correction =     0.000973


     Computing stress (Cartesian axis) and pressure

          total   stress  (Ry/bohr**3)                   (kbar)     P=      -31.40
  -0.00022868   0.00000784   0.00002557          -33.64        1.15        3.76
   0.00000784  -0.00018767  -0.00011744            1.15      -27.61      -17.28
   0.00002557  -0.00011744  -0.00022403            3.76      -17.28      -32.96

 
     init_run     :      0.78s CPU      3.99s WALL (       1 calls)
     electrons    :      1.34s CPU      1.42s WALL (       1 calls)
     forces       :      0.03s CPU      0.04s WALL (       1 calls)
     stress       :      0.16s CPU      0.16s WALL (       1 calls)

     Called by init_run:
     wfcinit      :      0.45s CPU      3.50s WALL (       1 calls)
                                        3.50s GPU  (       1 calls)
     potinit      :      0.14s CPU      0.23s WALL (       1 calls)
     hinit0       :      0.17s CPU      0.20s WALL (       1 calls)

     Called by electrons:
     c_bands      :      0.96s CPU      1.00s WALL (      11 calls)
     sum_band     :      0.21s CPU      0.23s WALL (      11 calls)
     v_of_rho     :      0.09s CPU      0.17s WALL (      11 calls)
     mix_rho      :      0.07s CPU      0.08s WALL (      11 calls)

     Called by c_bands:
     init_us_2    :      0.03s CPU      0.03s WALL (      23 calls)
     init_us_2:gp :      0.03s CPU      0.03s WALL (      23 calls)
     regterg      :      0.87s CPU      0.91s WALL (      11 calls)

     Called by *egterg:
     rdiaghg      :      0.37s CPU      1.02s WALL (      78 calls)
                                        1.00s GPU  (      78 calls)
     h_psi        :      0.81s CPU      3.24s WALL (      80 calls)
                                        3.24s GPU  (      80 calls)
     g_psi        :      0.00s CPU      0.00s WALL (      68 calls)
                                        0.00s GPU  (      68 calls)

     Called by h_psi:
     h_psi:calbec :      0.40s CPU      2.77s WALL (      80 calls)
                                        2.77s GPU  (      80 calls)
     vloc_psi     :      0.37s CPU      0.42s WALL (      80 calls)
                                        0.42s GPU  (      80 calls)
     add_vuspsi   :      0.03s CPU      0.04s WALL (      80 calls)
                                        0.04s GPU  (      80 calls)

     General routines
     calbec       :      0.40s CPU      2.78s WALL (      85 calls)
     fft          :      0.20s CPU      0.30s WALL (      95 calls)
                                        0.10s GPU  (      61 calls)
     ffts         :      0.02s CPU      0.02s WALL (      11 calls)
     fftw         :      0.40s CPU      0.52s WALL (    1229 calls)
                                        0.47s GPU  (    1229 calls)
 
     Parallel routines
 
     PWSCF        :      2.35s CPU      5.67s WALL

 
   This run was terminated on:  11:19:39  10May2023            

=------------------------------------------------------------------------------=
   JOB DONE.
=------------------------------------------------------------------------------=
