An instance of this daemon is already running

     Program PWSCF v.7.1 starts on 10May2023 at 11:16:55 

     This program is part of the open-source Quantum ESPRESSO suite
     for quantum simulation of materials; please cite
         "P. Giannozzi et al., J. Phys.:Condens. Matter 21 395502 (2009);
         "P. Giannozzi et al., J. Phys.:Condens. Matter 29 465901 (2017);
         "P. Giannozzi et al., J. Chem. Phys. 152 154105 (2020);
          URL http://www.quantum-espresso.org", 
     in publications or presentations arising from this work. More details at
     http://www.quantum-espresso.org/quote

     Parallel version (MPI & OpenMP), running on       4 processor cores
     Number of MPI processes:                 4
     Threads/MPI process:                     1

     MPI processes distributed on     1 nodes
     150147 MiB available memory on the printing compute node when the environment starts
 
     Reading input from pw-si-49.in
Warning: card &CELL ignored
Warning: card / ignored

     Current dimensions of program PWSCF are:
     Max number of different atomic species (ntypx) = 10
     Max number of k-points (npk) =  40000
     Max angular momentum in pseudopotentials (lmaxx) =  4

     IMPORTANT: XC functional enforced from input :
     Exchange-correlation= PBE
                           (   1   4   3   4   0   0   0)
     Any further DFT definition will be discarded
     Please, verify this is what you really want


     gamma-point specific algorithms are used
 
     K-points division:     npool     =       2
     R & G space division:  proc/nbgrp/npool/nimage =       2
     Subspace diagonalization in iterative solution of the eigenvalue problem:
     a serial algorithm will be used

     Message from routine divide_et_impera:
     suboptimal parallelization: some nodes have no k-points
 
     Parallelization info
     --------------------
     sticks:   dense  smooth     PW     G-vecs:    dense   smooth      PW
     Min        2080    2080    550                99483    99483   13534
     Max        2085    2085    551                99484    99484   13535
     Sum        4165    4165   1101               198967   198967   27069
 
     Using Slab Decomposition
 


     bravais-lattice index     =            0
     lattice parameter (alat)  =      20.6872  a.u.
     unit-cell volume          =    8963.7270 (a.u.)^3
     number of atoms/cell      =           64
     number of atomic types    =            1
     number of electrons       =       256.00
     number of Kohn-Sham states=          154
     kinetic-energy cutoff     =      30.0000  Ry
     charge density cutoff     =     120.0000  Ry
     scf convergence threshold =      1.0E-06
     mixing beta               =       0.5000
     number of iterations used =            8  plain     mixing
     Exchange-correlation= PBE
                           (   1   4   3   4   0   0   0)

     GPU acceleration is ACTIVE.
     GPU-aware MPI enabled

     Message from routine print_cuda_info:
     High GPU oversubscription detected. Are you sure this is what you want?

     celldm(1)=  20.687166  celldm(2)=   0.000000  celldm(3)=   0.000000
     celldm(4)=   0.000000  celldm(5)=   0.000000  celldm(6)=   0.000000

     crystal axes: (cart. coord. in units of alat)
               a(1) = (   1.000000   0.000000   0.000000 )  
               a(2) = (   0.000000   1.021488   0.000000 )  
               a(3) = (   0.000000   0.000000   0.991179 )  

     reciprocal axes: (cart. coord. in units 2 pi/alat)
               b(1) = (  1.000000  0.000000  0.000000 )  
               b(2) = (  0.000000  0.978964  0.000000 )  
               b(3) = (  0.000000  0.000000  1.008899 )  


     PseudoPot. # 1 for Si read from file:
     /home/ppiaggi/pseudos/Si_ONCV_PBE_sr.upf
     MD5 check sum: 8553c464762ac42b85b1eed164b4d029
     Pseudo is Norm-conserving, Zval =  4.0
     Generated using ONCVPSP code by D. R. Hamann
     Using radial grid of 1510 points,  4 beta functions with: 
                l(1) =   0
                l(2) =   0
                l(3) =   1
                l(4) =   1

     atomic species   valence    mass     pseudopotential
        Si             4.00    28.08500     Si( 1.00)

     No symmetry found



   Cartesian axes

     site n.     atom                  positions (alat units)
         1           Si  tau(   1) = (  -0.0013230   0.0030404  -0.0023816  )
         2           Si  tau(   2) = (   0.0009941   0.2564249   0.2470995  )
         3           Si  tau(   3) = (   0.2460653   0.0008394   0.2433310  )
         4           Si  tau(   4) = (   0.2442300   0.2610703  -0.0033842  )
         5           Si  tau(   5) = (   0.1242578   0.1258689   0.1259203  )
         6           Si  tau(   6) = (   0.4944624  -0.0027573  -0.0036127  )
         7           Si  tau(   7) = (   0.4915876   0.2589299   0.2495869  )
         8           Si  tau(   8) = (   0.6099924   0.1294657   0.1189675  )
         9           Si  tau(   9) = (   0.7314564  -0.0023783   0.2496973  )
        10           Si  tau(  10) = (   0.7335340   0.2547630   0.0007110  )
        11           Si  tau(  11) = (   0.0029166   0.5128180  -0.0025335  )
        12           Si  tau(  12) = (   0.2444925   0.5140195   0.2421295  )
        13           Si  tau(  13) = (   0.1188694   0.6405517   0.1201238  )
        14           Si  tau(  14) = (   0.3669059   0.3819208   0.1191040  )
        15           Si  tau(  15) = (   0.4925675   0.5187672   0.0026953  )
        16           Si  tau(  16) = (   0.6160811   0.6416400   0.1215762  )
        17           Si  tau(  17) = (   0.8567500   0.3852226   0.1266753  )
        18           Si  tau(  18) = (   0.7344656   0.5131144   0.2475532  )
        19           Si  tau(  19) = (   0.0013369   0.7702897   0.2484113  )
        20           Si  tau(  20) = (   0.2484997   0.7756736   0.0021704  )
        21           Si  tau(  21) = (   0.3693897   0.9049117   0.1196144  )
        22           Si  tau(  22) = (   0.4920554   0.7730855   0.2500399  )
        23           Si  tau(  23) = (   0.7375335   0.7729342  -0.0039678  )
        24           Si  tau(  24) = (   0.8545676   0.9008010   0.1245109  )
        25           Si  tau(  25) = (  -0.0039561   0.0001087   0.4895265  )
        26           Si  tau(  26) = (   0.2438398   0.2534729   0.4972371  )
        27           Si  tau(  27) = (   0.1235645   0.1270690   0.6134722  )
        28           Si  tau(  28) = (   0.3696390   0.1281960   0.3719831  )
        29           Si  tau(  29) = (   0.4944634  -0.0018229   0.4963189  )
        30           Si  tau(  30) = (   0.6099476   0.1306214   0.6120844  )
        31           Si  tau(  31) = (   0.8544562   0.1282434   0.3702175  )
        32           Si  tau(  32) = (   0.7372819   0.2529480   0.4940097  )
        33           Si  tau(  33) = (   0.1217055   0.3885801   0.3731109  )
        34           Si  tau(  34) = (  -0.0025433   0.5187638   0.4935400  )
        35           Si  tau(  35) = (   0.1202516   0.6428924   0.6159997  )
        36           Si  tau(  36) = (   0.6101870   0.3821679   0.3715534  )
        37           Si  tau(  37) = (   0.3701061   0.6431466   0.3724405  )
        38           Si  tau(  38) = (   0.3685306   0.3836560   0.6161652  )
        39           Si  tau(  39) = (   0.4894427   0.5163334   0.4889728  )
        40           Si  tau(  40) = (   0.6125893   0.6430890   0.6195243  )
        41           Si  tau(  41) = (   0.8604529   0.6448789   0.3704635  )
        42           Si  tau(  42) = (   0.8535008   0.3849751   0.6165993  )
        43           Si  tau(  43) = (   0.1183687   0.8968234   0.3721967  )
        44           Si  tau(  44) = (   0.2450341   0.7766884   0.4888651  )
        45           Si  tau(  45) = (   0.6122011   0.8987615   0.3678546  )
        46           Si  tau(  46) = (   0.3684774   0.9015280   0.6201770  )
        47           Si  tau(  47) = (   0.7314639   0.7704717   0.4959982  )
        48           Si  tau(  48) = (   0.8587195   0.9000394   0.6122102  )
        49           Si  tau(  49) = (   0.0034646   0.2619995   0.7376669  )
        50           Si  tau(  50) = (   0.2450953  -0.0031653   0.7427253  )
        51           Si  tau(  51) = (   0.3649144   0.1312280   0.8620608  )
        52           Si  tau(  52) = (   0.4880263   0.2606865   0.7434860  )
        53           Si  tau(  53) = (   0.7333878   0.0003742   0.7409646  )
        54           Si  tau(  54) = (   0.8546953   0.1262136   0.8617532  )
        55           Si  tau(  55) = (   0.1220146   0.3837652   0.8665226  )
        56           Si  tau(  56) = (   0.2495274   0.5157512   0.7389347  )
        57           Si  tau(  57) = (   0.6148406   0.3822975   0.8599029  )
        58           Si  tau(  58) = (   0.3702859   0.6472555   0.8635295  )
        59           Si  tau(  59) = (   0.7387379   0.5178040   0.7438272  )
        60           Si  tau(  60) = (   0.8609429   0.6414467   0.8625868  )
        61           Si  tau(  61) = (  -0.0043118   0.7740445   0.7401231  )
        62           Si  tau(  62) = (   0.1224243   0.8974689   0.8650235  )
        63           Si  tau(  63) = (   0.4944650   0.7744114   0.7410909  )
        64           Si  tau(  64) = (   0.6104398   0.8966719   0.8600609  )

     number of k points=     1  Fermi-Dirac smearing, width (Ry)=  0.0100
                       cart. coord. in units 2pi/alat
        k(    1) = (   0.0000000   0.0000000   0.0000000), wk =   2.0000000

     Dense  grid:    99484 G-vectors     FFT dimensions: (  75,  75,  72)

     Estimated max dynamical RAM per process >     159.25 MB

     Estimated total dynamical RAM >     612.70 MB

     Initial potential from superposition of free atoms

     starting charge     255.9608, renormalised to     256.0000
     Starting wfcs are  256 randomized atomic wfcs

     total cpu time spent up to now is        4.3 secs

     Self-consistent Calculation

     iteration #  1     ecut=    30.00 Ry     beta= 0.50
     Davidson diagonalization with overlap
     ethr =  1.00E-02,  avg # of iterations =  3.0

     Threshold (ethr) on eigenvalues was too large:
     Diagonalizing with lowered threshold

     Davidson diagonalization with overlap
     ethr =  6.42E-04,  avg # of iterations =  3.0

     total cpu time spent up to now is        4.5 secs

     total energy              =    -503.79919006 Ry
     estimated scf accuracy    <       1.82021791 Ry

     iteration #  2     ecut=    30.00 Ry     beta= 0.50
     Davidson diagonalization with overlap
     ethr =  7.11E-04,  avg # of iterations =  1.0

     total cpu time spent up to now is        4.6 secs

     total energy              =    -503.78405105 Ry
     estimated scf accuracy    <       0.34031924 Ry

     iteration #  3     ecut=    30.00 Ry     beta= 0.50
     Davidson diagonalization with overlap
     ethr =  1.33E-04,  avg # of iterations =  4.0

     total cpu time spent up to now is        4.7 secs

     total energy              =    -503.80029636 Ry
     estimated scf accuracy    <       0.04472739 Ry

     iteration #  4     ecut=    30.00 Ry     beta= 0.50
     Davidson diagonalization with overlap
     ethr =  1.75E-05,  avg # of iterations = 17.0

     total cpu time spent up to now is        4.9 secs

     total energy              =    -503.80970154 Ry
     estimated scf accuracy    <       0.00894429 Ry

     iteration #  5     ecut=    30.00 Ry     beta= 0.50
     Davidson diagonalization with overlap
     c_bands:  1 eigenvalues not converged
     ethr =  3.49E-06,  avg # of iterations = 20.0

     total cpu time spent up to now is        5.2 secs

     total energy              =    -503.81114406 Ry
     estimated scf accuracy    <       0.00145094 Ry

     iteration #  6     ecut=    30.00 Ry     beta= 0.50
     Davidson diagonalization with overlap
     ethr =  5.67E-07,  avg # of iterations =  4.0

     total cpu time spent up to now is        5.3 secs

     total energy              =    -503.81132506 Ry
     estimated scf accuracy    <       0.00034827 Ry

     iteration #  7     ecut=    30.00 Ry     beta= 0.50
     Davidson diagonalization with overlap
     ethr =  1.36E-07,  avg # of iterations =  4.0

     total cpu time spent up to now is        5.4 secs

     total energy              =    -503.81136879 Ry
     estimated scf accuracy    <       0.00005905 Ry

     iteration #  8     ecut=    30.00 Ry     beta= 0.50
     Davidson diagonalization with overlap
     ethr =  2.31E-08,  avg # of iterations =  4.0

     total cpu time spent up to now is        5.5 secs

     total energy              =    -503.81138274 Ry
     estimated scf accuracy    <       0.00001055 Ry

     iteration #  9     ecut=    30.00 Ry     beta= 0.50
     Davidson diagonalization with overlap
     ethr =  4.12E-09,  avg # of iterations =  3.0

     total cpu time spent up to now is        5.6 secs

     total energy              =    -503.81138407 Ry
     estimated scf accuracy    <       0.00000121 Ry

     iteration # 10     ecut=    30.00 Ry     beta= 0.50
     Davidson diagonalization with overlap
     ethr =  4.71E-10,  avg # of iterations =  5.0

     total cpu time spent up to now is        5.7 secs

     End of self-consistent calculation

          k = 0.0000 0.0000 0.0000 ( 12444 PWs)   bands (ev):

    -5.9016  -4.9450  -4.9132  -4.8550  -4.8213  -4.8145  -4.6695  -4.1145
    -4.0241  -4.0079  -3.9766  -3.9603  -3.9426  -3.8906  -3.8385  -3.7926
    -3.7568  -3.7308  -3.7025  -3.6514  -3.6158  -3.5900  -3.2906  -2.0699
    -2.0108  -1.9473  -1.9274  -1.8523  -1.8174  -1.7915  -1.7641  -1.7359
    -1.7090  -1.7033  -1.6468  -1.5999  -1.5895  -1.5653  -1.5050  -1.4962
    -1.4620  -1.1033  -0.9252  -0.8723  -0.8222   0.2858   0.3329   0.3664
     0.3896   0.4184   0.4355   0.4475   0.4871   0.5276   0.5408   0.5967
     0.6241   1.9641   1.9871   2.0203   2.0362   2.0426   2.0514   2.0786
     2.0887   2.1072   2.1146   2.1500   2.1610   2.1828   2.2012   2.2094
     2.2164   2.2462   2.2739   2.3050   2.3189   2.3332   2.3515   2.3665
     2.3967   2.4343   2.4394   2.5258   2.5611   2.5743   2.6063   3.0031
     3.0296   3.0566   3.0919   3.2623   3.2734   3.8451   3.9054   3.9472
     3.9639   3.9990   4.0357   4.0645   4.1199   4.1424   4.1833   4.2132
     4.2962   4.3799   4.4165   4.4241   4.4653   4.4939   4.5033   4.5405
     4.5501   4.5603   4.5961   4.6228   4.6480   4.6989   4.7601   4.7765
     4.8572   4.8988   4.9089   5.0017   5.3202   5.6968   5.9497   6.1314
     6.4212   6.4797   6.5283   6.5692   6.7652   6.7970   6.8972   6.9333
     6.9603   7.0741   7.1492   7.1820   7.1912   7.2123   7.2205   7.2728
     8.0695   8.0799   8.1080   8.1389   8.1476   8.1512   8.1843   8.2847
     8.3264   8.3441

     the Fermi energy is     6.2119 ev

!    total energy              =    -503.81138439 Ry
     estimated scf accuracy    <       0.00000024 Ry
     smearing contrib. (-TS)   =      -0.05681293 Ry
     internal energy E=F+TS    =    -503.75457146 Ry

     The total energy is F=E-TS. E is the sum of the following terms:
     one-electron contribution =     141.31372166 Ry
     hartree contribution      =      37.81766440 Ry
     xc contribution           =    -153.13250585 Ry
     ewald contribution        =    -529.75345168 Ry

     convergence has been achieved in  10 iterations

     Forces acting on atoms (cartesian axes, Ry/au):

     atom    1 type  1   force =    -0.04665192    0.00477344    0.00292853
     atom    2 type  1   force =    -0.04941091    0.00527103    0.00862232
     atom    3 type  1   force =    -0.00119515    0.00689516    0.03561333
     atom    4 type  1   force =    -0.00351169   -0.03660576    0.00875744
     atom    5 type  1   force =    -0.01719093    0.02684307   -0.02784031
     atom    6 type  1   force =    -0.01624654    0.04404880   -0.01890437
     atom    7 type  1   force =    -0.01580685   -0.01799657   -0.02549803
     atom    8 type  1   force =     0.00455673   -0.00920603    0.02890724
     atom    9 type  1   force =     0.01371288    0.04662730   -0.02620014
     atom   10 type  1   force =     0.02262671    0.01229133   -0.01906912
     atom   11 type  1   force =    -0.07145453   -0.00589527   -0.00199028
     atom   12 type  1   force =     0.00700872   -0.00294259    0.01650397
     atom   13 type  1   force =     0.01749628    0.02118733    0.00719419
     atom   14 type  1   force =     0.01189029    0.02628747    0.01680354
     atom   15 type  1   force =    -0.00534977   -0.03072093   -0.03614733
     atom   16 type  1   force =    -0.00063298    0.02352574    0.01503143
     atom   17 type  1   force =     0.05341725   -0.00690438   -0.01848420
     atom   18 type  1   force =     0.01163464    0.00287441    0.01192464
     atom   19 type  1   force =    -0.06087326   -0.00576775   -0.01712062
     atom   20 type  1   force =    -0.01652621   -0.02551269   -0.01744168
     atom   21 type  1   force =     0.00668831   -0.03924081    0.02243753
     atom   22 type  1   force =    -0.00809816   -0.01495174   -0.03427046
     atom   23 type  1   force =     0.00174010   -0.01383720   -0.00158108
     atom   24 type  1   force =     0.06624677   -0.01742516   -0.00996476
     atom   25 type  1   force =    -0.04206891    0.02574722    0.01458189
     atom   26 type  1   force =     0.01208692    0.02178171   -0.02465626
     atom   27 type  1   force =    -0.02375777   -0.01329851    0.02344459
     atom   28 type  1   force =    -0.00762060   -0.00477453   -0.00202721
     atom   29 type  1   force =    -0.01969273    0.02038269   -0.01755027
     atom   30 type  1   force =     0.00745516    0.00198631    0.04187664
     atom   31 type  1   force =     0.06172617   -0.00517059   -0.01633375
     atom   32 type  1   force =    -0.01016565    0.02237643   -0.00191964
     atom   33 type  1   force =    -0.00191193   -0.00940059   -0.00680420
     atom   34 type  1   force =    -0.04729753   -0.01930975    0.00051715
     atom   35 type  1   force =     0.00847734    0.01754878    0.00592605
     atom   36 type  1   force =     0.02563536    0.01905883    0.00275602
     atom   37 type  1   force =    -0.02912650    0.00973467   -0.03192137
     atom   38 type  1   force =    -0.00516853    0.01650214   -0.00519203
     atom   39 type  1   force =     0.01382200   -0.01990578    0.03575781
     atom   40 type  1   force =    -0.00347828   -0.01203131   -0.00616519
     atom   41 type  1   force =     0.02357589   -0.00408249   -0.00054919
     atom   42 type  1   force =     0.06579457    0.01408598    0.00278798
     atom   43 type  1   force =     0.01346679    0.01050797   -0.03191987
     atom   44 type  1   force =     0.00826362   -0.02844627    0.03717474
     atom   45 type  1   force =    -0.00226481   -0.02526145    0.03204962
     atom   46 type  1   force =    -0.00020069   -0.03047362   -0.01689384
     atom   47 type  1   force =     0.02441629   -0.00086791   -0.01696122
     atom   48 type  1   force =     0.03087551   -0.00955420    0.01738316
     atom   49 type  1   force =    -0.06440445   -0.02362921   -0.00317380
     atom   50 type  1   force =    -0.01030477    0.03997217   -0.00631359
     atom   51 type  1   force =     0.00657372   -0.01287413    0.02041582
     atom   52 type  1   force =     0.01059850   -0.02042724   -0.02703306
     atom   53 type  1   force =     0.00602044    0.01526961   -0.02692655
     atom   54 type  1   force =     0.06162037    0.02381496    0.01571345
     atom   55 type  1   force =     0.00707056    0.02633577   -0.01946156
     atom   56 type  1   force =    -0.01778747   -0.00359425    0.01021929
     atom   57 type  1   force =    -0.00024029    0.03143266    0.04177195
     atom   58 type  1   force =    -0.00413637   -0.00679533    0.01653672
     atom   59 type  1   force =    -0.01262713   -0.02399386   -0.01756772
     atom   60 type  1   force =     0.05166068    0.01680743    0.02251834
     atom   61 type  1   force =    -0.02824133   -0.01326456   -0.00745250
     atom   62 type  1   force =    -0.01694357   -0.01274656    0.01490854
     atom   63 type  1   force =    -0.02784220   -0.02572266   -0.01734314
     atom   64 type  1   force =     0.03207186   -0.00133873    0.02761442

     Total force =     0.330765     Total SCF correction =     0.000811


     Computing stress (Cartesian axis) and pressure

          total   stress  (Ry/bohr**3)                   (kbar)     P=       -0.67
   0.00001506   0.00003458   0.00000693            2.22        5.09        1.02
   0.00003458  -0.00009085   0.00007819            5.09      -13.37       11.50
   0.00000693   0.00007819   0.00006208            1.02       11.50        9.13

 
     init_run     :      0.99s CPU      4.27s WALL (       1 calls)
     electrons    :      1.29s CPU      1.39s WALL (       1 calls)
     forces       :      0.04s CPU      0.06s WALL (       1 calls)
     stress       :      0.15s CPU      0.16s WALL (       1 calls)

     Called by init_run:
     wfcinit      :      0.54s CPU      3.66s WALL (       1 calls)
                                        3.66s GPU  (       1 calls)
     potinit      :      0.16s CPU      0.26s WALL (       1 calls)
     hinit0       :      0.27s CPU      0.29s WALL (       1 calls)

     Called by electrons:
     c_bands      :      0.93s CPU      0.97s WALL (      11 calls)
     sum_band     :      0.20s CPU      0.23s WALL (      11 calls)
     v_of_rho     :      0.10s CPU      0.19s WALL (      11 calls)
     mix_rho      :      0.07s CPU      0.08s WALL (      11 calls)

     Called by c_bands:
     init_us_2    :      0.03s CPU      0.03s WALL (      23 calls)
     init_us_2:gp :      0.03s CPU      0.03s WALL (      23 calls)
     regterg      :      0.85s CPU      0.89s WALL (      11 calls)

     Called by *egterg:
     rdiaghg      :      0.39s CPU      1.02s WALL (      78 calls)
                                        1.01s GPU  (      78 calls)
     h_psi        :      0.87s CPU      3.38s WALL (      80 calls)
                                        3.38s GPU  (      80 calls)
     g_psi        :      0.00s CPU      0.00s WALL (      68 calls)
                                        0.00s GPU  (      68 calls)

     Called by h_psi:
     h_psi:calbec :      0.50s CPU      2.93s WALL (      80 calls)
                                        2.93s GPU  (      80 calls)
     vloc_psi     :      0.33s CPU      0.40s WALL (      80 calls)
                                        0.40s GPU  (      80 calls)
     add_vuspsi   :      0.03s CPU      0.04s WALL (      80 calls)
                                        0.04s GPU  (      80 calls)

     General routines
     calbec       :      0.50s CPU      2.94s WALL (      85 calls)
     fft          :      0.31s CPU      0.42s WALL (      95 calls)
                                        0.13s GPU  (      61 calls)
     ffts         :      0.02s CPU      0.02s WALL (      11 calls)
     fftw         :      0.36s CPU      0.50s WALL (    1229 calls)
                                        0.46s GPU  (    1229 calls)
 
     Parallel routines
 
     PWSCF        :      2.51s CPU      5.96s WALL

 
   This run was terminated on:  11:17: 1  10May2023            

=------------------------------------------------------------------------------=
   JOB DONE.
=------------------------------------------------------------------------------=
