An instance of this daemon is already running
An instance of this daemon is already running

     Program PWSCF v.7.1 starts on 10May2023 at 11:10:29 

     This program is part of the open-source Quantum ESPRESSO suite
     for quantum simulation of materials; please cite
         "P. Giannozzi et al., J. Phys.:Condens. Matter 21 395502 (2009);
         "P. Giannozzi et al., J. Phys.:Condens. Matter 29 465901 (2017);
         "P. Giannozzi et al., J. Chem. Phys. 152 154105 (2020);
          URL http://www.quantum-espresso.org", 
     in publications or presentations arising from this work. More details at
     http://www.quantum-espresso.org/quote

     Parallel version (MPI & OpenMP), running on       4 processor cores
     Number of MPI processes:                 4
     Threads/MPI process:                     1

     MPI processes distributed on     1 nodes
     150764 MiB available memory on the printing compute node when the environment starts
 
     Reading input from pw-si-3.in
Warning: card &CELL ignored
Warning: card / ignored

     Current dimensions of program PWSCF are:
     Max number of different atomic species (ntypx) = 10
     Max number of k-points (npk) =  40000
     Max angular momentum in pseudopotentials (lmaxx) =  4

     IMPORTANT: XC functional enforced from input :
     Exchange-correlation= PBE
                           (   1   4   3   4   0   0   0)
     Any further DFT definition will be discarded
     Please, verify this is what you really want


     gamma-point specific algorithms are used
 
     K-points division:     npool     =       2
     R & G space division:  proc/nbgrp/npool/nimage =       2
     Subspace diagonalization in iterative solution of the eigenvalue problem:
     a serial algorithm will be used

     Message from routine divide_et_impera:
     suboptimal parallelization: some nodes have no k-points
 
     Parallelization info
     --------------------
     sticks:   dense  smooth     PW     G-vecs:    dense   smooth      PW
     Min        2072    2072    549               100084   100084   13624
     Max        2075    2075    552               100087   100087   13625
     Sum        4147    4147   1101               200171   200171   27249
 
     Using Slab Decomposition
 


     bravais-lattice index     =            0
     lattice parameter (alat)  =      20.5866  a.u.
     unit-cell volume          =    9019.5900 (a.u.)^3
     number of atoms/cell      =           64
     number of atomic types    =            1
     number of electrons       =       256.00
     number of Kohn-Sham states=          154
     kinetic-energy cutoff     =      30.0000  Ry
     charge density cutoff     =     120.0000  Ry
     scf convergence threshold =      1.0E-06
     mixing beta               =       0.5000
     number of iterations used =            8  plain     mixing
     Exchange-correlation= PBE
                           (   1   4   3   4   0   0   0)

     GPU acceleration is ACTIVE.
     GPU-aware MPI enabled

     Message from routine print_cuda_info:
     High GPU oversubscription detected. Are you sure this is what you want?

     celldm(1)=  20.586614  celldm(2)=   0.000000  celldm(3)=   0.000000
     celldm(4)=   0.000000  celldm(5)=   0.000000  celldm(6)=   0.000000

     crystal axes: (cart. coord. in units of alat)
               a(1) = (   1.000000   0.000000   0.000000 )  
               a(2) = (   0.000000   1.026106   0.000000 )  
               a(3) = (   0.000000   0.000000   1.007488 )  

     reciprocal axes: (cart. coord. in units 2 pi/alat)
               b(1) = (  1.000000  0.000000  0.000000 )  
               b(2) = (  0.000000  0.974559  0.000000 )  
               b(3) = (  0.000000  0.000000  0.992567 )  


     PseudoPot. # 1 for Si read from file:
     /home/ppiaggi/pseudos/Si_ONCV_PBE_sr.upf
     MD5 check sum: 8553c464762ac42b85b1eed164b4d029
     Pseudo is Norm-conserving, Zval =  4.0
     Generated using ONCVPSP code by D. R. Hamann
     Using radial grid of 1510 points,  4 beta functions with: 
                l(1) =   0
                l(2) =   0
                l(3) =   1
                l(4) =   1

     atomic species   valence    mass     pseudopotential
        Si             4.00    28.08500     Si( 1.00)

     No symmetry found



   Cartesian axes

     site n.     atom                  positions (alat units)
         1           Si  tau(   1) = (   0.0023125   0.0008958   0.0029708  )
         2           Si  tau(   2) = (  -0.0004008   0.2567109   0.2558781  )
         3           Si  tau(   3) = (   0.2492044   0.0018614   0.2470318  )
         4           Si  tau(   4) = (   0.2513531   0.2552171  -0.0028400  )
         5           Si  tau(   5) = (   0.1219643   0.1239881   0.1286174  )
         6           Si  tau(   6) = (   0.4969064   0.0016126  -0.0042648  )
         7           Si  tau(   7) = (   0.5051658   0.2579032   0.2468823  )
         8           Si  tau(   8) = (   0.6246631   0.1258943   0.1293336  )
         9           Si  tau(   9) = (   0.7473337   0.0017513   0.2528916  )
        10           Si  tau(  10) = (   0.7506648   0.2551512  -0.0007684  )
        11           Si  tau(  11) = (   0.0010559   0.5131247   0.0041617  )
        12           Si  tau(  12) = (   0.2462443   0.5090562   0.2482007  )
        13           Si  tau(  13) = (   0.1268011   0.6382691   0.1253066  )
        14           Si  tau(  14) = (   0.3735439   0.3849070   0.1267056  )
        15           Si  tau(  15) = (   0.5049138   0.5116324  -0.0040218  )
        16           Si  tau(  16) = (   0.6259589   0.6326271   0.1220005  )
        17           Si  tau(  17) = (   0.8763979   0.3810974   0.1287851  )
        18           Si  tau(  18) = (   0.7494011   0.5112950   0.2522185  )
        19           Si  tau(  19) = (   0.0026417   0.7611244   0.2532054  )
        20           Si  tau(  20) = (   0.2508997   0.7632521  -0.0035805  )
        21           Si  tau(  21) = (   0.3743637   0.8918702   0.1236979  )
        22           Si  tau(  22) = (   0.5046060   0.7614017   0.2511367  )
        23           Si  tau(  23) = (   0.7544489   0.7659752  -0.0021177  )
        24           Si  tau(  24) = (   0.8742790   0.8930599   0.1262479  )
        25           Si  tau(  25) = (  -0.0029053  -0.0036861   0.5066112  )
        26           Si  tau(  26) = (   0.2529504   0.2584182   0.5020395  )
        27           Si  tau(  27) = (   0.1295439   0.1274919   0.6290906  )
        28           Si  tau(  28) = (   0.3733587   0.1282498   0.3813571  )
        29           Si  tau(  29) = (   0.4984492  -0.0015563   0.5053387  )
        30           Si  tau(  30) = (   0.6303639   0.1233497   0.6302671  )
        31           Si  tau(  31) = (   0.8728786   0.1292583   0.3750359  )
        32           Si  tau(  32) = (   0.7543673   0.2574991   0.5035555  )
        33           Si  tau(  33) = (   0.1264114   0.3799024   0.3759261  )
        34           Si  tau(  34) = (  -0.0027823   0.5065950   0.5009565  )
        35           Si  tau(  35) = (   0.1241097   0.6399882   0.6264581  )
        36           Si  tau(  36) = (   0.6256469   0.3814980   0.3782907  )
        37           Si  tau(  37) = (   0.3752739   0.6377930   0.3759484  )
        38           Si  tau(  38) = (   0.3733172   0.3818292   0.6238244  )
        39           Si  tau(  39) = (   0.5001800   0.5071955   0.4982565  )
        40           Si  tau(  40) = (   0.6241453   0.6397192   0.6313750  )
        41           Si  tau(  41) = (   0.8720227   0.6348465   0.3784268  )
        42           Si  tau(  42) = (   0.8799897   0.3858395   0.6280717  )
        43           Si  tau(  43) = (   0.1280379   0.8919246   0.3725167  )
        44           Si  tau(  44) = (   0.2508060   0.7652749   0.5061739  )
        45           Si  tau(  45) = (   0.6263081   0.8895153   0.3778114  )
        46           Si  tau(  46) = (   0.3750521   0.8898066   0.6328295  )
        47           Si  tau(  47) = (   0.7467595   0.7630909   0.4986748  )
        48           Si  tau(  48) = (   0.8721516   0.8876474   0.6288522  )
        49           Si  tau(  49) = (   0.0006781   0.2526179   0.7585997  )
        50           Si  tau(  50) = (   0.2467178  -0.0020401   0.7544134  )
        51           Si  tau(  51) = (   0.3722087   0.1280457   0.8757253  )
        52           Si  tau(  52) = (   0.4964188   0.2577025   0.7548021  )
        53           Si  tau(  53) = (   0.7487713  -0.0042133   0.7550527  )
        54           Si  tau(  54) = (   0.8726618   0.1247615   0.8774399  )
        55           Si  tau(  55) = (   0.1220557   0.3779505   0.8755541  )
        56           Si  tau(  56) = (   0.2525066   0.5083243   0.7507433  )
        57           Si  tau(  57) = (   0.6240625   0.3828924   0.8809176  )
        58           Si  tau(  58) = (   0.3771973   0.6395815   0.8829660  )
        59           Si  tau(  59) = (   0.7468642   0.5107814   0.7525550  )
        60           Si  tau(  60) = (   0.8777013   0.6336691   0.8772247  )
        61           Si  tau(  61) = (   0.0004087   0.7604257   0.7500256  )
        62           Si  tau(  62) = (   0.1255761   0.8953215   0.8793478  )
        63           Si  tau(  63) = (   0.5014956   0.7643069   0.7524609  )
        64           Si  tau(  64) = (   0.6244944   0.8926623   0.8789203  )

     number of k points=     1  Fermi-Dirac smearing, width (Ry)=  0.0100
                       cart. coord. in units 2pi/alat
        k(    1) = (   0.0000000   0.0000000   0.0000000), wk =   2.0000000

     Dense  grid:   100086 G-vectors     FFT dimensions: (  72,  75,  75)

     Estimated max dynamical RAM per process >     160.32 MB

     Estimated total dynamical RAM >     616.85 MB

     Initial potential from superposition of free atoms

     starting charge     255.9608, renormalised to     256.0000
     Starting wfcs are  256 randomized atomic wfcs

     total cpu time spent up to now is        4.2 secs

     Self-consistent Calculation

     iteration #  1     ecut=    30.00 Ry     beta= 0.50
     Davidson diagonalization with overlap
     ethr =  1.00E-02,  avg # of iterations =  3.0

     Threshold (ethr) on eigenvalues was too large:
     Diagonalizing with lowered threshold

     Davidson diagonalization with overlap
     ethr =  6.40E-04,  avg # of iterations =  3.0

     total cpu time spent up to now is        4.4 secs

     total energy              =    -503.90554898 Ry
     estimated scf accuracy    <       1.81396711 Ry

     iteration #  2     ecut=    30.00 Ry     beta= 0.50
     Davidson diagonalization with overlap
     ethr =  7.09E-04,  avg # of iterations =  1.0

     total cpu time spent up to now is        4.5 secs

     total energy              =    -503.88947846 Ry
     estimated scf accuracy    <       0.34147797 Ry

     iteration #  3     ecut=    30.00 Ry     beta= 0.50
     Davidson diagonalization with overlap
     ethr =  1.33E-04,  avg # of iterations =  4.0

     total cpu time spent up to now is        4.6 secs

     total energy              =    -503.91047636 Ry
     estimated scf accuracy    <       0.00917231 Ry

     iteration #  4     ecut=    30.00 Ry     beta= 0.50
     Davidson diagonalization with overlap
     ethr =  3.58E-06,  avg # of iterations = 19.0

     total cpu time spent up to now is        4.8 secs

     total energy              =    -503.91271496 Ry
     estimated scf accuracy    <       0.00847586 Ry

     iteration #  5     ecut=    30.00 Ry     beta= 0.50
     Davidson diagonalization with overlap
     ethr =  3.31E-06,  avg # of iterations =  6.0

     total cpu time spent up to now is        4.9 secs

     total energy              =    -503.91434490 Ry
     estimated scf accuracy    <       0.00183565 Ry

     iteration #  6     ecut=    30.00 Ry     beta= 0.50
     Davidson diagonalization with overlap
     ethr =  7.17E-07,  avg # of iterations =  4.0

     total cpu time spent up to now is        5.0 secs

     total energy              =    -503.91452357 Ry
     estimated scf accuracy    <       0.00027540 Ry

     iteration #  7     ecut=    30.00 Ry     beta= 0.50
     Davidson diagonalization with overlap
     ethr =  1.08E-07,  avg # of iterations =  5.0

     total cpu time spent up to now is        5.1 secs

     total energy              =    -503.91456721 Ry
     estimated scf accuracy    <       0.00001118 Ry

     iteration #  8     ecut=    30.00 Ry     beta= 0.50
     Davidson diagonalization with overlap
     ethr =  4.37E-09,  avg # of iterations =  4.0

     total cpu time spent up to now is        5.2 secs

     total energy              =    -503.91457166 Ry
     estimated scf accuracy    <       0.00000722 Ry

     iteration #  9     ecut=    30.00 Ry     beta= 0.50
     Davidson diagonalization with overlap
     ethr =  2.82E-09,  avg # of iterations =  3.0

     total cpu time spent up to now is        5.3 secs

     total energy              =    -503.91457238 Ry
     estimated scf accuracy    <       0.00000110 Ry

     iteration # 10     ecut=    30.00 Ry     beta= 0.50
     Davidson diagonalization with overlap
     ethr =  4.31E-10,  avg # of iterations =  5.0

     total cpu time spent up to now is        5.5 secs

     End of self-consistent calculation

          k = 0.0000 0.0000 0.0000 ( 12516 PWs)   bands (ev):

    -5.8725  -4.9100  -4.8789  -4.8220  -4.8172  -4.7950  -4.7584  -4.0317
    -3.9814  -3.9767  -3.9508  -3.9201  -3.9041  -3.8924  -3.8715  -3.8513
    -3.8435  -3.8204  -3.8005  -3.6511  -3.6409  -3.6114  -3.5014  -2.0146
    -1.9465  -1.9064  -1.8962  -1.8666  -1.8308  -1.8113  -1.7835  -1.7624
    -1.7349  -1.7274  -1.7179  -1.6934  -1.6562  -1.6421  -1.6270  -1.6226
    -1.5568  -1.0091  -0.9610  -0.9248  -0.9073   0.2690   0.3167   0.3346
     0.3896   0.4036   0.4202   0.4454   0.4550   0.4601   0.4801   0.4857
     0.5230   2.0322   2.0472   2.0569   2.0643   2.0768   2.0937   2.0983
     2.1164   2.1310   2.1385   2.1410   2.1591   2.1645   2.1707   2.1948
     2.2013   2.2159   2.2293   2.2465   2.2531   2.2734   2.2922   2.2955
     2.3134   2.3217   2.3315   2.3593   2.3888   2.4096   2.4411   2.9978
     3.0128   3.0634   3.0823   3.1746   3.2024   3.8941   3.9097   3.9159
     3.9462   3.9726   3.9903   4.0226   4.0465   4.0548   4.0835   4.1120
     4.1786   4.4229   4.4470   4.4671   4.4725   4.4762   4.4923   4.5254
     4.5410   4.5507   4.5671   4.5965   4.6268   4.6349   4.6468   4.6657
     4.7061   4.7726   4.7855   4.8280   4.9707   5.7442   5.8331   5.9683
     6.4642   6.4879   6.5621   6.5788   6.6713   6.7086   6.8640   6.8791
     6.9311   6.9700   7.0730   7.1135   7.1623   7.1639   7.1753   7.2021
     8.0615   8.0863   8.1017   8.1316   8.1495   8.1624   8.1935   8.2007
     8.2930   8.3193

     the Fermi energy is     6.1579 ev

!    total energy              =    -503.91457263 Ry
     estimated scf accuracy    <       0.00000013 Ry
     smearing contrib. (-TS)   =      -0.04566809 Ry
     internal energy E=F+TS    =    -503.86890455 Ry

     The total energy is F=E-TS. E is the sum of the following terms:
     one-electron contribution =     141.45204092 Ry
     hartree contribution      =      37.28719290 Ry
     xc contribution           =    -152.97029231 Ry
     ewald contribution        =    -529.63784606 Ry

     convergence has been achieved in  10 iterations

     Forces acting on atoms (cartesian axes, Ry/au):

     atom    1 type  1   force =    -0.02257516   -0.02501577   -0.02168726
     atom    2 type  1   force =     0.00332828   -0.01920299   -0.01949491
     atom    3 type  1   force =     0.01569125   -0.02621001    0.02281900
     atom    4 type  1   force =    -0.01647507   -0.00543161    0.01095087
     atom    5 type  1   force =     0.01245392    0.03860691   -0.01248935
     atom    6 type  1   force =     0.00940315   -0.01789276    0.00891883
     atom    7 type  1   force =    -0.03172055   -0.00894609    0.02995468
     atom    8 type  1   force =    -0.00206033    0.00096581   -0.03837851
     atom    9 type  1   force =     0.01058220   -0.03289999    0.00066262
     atom   10 type  1   force =    -0.00145896   -0.00845284    0.00412786
     atom   11 type  1   force =    -0.00106385   -0.02640671   -0.02624438
     atom   12 type  1   force =     0.01625960    0.00924371    0.01857081
     atom   13 type  1   force =    -0.00292725    0.00472496   -0.00617735
     atom   14 type  1   force =     0.01666129   -0.00563083   -0.02363278
     atom   15 type  1   force =    -0.03180543   -0.01068093    0.01353245
     atom   16 type  1   force =     0.01747773    0.02763350    0.00574192
     atom   17 type  1   force =    -0.00486616    0.01078785   -0.00870324
     atom   18 type  1   force =    -0.00118848   -0.01676688   -0.00545964
     atom   19 type  1   force =    -0.01718118    0.01455052   -0.00461877
     atom   20 type  1   force =    -0.00734214    0.01976785    0.00921446
     atom   21 type  1   force =     0.01071482    0.01195657    0.00256342
     atom   22 type  1   force =    -0.01629148    0.01191548   -0.01398770
     atom   23 type  1   force =    -0.01355543   -0.00811135   -0.00658636
     atom   24 type  1   force =     0.01119475    0.01307837    0.01033053
     atom   25 type  1   force =     0.01283055   -0.00155283   -0.02144874
     atom   26 type  1   force =    -0.02096301   -0.02096158    0.00068875
     atom   27 type  1   force =    -0.02502390    0.00033373   -0.00871815
     atom   28 type  1   force =     0.01918710   -0.00265886   -0.03410950
     atom   29 type  1   force =     0.00868016   -0.01848313   -0.00003178
     atom   30 type  1   force =    -0.02339765    0.02526579   -0.00692634
     atom   31 type  1   force =     0.01022926   -0.01543670    0.02242790
     atom   32 type  1   force =    -0.01085788   -0.00901228    0.00674880
     atom   33 type  1   force =    -0.00489472    0.01510974    0.00777337
     atom   34 type  1   force =     0.02865030    0.02287976   -0.00407601
     atom   35 type  1   force =     0.00806649   -0.03248967   -0.00649922
     atom   36 type  1   force =     0.01162050   -0.00104913   -0.00919171
     atom   37 type  1   force =    -0.00800213   -0.00668801   -0.00065259
     atom   38 type  1   force =     0.02161854    0.01213729    0.01433961
     atom   39 type  1   force =    -0.00123416    0.01948167    0.02066176
     atom   40 type  1   force =    -0.00419605   -0.01935016   -0.03326571
     atom   41 type  1   force =     0.01345323    0.00578360   -0.00897762
     atom   42 type  1   force =    -0.02122499   -0.02425292    0.02297655
     atom   43 type  1   force =    -0.00690697    0.01867508    0.02478434
     atom   44 type  1   force =     0.00346257    0.00741153   -0.02429666
     atom   45 type  1   force =    -0.01767707    0.03533901   -0.00809552
     atom   46 type  1   force =    -0.00435120    0.02787967   -0.01017041
     atom   47 type  1   force =     0.01285119   -0.00016176    0.02638196
     atom   48 type  1   force =    -0.00011555    0.01648213   -0.00370088
     atom   49 type  1   force =    -0.01154696   -0.00829466   -0.03548778
     atom   50 type  1   force =     0.01937582   -0.01078903   -0.00287436
     atom   51 type  1   force =     0.00194877   -0.00449319    0.01245320
     atom   52 type  1   force =     0.01970012   -0.01540535   -0.01519752
     atom   53 type  1   force =     0.01030779   -0.01817030   -0.00196710
     atom   54 type  1   force =     0.00807667   -0.00260173    0.02397932
     atom   55 type  1   force =     0.02240095    0.03434435    0.03621017
     atom   56 type  1   force =    -0.01513587    0.01297470    0.01359557
     atom   57 type  1   force =     0.00729150   -0.00954343   -0.00892107
     atom   58 type  1   force =     0.00031614   -0.01880533   -0.02525191
     atom   59 type  1   force =     0.01704572   -0.00846231    0.00599263
     atom   60 type  1   force =    -0.00858128    0.00898308    0.01366191
     atom   61 type  1   force =    -0.00180020    0.02579460    0.02348607
     atom   62 type  1   force =    -0.01605745   -0.00892782    0.00586193
     atom   63 type  1   force =    -0.00761892    0.00778747    0.02351042
     atom   64 type  1   force =    -0.00078291    0.00934420    0.01439914

     Total force =     0.228064     Total SCF correction =     0.000604


     Computing stress (Cartesian axis) and pressure

          total   stress  (Ry/bohr**3)                   (kbar)     P=       -7.56
   0.00000637  -0.00000723   0.00002851            0.94       -1.06        4.19
  -0.00000723  -0.00013224   0.00000824           -1.06      -19.45        1.21
   0.00002851   0.00000824  -0.00002827            4.19        1.21       -4.16

 
     init_run     :      1.16s CPU      4.13s WALL (       1 calls)
     electrons    :      1.17s CPU      1.27s WALL (       1 calls)
     forces       :      0.04s CPU      0.04s WALL (       1 calls)
     stress       :      0.16s CPU      0.16s WALL (       1 calls)

     Called by init_run:
     wfcinit      :      0.69s CPU      3.51s WALL (       1 calls)
                                        3.51s GPU  (       1 calls)
     potinit      :      0.15s CPU      0.22s WALL (       1 calls)
     hinit0       :      0.30s CPU      0.33s WALL (       1 calls)

     Called by electrons:
     c_bands      :      0.81s CPU      0.86s WALL (      11 calls)
     sum_band     :      0.20s CPU      0.22s WALL (      11 calls)
     v_of_rho     :      0.09s CPU      0.17s WALL (      11 calls)
     mix_rho      :      0.07s CPU      0.08s WALL (      11 calls)

     Called by c_bands:
     init_us_2    :      0.03s CPU      0.03s WALL (      23 calls)
     init_us_2:gp :      0.03s CPU      0.03s WALL (      23 calls)
     regterg      :      0.73s CPU      0.78s WALL (      11 calls)

     Called by *egterg:
     rdiaghg      :      0.31s CPU      0.92s WALL (      67 calls)
                                        0.90s GPU  (      67 calls)
     h_psi        :      0.98s CPU      3.23s WALL (      69 calls)
                                        3.22s GPU  (      69 calls)
     g_psi        :      0.00s CPU      0.00s WALL (      57 calls)
                                        0.00s GPU  (      57 calls)

     Called by h_psi:
     h_psi:calbec :      0.64s CPU      2.83s WALL (      69 calls)
                                        2.82s GPU  (      69 calls)
     vloc_psi     :      0.30s CPU      0.36s WALL (      69 calls)
                                        0.36s GPU  (      69 calls)
     add_vuspsi   :      0.02s CPU      0.04s WALL (      69 calls)
                                        0.03s GPU  (      69 calls)

     General routines
     calbec       :      0.64s CPU      2.83s WALL (      74 calls)
     fft          :      0.33s CPU      0.43s WALL (      95 calls)
                                        0.10s GPU  (      61 calls)
     ffts         :      0.02s CPU      0.02s WALL (      11 calls)
     fftw         :      0.34s CPU      0.45s WALL (    1211 calls)
                                        0.40s GPU  (    1211 calls)
 
     Parallel routines
 
     PWSCF        :      2.56s CPU      5.67s WALL

 
   This run was terminated on:  11:10:35  10May2023            

=------------------------------------------------------------------------------=
   JOB DONE.
=------------------------------------------------------------------------------=
