ITEM: TIMESTEP
0
ITEM: NUMBER OF ATOMS
64
ITEM: BOX BOUNDS pp pp pp
1.0325114681729985e-01 1.0758148853182631e+01
1.0325114681729985e-01 1.0758148853182631e+01
1.0325114681729985e-01 1.0758148853182631e+01
ITEM: ATOMS id type xs ys zs
20 1 0.084409 0.255912 0.100879
2 1 0.135187 0.107293 0.273491
28 1 0.302211 0.295455 0.131399
8 1 0.434746 0.111052 0.0684177
26 1 0.0436746 0.449987 0.254009
56 1 0.374708 0.443548 0.0100936
29 1 0.294511 0.110651 0.437964
10 1 0.138073 0.345241 0.441088
6 1 0.361262 0.369146 0.337257
14 1 0.531116 0.103324 0.315157
44 1 0.857928 0.100405 0.0538523
62 1 0.689925 0.278984 0.268119
38 1 0.72842 0.297908 0.0646549
64 1 0.844146 0.483959 0.0598094
45 1 0.918375 0.054778 0.360504
35 1 0.864296 0.292929 0.415801
43 1 0.574161 0.440287 0.343107
61 1 0.25877 0.961349 0.136883
37 1 0.0797129 0.67085 0.140731
53 1 0.0257063 0.902105 0.109845
48 1 0.407865 0.72079 0.219585
4 1 0.374293 0.795413 0.0156807
47 1 0.256589 0.601703 0.349032
40 1 0.0197017 0.823011 0.346296
59 1 0.365269 0.888736 0.368592
17 1 0.539924 0.575395 0.147951
12 1 0.827323 0.509938 0.274688
23 1 0.596994 0.911919 0.014914
27 1 0.724593 0.725823 0.217308
46 1 0.726401 0.96729 0.241728
24 1 0.741364 0.673598 0.00995046
42 1 0.613238 0.635041 0.449871
21 1 0.570214 0.901766 0.46668
34 1 0.875301 0.686109 0.455344
15 1 0.222736 0.0122523 0.642154
1 1 0.0716565 0.213097 0.626711
30 1 0.16625 0.488475 0.626507
22 1 0.0029311 0.0247058 0.857174
54 1 0.32538 0.154833 0.854507
60 1 0.0417356 0.251401 0.874555
18 1 0.237508 0.361726 0.831555
49 1 0.407532 0.423303 0.668712
39 1 0.502507 0.266065 0.525925
52 1 0.73385 0.258141 0.63224
3 1 0.888643 0.0910982 0.630277
25 1 0.916626 0.484699 0.578541
51 1 0.521477 0.11813 0.71357
31 1 0.559541 0.307116 0.92719
5 1 0.723066 0.0395737 0.846585
13 1 0.627369 0.494653 0.830119
50 1 0.869192 0.370075 0.819696
11 1 0.420557 0.66658 0.604557
36 1 0.213697 0.744963 0.514115
16 1 0.454304 0.894935 0.657434
55 1 0.215627 0.606099 0.977931
32 1 0.0272167 0.54068 0.875838
7 1 0.213171 0.958416 0.879059
33 1 0.218019 0.738285 0.754795
19 1 0.685649 0.506922 0.608958
41 1 0.793746 0.885745 0.551402
9 1 0.533999 0.732816 0.815133
57 1 0.917487 0.77572 0.924599
58 1 0.987368 0.720967 0.701648
63 1 0.752978 0.835753 0.765725
ITEM: TIMESTEP
10
ITEM: NUMBER OF ATOMS
64
ITEM: BOX BOUNDS pp pp pp
1.0406778653826176e-01 1.0757332213461670e+01
1.0406778653826176e-01 1.0757332213461670e+01
1.0406778653826176e-01 1.0757332213461670e+01
ITEM: ATOMS id type xs ys zs
20 1 0.0792395 0.252886 0.10853
2 1 0.140385 0.115351 0.279385
28 1 0.305208 0.285396 0.136665
8 1 0.434773 0.11469 0.0642582
26 1 0.0369727 0.453026 0.265117
56 1 0.374702 0.448128 0.00691518
29 1 0.294019 0.0944947 0.436983
10 1 0.145415 0.334598 0.433173
6 1 0.361186 0.372924 0.335456
14 1 0.532421 0.112306 0.305973
44 1 0.871672 0.105694 0.0510539
62 1 0.688463 0.291766 0.270239
38 1 0.735958 0.28313 0.0520576
64 1 0.842293 0.471584 0.0554112
45 1 0.922881 0.053624 0.356313
35 1 0.864269 0.278534 0.420995
43 1 0.573285 0.443105 0.350951
61 1 0.255667 0.96294 0.140207
37 1 0.086607 0.672673 0.154312
53 1 0.016678 0.90733 0.110194
48 1 0.404948 0.714567 0.223361
4 1 0.378914 0.794387 0.0272184
47 1 0.264279 0.60925 0.33767
40 1 0.0217998 0.824195 0.357783
59 1 0.35676 0.899901 0.368714
17 1 0.533321 0.567984 0.139766
12 1 0.81674 0.50764 0.276882
23 1 0.605379 0.912276 0.015019
27 1 0.728905 0.72776 0.216487
46 1 0.716442 0.96393 0.244156
24 1 0.740033 0.678937 0.0178249
42 1 0.613555 0.645829 0.447431
21 1 0.579705 0.901566 0.461879
34 1 0.866666 0.669217 0.440763
15 1 0.210151 0.0079191 0.647442
1 1 0.0749555 0.216057 0.625006
30 1 0.168862 0.490437 0.619782
22 1 0.00511116 0.0226743 0.8481
54 1 0.327816 0.156379 0.861065
60 1 0.0513237 0.26081 0.867198
18 1 0.236803 0.355126 0.826138
49 1 0.412421 0.427152 0.663296
39 1 0.494933 0.275961 0.530841
52 1 0.732611 0.256523 0.632017
3 1 0.888923 0.0870267 0.630406
25 1 0.911083 0.477174 0.57739
51 1 0.513287 0.117263 0.717633
31 1 0.552031 0.309952 0.924795
5 1 0.72106 0.0306509 0.851363
13 1 0.635951 0.497162 0.831095
50 1 0.866631 0.373181 0.805809
11 1 0.422398 0.665944 0.608572
36 1 0.208147 0.752105 0.513937
16 1 0.456009 0.898542 0.661577
55 1 0.228352 0.607009 0.966407
32 1 0.0175783 0.532926 0.868014
7 1 0.217517 0.967795 0.886751
33 1 0.216351 0.735903 0.76241
19 1 0.692449 0.513556 0.617144
41 1 0.789461 0.895541 0.549454
9 1 0.526809 0.732928 0.81721
57 1 0.924331 0.776923 0.923507
58 1 0.989901 0.720586 0.707653
63 1 0.749424 0.82609 0.76674
ITEM: TIMESTEP
20
ITEM: NUMBER OF ATOMS
64
ITEM: BOX BOUNDS pp pp pp
1.0643940183864942e-01 1.0754960598161283e+01
1.0643940183864942e-01 1.0754960598161283e+01
1.0643940183864942e-01 1.0754960598161283e+01
ITEM: ATOMS id type xs ys zs
20 1 0.0738028 0.25063 0.116161
2 1 0.143753 0.123467 0.284742
28 1 0.30706 0.274842 0.143322
8 1 0.435067 0.117664 0.0611997
26 1 0.0308759 0.456101 0.27387
56 1 0.376798 0.452459 0.00294307
29 1 0.293097 0.0809083 0.4385
10 1 0.153168 0.323982 0.426219
6 1 0.358498 0.378452 0.33513
14 1 0.534652 0.120178 0.296363
44 1 0.887605 0.109036 0.0469308
62 1 0.689538 0.300525 0.271981
38 1 0.742072 0.267367 0.039744
64 1 0.842093 0.461316 0.0489572
45 1 0.927653 0.051171 0.351728
35 1 0.86381 0.264459 0.426669
43 1 0.569567 0.449854 0.359129
61 1 0.252175 0.964482 0.142563
37 1 0.0946137 0.673855 0.169677
53 1 0.00799861 0.910776 0.110154
48 1 0.403058 0.713281 0.229444
4 1 0.384036 0.794737 0.0346805
47 1 0.267936 0.61258 0.327448
40 1 0.0242622 0.824947 0.368093
59 1 0.349823 0.906764 0.366542
17 1 0.529373 0.5588 0.13027
12 1 0.8067 0.505847 0.279927
23 1 0.61277 0.912509 0.0161187
27 1 0.732341 0.731106 0.222676
46 1 0.705756 0.959822 0.245932
24 1 0.737355 0.681937 0.0201171
42 1 0.61327 0.657217 0.446493
21 1 0.588386 0.901225 0.456134
34 1 0.85729 0.653379 0.426008
15 1 0.198638 0.00455678 0.652461
1 1 0.0800891 0.218752 0.623828
30 1 0.171808 0.491241 0.613797
22 1 0.00467218 0.0223388 0.838652
54 1 0.333677 0.157011 0.866729
60 1 0.0585067 0.267591 0.861316
18 1 0.240794 0.351609 0.817463
49 1 0.413479 0.43493 0.659984
39 1 0.488262 0.283574 0.53474
52 1 0.730694 0.255598 0.631391
3 1 0.889397 0.0821594 0.631655
25 1 0.906862 0.469435 0.576097
51 1 0.506373 0.116908 0.722448
31 1 0.543747 0.312377 0.923252
5 1 0.718298 0.0230327 0.856822
13 1 0.644421 0.501593 0.832097
50 1 0.862625 0.377916 0.790766
11 1 0.424292 0.664603 0.613523
36 1 0.20296 0.759505 0.513033
16 1 0.457468 0.90254 0.665691
55 1 0.239094 0.610773 0.954212
32 1 0.00778917 0.526256 0.860757
7 1 0.222063 0.975183 0.894401
33 1 0.214555 0.733497 0.770323
19 1 0.699069 0.519381 0.624543
41 1 0.785863 0.904379 0.548377
9 1 0.520718 0.733838 0.818905
57 1 0.931322 0.778799 0.921899
58 1 0.991992 0.718879 0.715128
63 1 0.746447 0.814984 0.767739
ITEM: TIMESTEP
30
ITEM: NUMBER OF ATOMS
64
ITEM: BOX BOUNDS pp pp pp
1.0991974406357308e-01 1.0751480255936364e+01
1.0991974406357308e-01 1.0751480255936364e+01
1.0991974406357308e-01 1.0751480255936364e+01
ITEM: ATOMS id type xs ys zs
20 1 0.068203 0.249564 0.122265
2 1 0.14543 0.131603 0.290379
28 1 0.307141 0.266627 0.150311
8 1 0.437228 0.119105 0.060245
26 1 0.0251619 0.459244 0.28069
56 1 0.379455 0.453534 0.998891
29 1 0.289719 0.0752692 0.446152
10 1 0.160872 0.313326 0.420352
6 1 0.353873 0.386353 0.335939
14 1 0.537716 0.127252 0.285607
44 1 0.907663 0.110142 0.0410821
62 1 0.693578 0.306185 0.271853
38 1 0.744592 0.252325 0.0285901
64 1 0.842901 0.453798 0.0413507
45 1 0.93261 0.0464083 0.346612
35 1 0.862227 0.250354 0.433031
43 1 0.563497 0.459574 0.367765
61 1 0.248257 0.965395 0.143823
37 1 0.103719 0.674489 0.187122
53 1 0.999895 0.912453 0.109823
48 1 0.408759 0.718357 0.234136
4 1 0.389691 0.79659 0.0373917
47 1 0.263169 0.608648 0.322009
40 1 0.0259146 0.824668 0.377222
59 1 0.346329 0.903221 0.359182
17 1 0.527375 0.550346 0.12101
12 1 0.79618 0.501376 0.279149
23 1 0.618457 0.911121 0.0198597
27 1 0.73568 0.735195 0.234831
46 1 0.693738 0.954935 0.247523
24 1 0.733565 0.682732 0.0176084
42 1 0.612147 0.66884 0.447876
21 1 0.594612 0.900855 0.449199
34 1 0.848783 0.641022 0.412581
15 1 0.187489 0.00162521 0.657194
1 1 0.0863828 0.221083 0.623086
30 1 0.175016 0.49089 0.608507
22 1 0.00306617 0.0233445 0.828983
54 1 0.34238 0.158016 0.87084
60 1 0.0601859 0.271959 0.857115
18 1 0.251363 0.352262 0.805187
49 1 0.409575 0.447304 0.659813
39 1 0.483789 0.287898 0.536834
52 1 0.728139 0.254323 0.630139
3 1 0.890915 0.0784503 0.634474
25 1 0.905094 0.460823 0.573361
51 1 0.501372 0.117763 0.727221
31 1 0.536392 0.314847 0.922549
5 1 0.715606 0.0167578 0.861529
13 1 0.65223 0.507163 0.835673
50 1 0.857336 0.382072 0.775063
11 1 0.426084 0.663704 0.619221
36 1 0.198811 0.766829 0.511654
16 1 0.45897 0.905667 0.669254
55 1 0.247851 0.617183 0.943398
32 1 0.999119 0.521223 0.855044
7 1 0.225106 0.980048 0.902374
33 1 0.212948 0.732356 0.776563
19 1 0.704361 0.526451 0.629016
41 1 0.783751 0.911717 0.549512
9 1 0.515488 0.735671 0.820198
57 1 0.937316 0.781518 0.921206
58 1 0.993624 0.715687 0.723275
63 1 0.744329 0.803374 0.768152
ITEM: TIMESTEP
40
ITEM: NUMBER OF ATOMS
64
ITEM: BOX BOUNDS pp pp pp
1.1393444828293298e-01 1.0747465551717006e+01
1.1393444828293298e-01 1.0747465551717006e+01
1.1393444828293298e-01 1.0747465551717006e+01
ITEM: ATOMS id type xs ys zs
20 1 0.0638612 0.250941 0.126186
2 1 0.145889 0.136955 0.295249
28 1 0.304888 0.261855 0.157424
8 1 0.442256 0.118491 0.0630147
26 1 0.0203624 0.462231 0.285718
56 1 0.379631 0.451333 0.994169
29 1 0.283885 0.0761718 0.459651
10 1 0.167183 0.304768 0.417571
6 1 0.348906 0.396073 0.336979
14 1 0.541927 0.133728 0.27329
44 1 0.929309 0.10963 0.0333319
62 1 0.698093 0.308739 0.270998
38 1 0.743584 0.239538 0.0186642
64 1 0.84392 0.448885 0.033103
45 1 0.937858 0.0392425 0.341212
35 1 0.859214 0.237077 0.439546
43 1 0.556963 0.469199 0.375792
61 1 0.244168 0.965206 0.14415
37 1 0.109938 0.675818 0.20453
53 1 0.993567 0.912076 0.10979
48 1 0.420689 0.725826 0.237841
4 1 0.395242 0.799536 0.0348203
47 1 0.254811 0.598768 0.321786
40 1 0.0252704 0.823178 0.38373
59 1 0.345302 0.89197 0.347973
17 1 0.528265 0.545388 0.11437
12 1 0.785246 0.491735 0.270487
23 1 0.621309 0.907128 0.0272833
27 1 0.738572 0.738671 0.247542
46 1 0.680918 0.950248 0.2481
24 1 0.728907 0.681948 0.0133873
42 1 0.609583 0.679177 0.451788
21 1 0.597136 0.90091 0.442182
34 1 0.844387 0.63611 0.405391
15 1 0.176973 0.999076 0.661317
1 1 0.0930987 0.223128 0.622927
30 1 0.178019 0.489532 0.60412
22 1 0.0018731 0.0248846 0.820845
54 1 0.351131 0.160207 0.872865
60 1 0.0579119 0.275607 0.853913
18 1 0.265022 0.355342 0.791515
49 1 0.401691 0.460514 0.661615
39 1 0.482163 0.289935 0.538047
52 1 0.724589 0.251524 0.628098
3 1 0.893542 0.0779399 0.638476
25 1 0.906564 0.452056 0.566776
51 1 0.500214 0.119874 0.729932
31 1 0.532048 0.316955 0.922158
5 1 0.713875 0.0127937 0.863639
13 1 0.658362 0.513358 0.843152
50 1 0.850999 0.383433 0.761499
11 1 0.427843 0.665648 0.624618
36 1 0.197109 0.773574 0.510938
16 1 0.460564 0.906693 0.67175
55 1 0.256579 0.623022 0.939061
32 1 0.993071 0.518059 0.852463
7 1 0.225693 0.982279 0.909754
33 1 0.21122 0.735442 0.776426
19 1 0.707524 0.535783 0.629544
41 1 0.783294 0.915939 0.553409
9 1 0.511388 0.738474 0.82126
57 1 0.940916 0.785505 0.922967
58 1 0.994468 0.711016 0.729997
63 1 0.743444 0.792773 0.767767
ITEM: TIMESTEP
50
ITEM: NUMBER OF ATOMS
64
ITEM: BOX BOUNDS pp pp pp
1.1804781618322302e-01 1.0743352183816718e+01
1.1804781618322302e-01 1.0743352183816718e+01
1.1804781618322302e-01 1.0743352183816718e+01
ITEM: ATOMS id type xs ys zs
20 1 0.0622047 0.256296 0.129139
2 1 0.145119 0.135945 0.297109
28 1 0.300862 0.25981 0.164588
8 1 0.449241 0.116301 0.0694017
26 1 0.0164633 0.465017 0.289579
56 1 0.37584 0.44737 0.988814
29 1 0.276958 0.0778083 0.47584
10 1 0.172095 0.300763 0.420591
6 1 0.345205 0.40592 0.337346
14 1 0.54783 0.139963 0.259337
44 1 0.949532 0.108701 0.0226034
62 1 0.69972 0.304451 0.271041
38 1 0.741072 0.2276 0.00850832
64 1 0.844558 0.445482 0.0240307
45 1 0.944076 0.0301784 0.335368
35 1 0.854939 0.224083 0.445674
43 1 0.551141 0.47715 0.382994
61 1 0.239845 0.963856 0.144036
37 1 0.108273 0.680251 0.219277
53 1 0.989546 0.909782 0.111332
48 1 0.435306 0.728885 0.240648
4 1 0.400653 0.802941 0.028113
47 1 0.251098 0.586083 0.326589
40 1 0.0215277 0.820466 0.387346
59 1 0.343042 0.882381 0.338073
17 1 0.53241 0.544389 0.11056
12 1 0.77641 0.483176 0.255434
23 1 0.621564 0.900848 0.0373755
27 1 0.739877 0.741662 0.256883
46 1 0.66748 0.946849 0.245999
24 1 0.723738 0.680252 0.00919201
42 1 0.605367 0.686829 0.457972
21 1 0.596157 0.902492 0.437482
34 1 0.844947 0.635366 0.404692
15 1 0.166912 0.996627 0.664955
1 1 0.100192 0.225154 0.623589
30 1 0.180087 0.487017 0.600092
22 1 0.00229684 0.0259454 0.815978
54 1 0.357639 0.163241 0.874232
60 1 0.0542728 0.280499 0.850403
18 1 0.276793 0.357537 0.779548
49 1 0.392636 0.471237 0.662011
39 1 0.483069 0.29209 0.540091
52 1 0.718958 0.246269 0.625411
3 1 0.896322 0.0815248 0.641893
25 1 0.910682 0.444046 0.554502
51 1 0.504624 0.122625 0.728664
31 1 0.532147 0.318017 0.921651
5 1 0.712611 0.0111591 0.863844
13 1 0.663179 0.520238 0.853735
50 1 0.843785 0.381894 0.751882
11 1 0.429964 0.673135 0.628699
36 1 0.198627 0.780087 0.511814
16 1 0.462419 0.905636 0.673095
55 1 0.267112 0.628098 0.941943
32 1 0.988989 0.515417 0.853341
7 1 0.224581 0.983047 0.915949
33 1 0.209311 0.743593 0.768895
19 1 0.709477 0.547682 0.627415
41 1 0.783385 0.916223 0.560029
9 1 0.508456 0.742342 0.822835
57 1 0.941442 0.791015 0.927219
58 1 0.994112 0.704933 0.734702
63 1 0.744049 0.783245 0.766508
ITEM: TIMESTEP
60
ITEM: NUMBER OF ATOMS
64
ITEM: BOX BOUNDS pp pp pp
1.2204109220732917e-01 1.0739358907792617e+01
1.2204109220732917e-01 1.0739358907792617e+01
1.2204109220732917e-01 1.0739358907792617e+01
ITEM: ATOMS id type xs ys zs
20 1 0.0634868 0.265681 0.132172
2 1 0.143671 0.128565 0.29549
28 1 0.296413 0.259538 0.170985
8 1 0.454896 0.113343 0.075685
26 1 0.0135925 0.467535 0.29276
56 1 0.369509 0.443046 0.984292
29 1 0.269574 0.0784927 0.491889
10 1 0.175959 0.301562 0.429222
6 1 0.345506 0.409764 0.336463
14 1 0.555392 0.145111 0.246783
44 1 0.966119 0.108484 0.00969453
62 1 0.698169 0.291951 0.273912
38 1 0.738837 0.215844 0.997275
64 1 0.844038 0.442732 0.0146842
45 1 0.951219 0.0205809 0.329228
35 1 0.849932 0.211463 0.449811
43 1 0.547322 0.482377 0.388882
61 1 0.23548 0.961565 0.144136
37 1 0.0990138 0.68768 0.230521
53 1 0.988168 0.906734 0.115675
48 1 0.451479 0.724026 0.240567
4 1 0.405859 0.806352 0.0201137
47 1 0.250506 0.577395 0.334701
40 1 0.0149621 0.816516 0.389372
59 1 0.337105 0.879221 0.332916
17 1 0.538712 0.54631 0.108615
12 1 0.771627 0.482844 0.237263
23 1 0.619858 0.893452 0.0457305
27 1 0.738635 0.744285 0.26114
46 1 0.654715 0.946073 0.241326
24 1 0.718961 0.67903 0.00624375
42 1 0.599856 0.690521 0.465442
21 1 0.592502 0.906471 0.43802
34 1 0.849771 0.634089 0.408425
15 1 0.158245 0.993764 0.667658
1 1 0.10735 0.227207 0.625585
30 1 0.179522 0.483203 0.595478
22 1 0.00476199 0.0251845 0.815931
54 1 0.361503 0.165891 0.876298
60 1 0.0501855 0.287149 0.846191
18 1 0.281957 0.354786 0.773422
49 1 0.387473 0.48037 0.657474
39 1 0.486318 0.295805 0.544063
52 1 0.71025 0.238587 0.622904
3 1 0.897781 0.0887606 0.642432
25 1 0.91607 0.437397 0.537936
51 1 0.514515 0.125346 0.723005
31 1 0.537178 0.317887 0.921218
5 1 0.710828 0.0113748 0.864164
13 1 0.666889 0.52654 0.864658
50 1 0.836545 0.379178 0.745841
11 1 0.432445 0.685877 0.630529
36 1 0.202897 0.786729 0.514061
16 1 0.464664 0.903754 0.673185
55 1 0.278411 0.634956 0.947753
32 1 0.9859 0.511674 0.856826
7 1 0.223028 0.983423 0.920086
33 1 0.208168 0.754417 0.75773
19 1 0.711654 0.561201 0.624818
41 1 0.782699 0.912573 0.568744
9 1 0.507288 0.747133 0.825854
57 1 0.93857 0.797243 0.931843
58 1 0.992219 0.698237 0.738282
63 1 0.746069 0.774637 0.764491
ITEM: TIMESTEP
70
ITEM: NUMBER OF ATOMS
64
ITEM: BOX BOUNDS pp pp pp
1.2571372914685153e-01 1.0735686270853094e+01
1.2571372914685153e-01 1.0735686270853094e+01
1.2571372914685153e-01 1.0735686270853094e+01
ITEM: ATOMS id type xs ys zs
20 1 0.0666116 0.277514 0.135502
2 1 0.143027 0.118711 0.292364
28 1 0.292593 0.260176 0.175957
8 1 0.455556 0.10957 0.0769829
26 1 0.0116683 0.470002 0.295491
56 1 0.362857 0.438391 0.98118
29 1 0.261726 0.0791166 0.506424
10 1 0.179322 0.30448 0.439745
6 1 0.35138 0.402984 0.334076
14 1 0.563097 0.147134 0.238864
44 1 0.979942 0.111003 0.998357
62 1 0.699828 0.279873 0.28097
38 1 0.737802 0.204224 0.984564
64 1 0.841312 0.439511 0.00592833
45 1 0.958318 0.0115729 0.322843
35 1 0.844314 0.199111 0.450653
43 1 0.545771 0.484812 0.393597
61 1 0.23116 0.958581 0.144824
37 1 0.0866468 0.694967 0.238903
53 1 0.989372 0.904402 0.123061
48 1 0.467936 0.714241 0.238779
4 1 0.410866 0.810443 0.0135239
47 1 0.246261 0.578747 0.34408
40 1 0.00620221 0.811532 0.393262
59 1 0.328741 0.879598 0.331188
17 1 0.546373 0.549331 0.107539
12 1 0.768176 0.487607 0.21724
23 1 0.616796 0.885162 0.0474575
27 1 0.735085 0.74581 0.262023
46 1 0.643302 0.948068 0.238023
24 1 0.715462 0.681032 0.00613003
42 1 0.593611 0.691176 0.472774
21 1 0.587694 0.912382 0.444268
34 1 0.857098 0.631464 0.414534
15 1 0.151705 0.9894 0.669023
1 1 0.114426 0.228907 0.629685
30 1 0.175269 0.478259 0.589284
22 1 0.00799383 0.0212496 0.818656
54 1 0.364675 0.166946 0.878715
60 1 0.0457158 0.295046 0.841395
18 1 0.280632 0.346951 0.773181
49 1 0.387546 0.489337 0.648353
39 1 0.491878 0.301615 0.550239
52 1 0.698437 0.229183 0.621219
3 1 0.89751 0.0978135 0.640266
25 1 0.922048 0.431574 0.519247
51 1 0.527652 0.127702 0.714624
31 1 0.545945 0.317478 0.921396
5 1 0.707639 0.0123802 0.865659
13 1 0.669174 0.529711 0.872855
50 1 0.829714 0.376862 0.741058
11 1 0.434436 0.700479 0.630126
36 1 0.208248 0.794111 0.516374
16 1 0.467855 0.903878 0.671977
55 1 0.289004 0.64475 0.952344
32 1 0.983551 0.506368 0.861129
7 1 0.22191 0.984079 0.922033
33 1 0.207874 0.765921 0.746306
19 1 0.715109 0.575927 0.623115
41 1 0.780774 0.906138 0.579136
9 1 0.508623 0.752438 0.830424
57 1 0.932483 0.803574 0.934675
58 1 0.989164 0.691885 0.742408
63 1 0.74933 0.766227 0.761885
ITEM: TIMESTEP
80
ITEM: NUMBER OF ATOMS
64
ITEM: BOX BOUNDS pp pp pp
1.2857051313610324e-01 1.0732829486863842e+01
1.2857051313610324e-01 1.0732829486863842e+01
1.2857051313610324e-01 1.0732829486863842e+01
ITEM: ATOMS id type xs ys zs
20 1 0.070416 0.289899 0.139267
2 1 0.144963 0.109885 0.28885
28 1 0.289806 0.260257 0.178215
8 1 0.449599 0.104886 0.0722755
26 1 0.010555 0.472344 0.297433
56 1 0.357409 0.433762 0.979362
29 1 0.254563 0.0809261 0.516978
10 1 0.182813 0.307481 0.447876
6 1 0.359503 0.390988 0.331299
14 1 0.56722 0.145049 0.235491
44 1 0.991503 0.119123 0.993399
62 1 0.710287 0.276505 0.29203
38 1 0.739183 0.194321 0.971256
64 1 0.835528 0.434274 0.998839
45 1 0.963035 0.00459494 0.317746
35 1 0.838141 0.187315 0.447752
43 1 0.546108 0.484789 0.397648
61 1 0.227038 0.955039 0.145646
37 1 0.0746223 0.699215 0.242736
53 1 0.993046 0.902692 0.13128
48 1 0.483175 0.704435 0.237953
4 1 0.414568 0.817105 0.0109536
47 1 0.238438 0.585814 0.354529
40 1 0.995667 0.807141 0.403091
59 1 0.320658 0.880391 0.33138
17 1 0.55494 0.551098 0.106458
12 1 0.76373 0.493315 0.197334
23 1 0.613944 0.877266 0.0414922
27 1 0.729833 0.745323 0.261547
46 1 0.633799 0.950395 0.239078
24 1 0.714391 0.687927 0.0100309
42 1 0.587479 0.69073 0.477718
21 1 0.58318 0.918766 0.454959
34 1 0.864536 0.628308 0.421531
15 1 0.147407 0.982152 0.669051
1 1 0.120743 0.2294 0.63678
30 1 0.168415 0.473898 0.581868
22 1 0.00991942 0.0128274 0.820088
54 1 0.368846 0.1656 0.880451
60 1 0.0414229 0.30201 0.836337
18 1 0.275788 0.33806 0.77588
49 1 0.389623 0.495876 0.63804
39 1 0.498771 0.30966 0.557774
52 1 0.68827 0.220404 0.619062
3 1 0.89611 0.105932 0.637765
25 1 0.92865 0.425993 0.500215
51 1 0.538997 0.12792 0.706855
31 1 0.556297 0.317846 0.922519
5 1 0.702342 0.0124227 0.867779
13 1 0.669274 0.527631 0.876006
50 1 0.823478 0.375595 0.735902
11 1 0.434088 0.712139 0.628429
36 1 0.212863 0.802217 0.517145
16 1 0.473063 0.910185 0.669866
55 1 0.297781 0.655056 0.952985
32 1 0.982406 0.501244 0.864228
7 1 0.22178 0.985458 0.922312
33 1 0.207729 0.77653 0.736875
19 1 0.720456 0.590446 0.622858
41 1 0.777813 0.898831 0.590196
9 1 0.512671 0.757332 0.834576
57 1 0.92387 0.810199 0.935029
58 1 0.986042 0.686796 0.748096
63 1 0.753636 0.757896 0.759494
ITEM: TIMESTEP
90
ITEM: NUMBER OF ATOMS
64
ITEM: BOX BOUNDS pp pp pp
1.2984824790416027e-01 1.0731551752095786e+01
1.2984824790416027e-01 1.0731551752095786e+01
1.2984824790416027e-01 1.0731551752095786e+01
ITEM: ATOMS id type xs ys zs
20 1 0.073885 0.301424 0.143743
2 1 0.150135 0.104016 0.285812
28 1 0.28783 0.258352 0.176394
8 1 0.439385 0.099642 0.0664256
26 1 0.0109699 0.474797 0.296467
56 1 0.35384 0.429849 0.978293
29 1 0.249346 0.0848977 0.521269
10 1 0.187103 0.307717 0.450454
6 1 0.366702 0.380605 0.330572
14 1 0.567334 0.143927 0.234149
44 1 0.00131575 0.133105 0.994159
62 1 0.725542 0.281781 0.303021
38 1 0.744494 0.189401 0.959588
64 1 0.827571 0.42564 0.993053
45 1 0.963391 0.00132116 0.317388
35 1 0.832928 0.17556 0.442613
43 1 0.547675 0.482672 0.401446
61 1 0.223553 0.950855 0.145257
37 1 0.0643477 0.699899 0.24186
53 1 0.998601 0.89973 0.136059
48 1 0.496103 0.698131 0.240378
4 1 0.41437 0.827873 0.0137301
47 1 0.229906 0.593033 0.365686
40 1 0.984737 0.805151 0.419149
59 1 0.314569 0.880821 0.332661
17 1 0.56302 0.549485 0.103676
12 1 0.758156 0.497972 0.18091
23 1 0.613475 0.873845 0.0321514
27 1 0.723732 0.742621 0.260972
46 1 0.626566 0.948321 0.243169
24 1 0.717185 0.696199 0.0160112
42 1 0.582584 0.690517 0.478346
21 1 0.579906 0.924199 0.467899
34 1 0.869402 0.624809 0.42892
15 1 0.144824 0.97254 0.667403
1 1 0.125745 0.227906 0.646269
30 1 0.160797 0.473833 0.574897
22 1 0.00858247 0.00110099 0.8206
54 1 0.374025 0.162345 0.879714
60 1 0.0382875 0.304652 0.831346
18 1 0.269772 0.33083 0.780292
49 1 0.390746 0.498855 0.628801
39 1 0.504806 0.319926 0.565139
52 1 0.689371 0.216236 0.612852
3 1 0.894087 0.111147 0.637143
25 1 0.935319 0.419639 0.48378
51 1 0.541126 0.122628 0.704906
31 1 0.565891 0.319433 0.924506
5 1 0.694571 0.00913896 0.868605
13 1 0.666937 0.522443 0.874665
50 1 0.817896 0.375512 0.729815
11 1 0.429702 0.718796 0.627469
36 1 0.215473 0.810181 0.515052
16 1 0.480671 0.923041 0.667777
55 1 0.304403 0.662205 0.948761
32 1 0.982148 0.499155 0.86557
7 1 0.222634 0.987893 0.921967
33 1 0.207424 0.78362 0.731588
19 1 0.727448 0.60157 0.622444
41 1 0.77461 0.893164 0.600067
9 1 0.518523 0.760829 0.835674
57 1 0.913936 0.817435 0.93375
58 1 0.984001 0.683801 0.75531
63 1 0.75881 0.750895 0.760052
ITEM: TIMESTEP
100
ITEM: NUMBER OF ATOMS
64
ITEM: BOX BOUNDS pp pp pp
1.2896390536070879e-01 1.0732436094639237e+01
1.2896390536070879e-01 1.0732436094639237e+01
1.2896390536070879e-01 1.0732436094639237e+01
ITEM: ATOMS id type xs ys zs
20 1 0.076535 0.311561 0.149039
2 1 0.157521 0.101064 0.284386
28 1 0.28686 0.254582 0.170455
8 1 0.42794 0.0936629 0.0650951
26 1 0.0141951 0.478749 0.289247
56 1 0.352143 0.426727 0.97745
29 1 0.2458 0.0914648 0.519522
10 1 0.192538 0.303316 0.44804
6 1 0.37261 0.372875 0.332696
14 1 0.565456 0.147568 0.23303
44 1 0.0102796 0.150901 0.996
62 1 0.739002 0.294293 0.308783
38 1 0.754329 0.190455 0.95025
64 1 0.819569 0.412768 0.986818
45 1 0.959692 0.00221266 0.322997
35 1 0.831591 0.160827 0.437903
43 1 0.55005 0.478712 0.405452
61 1 0.221101 0.945533 0.142678
37 1 0.0548204 0.698486 0.239509
53 1 0.00513828 0.893903 0.136109
48 1 0.505954 0.695532 0.246416
4 1 0.408338 0.841879 0.0203472
47 1 0.221196 0.599551 0.377331
40 1 0.975042 0.806391 0.438199
59 1 0.311061 0.881508 0.333701
17 1 0.567094 0.544701 0.097318
12 1 0.753895 0.500662 0.171085
23 1 0.615352 0.877729 0.0231925
27 1 0.718707 0.737933 0.261241
46 1 0.620772 0.940287 0.248766
24 1 0.725344 0.701222 0.0221614
42 1 0.579173 0.69079 0.474832
21 1 0.579023 0.928089 0.479979
34 1 0.870153 0.620192 0.436636
15 1 0.142756 0.964537 0.662727
1 1 0.129507 0.223857 0.655308
30 1 0.153395 0.479844 0.569173
22 1 0.00378721 0.989357 0.823472
54 1 0.379521 0.158534 0.873792
60 1 0.0365019 0.302029 0.826931
18 1 0.263859 0.325781 0.787261
49 1 0.389291 0.499661 0.620843
39 1 0.510406 0.330895 0.571903
52 1 0.70044 0.216632 0.603056
3 1 0.892126 0.113034 0.639087
25 1 0.940932 0.410644 0.47299
51 1 0.535817 0.116718 0.709548
31 1 0.573411 0.321811 0.927271
5 1 0.684412 0.00270669 0.866532
13 1 0.662444 0.517633 0.869712
50 1 0.81293 0.376934 0.722527
11 1 0.421389 0.722996 0.628664
36 1 0.215316 0.816647 0.510422
16 1 0.48843 0.935432 0.667175
55 1 0.310158 0.665725 0.940028
32 1 0.981359 0.500248 0.866659
7 1 0.223983 0.991703 0.921414
33 1 0.207829 0.783174 0.732118
19 1 0.735104 0.606613 0.618551
41 1 0.772078 0.890772 0.607293
9 1 0.524567 0.763041 0.834085
57 1 0.903438 0.825245 0.932224
58 1 0.984004 0.683807 0.763373
63 1 0.764762 0.746779 0.767089
ITEM: TIMESTEP
110
ITEM: NUMBER OF ATOMS
64
ITEM: BOX BOUNDS pp pp pp
1.2580282530171427e-01 1.0735597174698231e+01
1.2580282530171427e-01 1.0735597174698231e+01
1.2580282530171427e-01 1.0735597174698231e+01
ITEM: ATOMS id type xs ys zs
20 1 0.0787766 0.319164 0.154394
2 1 0.165094 0.0995489 0.285491
28 1 0.287494 0.25096 0.161895
8 1 0.417523 0.0877258 0.0692843
26 1 0.0196787 0.485267 0.276894
56 1 0.352211 0.424688 0.976709
29 1 0.243338 0.0991654 0.513563
10 1 0.197954 0.296559 0.444257
6 1 0.377162 0.366264 0.33601
14 1 0.563696 0.15406 0.231681
44 1 0.0179389 0.168956 0.996686
62 1 0.748528 0.311873 0.309322
38 1 0.766708 0.193486 0.942502
64 1 0.813773 0.397765 0.980179
45 1 0.955039 0.00488634 0.330963
35 1 0.834548 0.143396 0.433071
43 1 0.553395 0.4737 0.409397
61 1 0.219935 0.939085 0.138449
37 1 0.0456164 0.696004 0.238917
53 1 0.0102671 0.886188 0.13378
48 1 0.510666 0.694455 0.253844
4 1 0.398059 0.856393 0.0282687
47 1 0.212135 0.606301 0.388365
40 1 0.967093 0.811023 0.457048
59 1 0.310647 0.883649 0.33243
17 1 0.563303 0.539411 0.0871535
12 1 0.75435 0.50077 0.169095
23 1 0.616642 0.885439 0.0178047
27 1 0.718386 0.731859 0.263045
46 1 0.614814 0.930403 0.254717
24 1 0.737516 0.702167 0.0283039
42 1 0.576593 0.691512 0.469613
21 1 0.582285 0.929812 0.486117
34 1 0.86782 0.614154 0.442989
15 1 0.139763 0.96173 0.655882
1 1 0.132465 0.216651 0.659712
30 1 0.147123 0.489165 0.563921
22 1 0.998685 0.981464 0.828069
54 1 0.384663 0.154945 0.863669
60 1 0.0350955 0.297519 0.82424
18 1 0.259192 0.323159 0.797394
49 1 0.384076 0.500718 0.614149
39 1 0.517644 0.338729 0.578179
52 1 0.710586 0.21949 0.594352
3 1 0.891815 0.110862 0.64377
25 1 0.945105 0.399213 0.467336
51 1 0.531733 0.122462 0.718155
31 1 0.577724 0.323352 0.930736
5 1 0.674131 0.998106 0.860358
13 1 0.656772 0.51583 0.86133
50 1 0.808947 0.380636 0.714259
11 1 0.411267 0.726799 0.631668
36 1 0.211849 0.819311 0.505525
16 1 0.491396 0.936496 0.669689
55 1 0.316438 0.667303 0.928277
32 1 0.97895 0.501321 0.868868
7 1 0.224889 0.996931 0.919934
33 1 0.209576 0.774018 0.738144
19 1 0.741792 0.605978 0.611798
41 1 0.771355 0.891591 0.611445
9 1 0.529683 0.764535 0.831882
57 1 0.893519 0.832216 0.932853
58 1 0.987065 0.687561 0.771059
63 1 0.769943 0.744735 0.779002
ITEM: TIMESTEP
120
ITEM: NUMBER OF ATOMS
64
ITEM: BOX BOUNDS pp pp pp
1.2054709357611593e-01 1.0740852906423831e+01
1.2054709357611593e-01 1.0740852906423831e+01
1.2054709357611593e-01 1.0740852906423831e+01
ITEM: ATOMS id type xs ys zs
20 1 0.0818979 0.322535 0.158468
2 1 0.171703 0.0979545 0.288831
28 1 0.289504 0.249731 0.152581
8 1 0.40989 0.0838968 0.0758891
26 1 0.0252126 0.492921 0.26489
56 1 0.353932 0.424332 0.976549
29 1 0.242244 0.103512 0.505847
10 1 0.201355 0.292742 0.440744
6 1 0.381135 0.359163 0.33825
14 1 0.562988 0.1608 0.230609
44 1 0.0232721 0.183936 0.997752
62 1 0.755474 0.330122 0.308803
38 1 0.778945 0.191777 0.935323
64 1 0.810494 0.386569 0.975065
45 1 0.954684 0.0037213 0.335701
35 1 0.837102 0.129633 0.428567
43 1 0.558144 0.468755 0.412199
61 1 0.218661 0.932543 0.134475
37 1 0.0371032 0.694127 0.241145
53 1 0.0117479 0.878206 0.131108
48 1 0.508896 0.693148 0.25961
4 1 0.387303 0.868361 0.0352097
47 1 0.202558 0.614987 0.396553
40 1 0.959531 0.817961 0.474991
59 1 0.313348 0.88777 0.328341
17 1 0.553746 0.535223 0.0749649
12 1 0.758347 0.499544 0.171292
23 1 0.615084 0.890984 0.0193065
27 1 0.725004 0.724727 0.266111
46 1 0.60777 0.922555 0.260073
24 1 0.750171 0.700514 0.0353496
42 1 0.574405 0.692444 0.466157
21 1 0.589666 0.929309 0.485444
34 1 0.866062 0.608068 0.444464
15 1 0.135832 0.962807 0.649738
1 1 0.135268 0.207118 0.6593
30 1 0.141973 0.497362 0.559388
22 1 0.997 0.979936 0.831517
54 1 0.386569 0.151621 0.855604
60 1 0.0335307 0.295488 0.821997
18 1 0.255345 0.322116 0.80953
49 1 0.375276 0.502984 0.608103
39 1 0.526618 0.341734 0.585083
52 1 0.715835 0.223832 0.587877
3 1 0.893809 0.10451 0.650544
25 1 0.94851 0.387545 0.463145
51 1 0.533212 0.138928 0.725557
31 1 0.579103 0.322995 0.934974
5 1 0.665664 0.999365 0.848578
13 1 0.651144 0.517776 0.849911
50 1 0.806182 0.387638 0.705381
11 1 0.401237 0.729833 0.635035
36 1 0.205385 0.817371 0.501535
16 1 0.48951 0.927673 0.675919
55 1 0.323899 0.668405 0.915452
32 1 0.97463 0.500135 0.872106
7 1 0.22425 0.00331141 0.916317
33 1 0.211019 0.760435 0.747345
19 1 0.745032 0.602264 0.607743
41 1 0.773316 0.894065 0.613437
9 1 0.534017 0.765317 0.829992
57 1 0.885935 0.837558 0.938544
58 1 0.993788 0.694464 0.778047
63 1 0.771961 0.74176 0.789534
ITEM: TIMESTEP
130
ITEM: NUMBER OF ATOMS
64
ITEM: BOX BOUNDS pp pp pp
1.1339608700220705e-01 1.0748003912997746e+01
1.1339608700220705e-01 1.0748003912997746e+01
1.1339608700220705e-01 1.0748003912997746e+01
ITEM: ATOMS id type xs ys zs
20 1 0.086655 0.320753 0.16102
2 1 0.176875 0.095681 0.29262
28 1 0.292116 0.252597 0.144314
8 1 0.407021 0.0840527 0.0827505
26 1 0.0293649 0.497749 0.256728