0.7938427563350393 -0.027098141768372684 0.19120162925092232 -0.40555449980732733 -0.0639505347100318 -0.3398070210978728 -0.5304733466706154 -0.4453623758328846 0.17713563807615945 -0.10923640313102477 0.37177354670214036 -1.0632892254314785 -0.3267057078292244 0.17677259830978587 0.5749004666357389 -1.0638134733660647 0.42353473843483186 0.12811369965150193 0.4101482898255969 -0.9440885119988902 -0.011896751437585963 -0.2197182486333764 0.2008126699781251 0.35131193641367886 0.28966896679090115 -0.11660801300474756 0.3775500441746014 0.4615973496345082 -0.10836839870377465 0.5274055063785691 0.012109638779340435 -0.27633239758299505 0.021542759167782255 0.08080103060846729 0.06850138730550782 0.9215972728749094 0.006795682765594749 0.8349793784743491 -0.7524868190960718 0.046885351697628926 -0.2508440235039035 0.016096648451546472 0.0537846499206235 0.27586137148384754 0.13909822368746366 -0.15185115247775782 0.4259490043032793 0.04013286346514378 1.0509073068273578 -1.1011178662434777 -0.18784556829449583 0.3216555469998267 -0.10623849684496542 -0.7443888725792858 0.5973035169212875 -0.8180463501644363 0.7224046549987106 -0.26016324402230034 0.5635151076169327 1.0267811032031156 0.39177004442872526 -0.0014588439337136167 -0.1999202400708428 -0.8918871474049865 0.36393605293559256 0.23118459740176314 -0.2785327476684235 0.3402770187557559 0.21142027029064234 -0.9382770475234357 -0.2444664021123338 -0.5133454287410772 0.0683571484181597 0.048125908972949376 -0.08356805183064317 -0.08956540706465864 -0.08721696143714013 -0.894691192512685 -0.23653017798439266 0.42943953395504103 1.0276866457365206 0.1095009696463211 -1.8582424412218774 1.315907053006353 0.26559264256798776 0.2726248668244208 0.10995785467808158 -0.2493640965242673 0.13709044922881553 -0.14205473521262632 -1.0665658393002213 -0.23813583190861565 -0.06676486423037534 -0.7646692200948766 0.5856944719274494 -0.059993349834496675 -0.5463874467977107 0.2805389794651749 -0.027603106429249232 -0.6259777449275283 -0.07816667830941376 0.024070667795958546 -0.03846858838884343 -0.2095230532679295 0.40242495303941017 0.12378164793505135 0.44050633329216393 0.010067925758963306 -0.09659248911476913 -0.3621085128085506 0.6363025238923041 0.800190810040254 -0.6087580386151322 -1.1535313468481876 0.21866281078566854 -0.23478362760693114 0.0004471148397476171 0.0541407477084616 0.4183866185749891 -0.47614413710043163 -0.040682051100394453 -0.25064219190574255 -0.10762020768384047 -0.0877113845750554 0.8952848602326258 0.19460988360152293 -0.8182124434286554 0.9929772672797931 -0.46367248699598207 -0.16994554808562345 -0.16007354038755012 -0.6911199859528162 0.3976221323341281 -0.48538236786924793 0.15104022654068827 -0.03944277937665465 -0.21787193945325703 -0.46083193222339347 0.22940385135225655 -0.7052001181949662 -0.8634962549671193 -0.998135928662597 0.8775792154227466 0.9266124667013138 -0.1983500673702455 0.36027197382044407 0.20262195527272203 -0.7676678977118844 0.5736948763634119 -0.6498982602988679 0.30502308064946826 0.059492241828362054 0.905576471966621 0.05103665486184114 0.4076784881288656 -0.06188542465088698 0.2326187587451284 -0.2901777881065196 -0.029357884336826862 1.1274163949286906 -0.5364997553703534 -0.32817509328589933 0.8747600008063966 0.4997741178145457 -0.18330397167040044 0.9205114960098986 1.4309137829622516 -1.4650742308940445 0.44930490542040036 0.20294591427104405 -0.2664290224263541 0.3471027834283377 -0.4582436026709269 0.29473121180515693 0.0059420765160478305 0.054056158414455296 -0.30101241682817836 0.4382787295132258 -0.796315643355564 -0.006887214038136527 -0.055768256009555574 0.08338396084429511 0.19787004241003342 -0.0683967434068435 -0.8462657500214458 1.6652266415803514 -0.12779668263171537 -0.407275339153176 0.14567690534624586 0.7259255236677756 0.238490387034557 -1.2726112184321954
0.3303106515716634 -0.4116672975732846 0.10098033376981964 -0.6634220058169156 -0.0316191695671778 -0.35476955594497606 -0.23779516073974527 0.08844466319665413 0.28615812542416524 -0.04179790987239253 0.6373674748217089 -1.530499807487706 -0.2915666980342463 0.32891994187172385 0.3238489551067197 -1.0746126208640976 0.48221374033327913 0.29477492055889876 -0.061364776260726575 -1.3102575680300594 0.017900791539820785 -0.004450836682502012 -0.09426229831969572 0.641846593638985 0.4114880916829429 -0.19657292086516467 0.32976814880463207 0.4637491058701884 0.17093285169955721 0.5792551440600089 -0.1215645856790745 -0.08032280542046812 0.04645057815305549 0.169124851956541 -0.0317819203972872 0.2040946831635066 0.03886839493042338 0.5917288510469875 -0.1587972447782878 -0.15878670325532654 -0.3604702058741792 -0.23470418051924738 0.07863950418077424 0.24659296153703333 -0.22244258954307497 0.04645109237368775 0.17977693235374842 -0.5004503179459638 1.023978600757314 -0.7459582739489347 0.01587630491062427 1.252707537529733 0.8186585298271385 -0.819525248702808 -0.029976234647116115 -0.30079001640472713 -0.2892642751533147 -0.20367482201726858 0.841931127201834 0.5091018229733749 -0.7067540929456473 -0.41239929064330266 -0.11418963337124205 -0.6158383425006814 0.5215732159675082 0.18045776047085696 -0.5714981258224093 0.09085044442466934 0.5272864643022016 -0.34114605162427053 -0.8719479852788983 -1.7193159672255875 0.37081761054677426 -0.19215448008249486 -0.14053932700936442 -0.17947019974660705 -0.20194421247940703 -1.1308213068451816 -0.28549915168392764 0.6374602916458312 2.1086280370321235 0.07386856515469213 -0.2648470226512148 0.1433390012416886 0.21532937553706144 0.941172881013992 1.0000763402184196 -0.20521799813467234 -0.027896469299951956 -0.22679315320228682 -0.43243461202762296 -0.2527306990036551 0.10722862867237662 0.08182124434286554 0.9533231432232808 0.5326482428347472 -0.2519310859204951 0.3553007458580978 -0.05565332769824609 -0.5008542382526019 0.28002938681860806 -0.09387920394866413 -0.12426218711589569 -0.006300745407047214 0.3821916567116708 0.11819952586158353 0.2581456993716393 -0.18233543710954403 0.45052386542916606 -0.4073946383398596 0.19274223426516482 -0.24272293705866585 -0.2096094423341487 0.0906342146488052 0.5821082972380879 -0.7999396132613965 -0.5981913188428795 -0.36271889269903984 0.14593992919964544 -0.4020531715222882 0.49567552226513995 -0.6241769442733637 0.2412080430760362 0.06363608879340653 0.5317427003013422 0.6559997452109154 -0.9573721164816739 1.5198551832896663 -0.16174630010428273 0.4258109360635183 -0.5794559472169054 -0.701906792155675 0.03663590605547883 -0.7381192375204901 0.035576611553029054 0.13174204043270862 -0.11766730750719734 -0.260676436213293 -1.0119527799410315 -1.0816744128068856 0.33401921077150215 0.2961818282087544 1.4113785411428017 0.7547082522274229 -0.799820571185029 0.8374147273887191 0.7101703177160479 -0.7074138380168333 0.0673598175018969 -0.5567559345162283 0.5555341462939851 0.3336440868202705 0.8003049670206153 0.09821408387859215 0.20721780217352054 -0.04718668498813164 0.5655329093779099 -0.4242438486867146 0.13603244027794636 1.2926362554038706 -0.3526815630676958 -0.49930900525266914 -0.5839679761546459 0.7539322932933468 0.11629588108096744 0.5456760225529828 -0.3166907467953836 -0.46404066896867824 -0.22368288970807929 0.2422205435009506 0.08698453371135986 0.30329555643540024 -0.5333480971152492 0.11655736227247024 0.8953416816124903 -1.098782790352398 -0.5992079330328519 -1.0398487350203511 -1.2704283518482637 0.253802334801279 -0.07700993899715125 -0.03537066618981005 -0.04040771439308525 0.8949043369647557 -1.0738945117511505 0.08919465398880123 0.08119698049530533 -0.0875216371617525 -0.09186063085673858 0.7204287622192624 1.0697943735398479 -0.7488199117674459
-0.03968292041191875 -0.5895992062984943 0.13056318963325902 -0.6391399933410993 -0.1190731867157885 -0.2003915232803065 0.07957152907674038 0.7762597531459534 0.330659807380966 0.06060372972498594 0.6725905596900611 -1.5426613825509046 -0.008243213845398707 0.38807202675184777 -0.22002960922620815 -0.8292987831498041 0.44094830592558903 0.2963522923483477 -0.7589040354763252 -1.5050811103042854 0.002002375142009455 0.4387757237543024 -0.4807664663637914 0.985243131860329 0.49811987004057434 -0.18033434751911526 0.2511656685093803 0.12103802375164317 0.4942930400953165 0.5030484176904434 -0.24877994188602315 0.12649133355673053 -0.019834261117107777 0.2296002836337788 -0.8668590007917653 -1.2933723622389466 -0.06564874834806113 0.30688198823507795 0.66044775367994 -0.2651990066739949 -0.3430466110810931 -0.4207972848990108 0.10914101520374107 0.16690496148708675 -0.43169593408938556 0.25161869688639893 -0.023903288980158834 -0.791982820308165 0.7945176709148769 0.11424516919952582 0.5012496739188077 1.9947963012209322 1.209131195600679 -0.8023070850523086 -0.5240373612372846 0.08329268668206946 -0.9040042423834946 -0.11707312556662418 1.144616303746745 0.05941742272636863 -1.3912172357035784 -0.5814246409075019 -0.10526687696031548 -0.13787026481763354 0.29561824239580053 0.36007862686271536 -0.955001302256652 -0.3446329817316065 0.9946708529321322 -0.22547057773612136 -0.9433557475979237 -1.4726780113832314 0.7790959370431679 -0.38701736023508826 -0.3553341701991945 -0.1491787478519173 -0.290950404606486 -1.061702854780965 -0.0923285716320926 0.41420189106968025 1.5434183153215872 -0.27976224920015047 0.8189904592452605 -0.2807284697681617 -0.3786337641570834 2.9374138851012503 2.1375141239388546 -0.11440277782331265 -0.09197221673393838 -0.3301129337385605 0.31596698125548167 -0.32210600427368397 0.05087596091426077 0.5679158077877897 1.1914186088122642 0.9019031368800918 -0.04909675752665093 0.5716521349017704 -0.5341230276080607 0.05678821263363769 1.0101020998855377 0.5224710451914293 -0.24946822620229936 0.31322412840302183 0.3284962240707439 0.36553579332254466 0.1718731041256395 -0.21081066173110144 0.3589972208730785 -0.33804787231492106 0.06189519484289986 -1.0098128507798931 0.6664368813838393 0.4910614205318963 0.8377394577179895 -1.3388448927494492 -1.0982647130653989 -0.8842160040129741 -0.14956029956105213 -0.3619408768824347 0.8058045566826056 -0.7726064726640823 0.6396909807485629 0.033996668660418866 0.21570681348113818 0.7596915643746271 -0.736775321898086 1.0778239287125437 -0.17105369354813768 0.9622428143104139 -0.7939808245748003 -0.7063401453366802 -0.2109348460137916 -0.9727349720909892 -0.044943654590225826 0.17717266196168197 0.06150644404491343 -0.055388246962317506 -2.7210676382639005 -2.182411755782493 1.8888575950045727 2.5960084091680065 2.076699306644327 -0.5226057709970806 -1.2621044053636006 1.0533280004537084 1.1298589429319121 -0.7193139318885289 -0.5026293278751538 -0.2917384477254201 0.7901943609491746 0.654849433656556 0.5720259733014212 0.04268185513924263 0.005795009415222278 -0.13042152184907216 0.7638112429699555 -0.4441403305003254 0.19905660651896687 1.1054856562938704 0.1293678837735772 -0.8980238564303437 -0.8977235515811055 0.5428760912103425 0.6812492638063234 0.05922690398211736 -1.2980641112876612 0.03648189697611781 -0.7595277851032531 0.4409570476763373 0.5828739717595187 0.37358797420305984 -0.5741630742490821 -0.23067911852025436 1.6366550005902458 -3.4371939164530674 -1.434737527583716 -2.131020288684394 -1.3793109711842955 0.2665915161461473 -0.09270986623091129 -0.1169995920162114 -0.24697194214300694 1.0368449151970207 -0.8765515454891807 -0.371478898279857 0.14670380394886345 0.3765133753799709 -0.16429349200616866 0.5534039873248597 1.2972801819337851 -0.1621965002678239
-0.24037783386525696 -0.38939383088706486 0.24409744880868928 -0.4745207425643957 -0.8129118571513484 -0.3031415473560392 0.17656228207119268 1.2811709350767482 0.20474465804267963 0.04124795090619347 0.5759978134649757 -1.4237208647582384 0.20844139016797647 0.47844038933377603 -0.8235120012646979 -0.3658381550543119 0.3234445205794494 0.004806420249707851 -0.9873509222319512 -1.34404957687884 0.006607992234820878 0.7365418657310412 -0.691757362426499 1.369164369668597 0.5414768968699706 -0.11746084792334609 0.28463037592572915 -0.39589846477480206 1.0765594601778234 0.7938710384698133 -0.2722772536770149 0.6080846666971914 -0.16279865262819704 0.2009833912280345 -1.78282812884662 -2.8700003315432827 -0.17287583435854098 0.13064340805189112 1.0370889128870266 -0.2709598204171721 -0.1787816583200147 -0.5139964320615148 0.1759696427925163 0.06748708710838054 -0.5675584244483709 0.40751213775433043 -0.10455082472989735 -0.8020828848566445 1.1070802544744998 0.8645779180670723 1.1514536383835523 0.9963358993393809 0.5451893127245514 -0.2882769715393809 -0.7090464885242499 0.35055423231204785 -0.9975569162306755 0.1398998936531526 1.5524092059662875 -0.14129985932447278 -1.626545937180702 -0.44528164319362024 0.17584674406140685 0.30188787745459617 -0.04593250086605638 0.7465357437189595 -1.2949643893164147 -0.7819511471037759 1.3203661172189711 -0.22738065027464063 -0.6255594264431872 -0.3483248287608968 0.9210889657799234 -0.3721658970445526 -0.9025286862792327 -0.02902518358775646 -0.34521662214921833 -0.9652903428874859 0.004262374820779756 -0.06882328942130084 -0.10309763722313857 -0.6155367520998626 1.0584365253248675 -0.20144233314232407 -0.19299985880192566 2.0636489012182717 1.9342087694458623 -0.08023744479551342 -0.12527417332017782 -0.4952227509984374 0.9349857783666736 -0.45880410316008724 -0.1937691328677824 0.7193758954747159 1.0911900656068045 1.1912648568432194 -0.04955775632346949 1.264454393653016 -1.8205881212042128 0.9165365705225506 2.095198908110411 1.9088378947812417 -0.296366947636367 0.593449947503152 0.2255852489371147 0.7814469537738477 0.10176606289590862 -0.015180307284864178 -0.650414280703338 -0.22627044792959738 -0.38948253394612925 -0.878781463260964 0.8615812973325936 0.4490295402718267 0.687402685002229 -1.0279226730067266 -0.877637836574824 -1.3002876013015414 -0.2809261876012646 -0.4792191764813295 0.7990829216880561 -1.0063544599176475 0.7212628280847837 -0.13355492527173127 -0.27853429033032034 0.6059048854370532 -0.3162374613080489 0.2725420773026274 -0.41172000518809093 0.5431679114191484 -0.3238669528288487 -0.7101975714095575 -0.30600472783644717 -1.072188070583005 -0.07644275363977157 0.289794693735488 0.466315581045784 -0.07889944271038025 -1.1931183651121904 -1.6007055790788303 1.6973842001495028 2.2088000159680345 0.937987798417791 0.060822273493695254 -1.103649888636712 0.06704537158527163 0.759914993239343 -0.7851490852157833 -1.0191765513829802 0.3284116347767376 1.232138969349762 0.7052032035187596 0.087692615521978 -0.06926217673093234 -0.20039023772872586 -0.16270943534850044 0.8854568183986105 -0.44543925181740707 0.3362560705218209 0.3831995291508949 0.4854201630857188 -1.1606841558428849 -0.24739565994398682 -0.4691743906508178 2.0228267249955874 -0.7909196691509733 -1.1137910908357722 -0.08255349452319977 -1.1729506319150638 0.74129840657942 1.0806174322972808 0.32254103492857356 -0.5976992096978094 -0.7931210476776663 1.0923979698719766 -2.4472400093806304 -1.045277105124774 -1.3413509470007545 -0.7870190485449865 -0.10782949548116914 -0.04059771891670428 -0.043418219084634904 -0.29368991502483616 0.4415473729621686 -0.8456162893629049 -0.1689739282009735 0.19912448364242483 0.757653965119308 -0.10519308629958657 0.23514383915982728 1.0587247459892477 0.13378606744593088
-0.3224207073006254 -0.07719582975571221 0.3502906942380161 -0.45069947177508185 -2.0628222915519183 -0.9393916207438532 -0.15481177776797853 1.430226784197556 -0.3657710492618023 -0.0083555710535469 0.39980885557280177 -0.9240681030129052 0.07910924472834117 0.4105609518829833 -0.8140354292328303 0.18263317085562095 -0.17463112648675086 -0.3074705137486963 -0.7560529391807753 -0.9994117100512272 -0.0551560763468534 0.46501691683901847 -0.5817575987668884 1.2311236407113701 0.6132690391116083 -0.011843786712463474 0.4970199521081763 -0.5387605263800721 1.990220508924792 1.4777934782329258 -0.19327111018544132 1.2908228563442157 -0.43411019995783295 0.9808012940388916 0.4544232004835722 -2.4494352172597367 -0.16491209942677404 -0.016565874778481145 0.6166119874419123 -0.11835687737505422 0.05586081572336186 -0.3763287701729906 0.3361750807722404 -0.16331930101835745 -0.5557691451229267 0.47608294484519303 0.06866182414277207 -0.6664993591906586 1.2854618491426184 1.1706412670555968 1.4163970774033154 -0.6432373033389245 -0.48113953343249394 0.7855900294079439 -0.5251971858733407 0.4733220942706042 -0.5842204584850841 0.5637115398984549 2.023759264112186 -0.0066306179426401934 -1.5300223536306554 -0.15913303085115174 1.048861994262555 0.6374505214538183 -0.4366687047136286 1.3671483676798326 -1.2898903172276173 -0.8544855668280767 0.9046490750563452 -0.22846077071269685 -0.26337403765011413 0.22630798603575214 0.7355954426573719 -0.1430566941145794 -1.2897836164464238 0.07568222132466321 -0.38026512911291926 -0.8770642234595412 -0.11964937093423264 -0.2008008429035832 -1.317832295053524 -0.6073472743105346 0.9544621419237306 -0.18470650844488187 0.32608787173956744 0.040173486895092106 0.756983935635477 -0.30849741235131384 -0.09351847817513573 -0.6464229001557577 1.4654645243539277 -0.5879274750230261 -0.46548665738658546 0.4945051561061226 0.5542514229268196 1.2097588018823486 -0.06700757636880073 1.46532491345227 -2.15101807196256 1.1786170861722218 0.999753152551046 1.8186860190854934 -0.15383167324289637 0.6538626442632545 -0.07768331091509202 1.0907918017271214 -0.030312020719980057 0.24529198333742272 -2.3559745889057297 0.40277770839313853 -1.3316190644249712 -0.11913874984640126 0.48663423799847805 0.33240404376558236 0.3782524695582647 -0.3680328487127855 -0.46888359888327635 -1.4157866975128262 -0.34892800956253456 -0.5486675010811389 0.4673069984247758 -1.131482337467948 0.49379038942728504 -0.29061050476856404 -0.9047280079233968 0.42337661559041273 0.027734746911107076 -0.15782511067300561 -0.5104493381402048 -0.612194832210823 0.14497705106574385 -0.8056122381661416 -0.34979164311441047 -0.9168227343044016 -0.08526446569645961 0.5763554539147107 0.9830782629985262 -0.5623997630655668 1.5511010286778255 -0.5433340046833676 1.8300214987029708 1.2008841251005382 -1.260689784404261 0.014947365338451675 -0.16732096597858281 -1.104111658764479 -0.2680200210625578 -0.6057488194751631 -1.0193231042631736 1.079019748792858 1.7550044217661325 0.4394408681421271 -0.5494511733246988 -0.29346185817443005 -0.3916648863094287 -0.0534843450713853 0.9705816731934123 -0.33691247315889716 0.605588382637899 -0.4531600175004325 0.410216424059371 -0.7380369622193289 0.269168275734388 -0.6448522132345281 2.234655543578558 -1.2147431424708177 -0.5433818272021674 0.010165627679092171 -1.3479486548229302 0.8799906530777166 1.0690358981072685 0.14728641592521086 -0.5886047035957089 -1.0311638056518435 -0.26154906862623345 0.6869799956425137 0.7688634606818824 -0.3102053961813561 -0.20449654658761554 -0.360473805418605 -0.023808158163191255 0.11158459164822719 -0.18519964603121655 -0.532653899261702 -2.2402168397164197 0.09842208612434018 0.2388364575200661 0.8261736072572611 -0.12087578714216601 -0.034088199932960646 0.6156467953151655 0.19567971962693395
-0.4179832124889834 0.14284380677282496 0.541975176662628 -0.3863846117470958 -2.214844936610534 -1.043567835743151 -0.6689645329016995 1.1955359734147475 -1.0327782013268147 -0.11560965364722024 0.21078083693443053 -0.1101234337216684 -0.12357107458614204 0.31593432824533324 -0.35113838695029204 1.226578701653165 -2.0291832633412343 -0.4627196361644096 -0.4604313543508651 -0.6403486689372198 -0.27803086833134055 -0.5172211096463996 -0.3861053899437802 -0.02313812867936015 0.7839512082529402 0.06958382173640919 0.7556289642694792 -0.3768093093538349 1.8983426516768727 1.3480988072475493 -0.13441830171329108 1.178755154411983 -0.7447596256551432 1.4350517163900252 2.9935459522081285 -1.7610321160174511 -0.26607343885914825 -0.3718738197254305 -0.08158213174886594 0.19207066211943694 0.17508878284945975 0.47551524526718103 0.5898213496116294 -0.6220208171623094 -0.44941006353969704 0.5079090882168543 0.5413966784513385 -0.5185380286856102 0.9385878938956351 1.0603046888818577 1.0279005615195396 -2.117498600048876 -1.920295758909196 2.1493774510353436 -0.1597446962932217 0.5231688425894022 -0.05935031693385909 0.6197135091853714 2.045564790023051 0.14344853023635942 -1.2398725905485937 0.06316274870141379 1.9163195478702673 0.6766246205501186 -0.8295790333943842 1.7656639583625076 -1.0542098888380296 -0.6753699222074111 -0.40538249300583734 -0.24777566899122488 0.242107414961854 0.5284997678840123 0.4872682720380511 -0.055692922686929894 -0.8458751994512465 0.21042756736006987 -0.3423598694267136 -0.6242533060372539 -0.2864208921672487 -0.17104983689339573 -1.7381330999320903 -0.2592183636105278 0.8507916629162573 -0.37942772081328846 0.3534048143869656 -0.22561455951315337 0.1055036755614699 -0.8652870283189549 -0.07334071767568015 -0.8595853499484872 1.6906042011131914 -0.461076958354664 -0.5182228114380365 0.1444666870882286 -0.04425665582553023 0.9091243372188794 0.1737934610768039 0.8466904962636902 -0.9481853077760832 1.1061418018206306 -0.41779989283358365 1.2020588621349297 0.05460688871160273 0.5031088386147335 -0.645743614700546 0.954927511595923 -0.09396636434583172 0.21199285496466067 -2.159297538362533 0.5169462587184581 -1.26917339639524 0.4028738676513707 0.2412034150903459 0.21956655354686058 0.1782646094742801 0.02168725516544652 -0.28219579834230757 -1.1080161360252079 -0.5146878017015846 -0.07474813954616805 0.16899423991594767 -0.9955601975156209 0.27448788817508857 -0.33501936990124237 -1.3065772909649949 0.3303949837553536 0.25205784130634656 -0.37877208950716057 -0.40419901422069743 -1.051889211124653 0.24953893153923476 -0.49152293354934706 -0.45203747386021503 -0.5262821914074034 -0.10760683794740178 0.8205133236476901 1.300566565994541 -0.6617271346129958 0.6192975046938753 1.56687371813105 1.5270121060494217 1.4585390008786883 -2.331411297744068 -0.9754701116339652 1.4079952264928655 -0.46274251898254504 -1.5878498061620847 -0.2032055956903339 -0.48997692921846575 0.933023255323664 1.7490651734635616 0.2300242585450748 -0.6538271630396288 -0.5637722179330613 -0.49383229840881404 0.28873128546798016 0.9413114634743853 0.04154208510784459 0.9000131189462306 -0.5906230195773182 -0.017115319524047944 -0.20448214840991236 0.04152177339287043 0.42764387550719896 0.8536972665988264 -0.7239069505758501 -0.2820117073559595 0.44576706747047096 -1.230041977611417 0.6708242118182576 0.4552081582787128 -0.014032823943982285 -0.46269443935342897 -0.728715427708087 -1.0802204539691784 1.9907254735856685 1.683008905264437 0.06943058398799655 0.09423041664049578 -0.3168807513190026 -0.03915070205753258 0.2760367207194472 0.06989441099829252 -0.8917663055564061 -3.3361019968060477 0.6181402511609806 0.17788305776514526 0.6064486737556651 -0.3293909679708714 -0.2932230026907466 0.08154613630460794 0.2887148304077479
-0.602683293175962 0.28650291035809367 0.9406828287514509 0.02284245181581227 -0.8988322112642521 -0.42114849759084244 -0.6731248349269763 0.4324832058773713 -0.864931187641433 -0.40937567332563046 0.30847967173950097 0.6228363710850693 -0.19289521490326134 0.2312059375580018 -0.06613520106617642 2.330018788271916 -3.957113655977553 -0.6192733363241593 -0.2506380781406845 -0.2091751830102075 -0.43937299101866906 -1.9595238511718833 -0.41976601542101893 -1.9018439799619116 1.053090687631922 0.05971464225181329 0.7918231548018492 -0.332359306570576 0.7712350462378523 0.16331493014298326 -0.39183277934586064 0.0898382011100711 -0.9534879509359192 0.37571967583408195 1.4205998026307536 -1.43011828364415 -0.5196762560551115 -1.1904732141798595 -0.7712746412265362 0.16722712071319587 -0.3183961595222645 1.7904373086524454 0.8053132188684841 -1.0955092618074487 -0.38506949248009814 0.5501137466093623 1.3127348259259586 -0.40220049573342986 0.5181816737874559 0.6882470352803952 0.45598591698500174 -2.101089562563233 -2.0865754281074578 2.1064423422347143 0.3236373533165458 0.46601141954180386 0.24044313988555369 0.2970601170486497 1.291925088269459 0.09757747873585776 -0.6987296799792742 -0.0001000159129740213 1.9751803267622177 0.15796729267782472 -1.187976930120567 0.996735962991277 -0.8069103881522748 -0.6736490828615624 -2.120883971581341 -0.029169422475104605 1.126223145951538 1.154334302365457 0.4017739497189726 -0.11848646097438305 -0.0893329793388784 0.25679355621911903 -0.2267371031533708 -0.25800248892555566 -0.3617393023945899 -0.45382978987394745 -1.3092229561179582 0.2098454696043547 0.6901483660681662 -0.7744607522640017 0.3893565498912262 0.045322378085883235 -0.4763547104493409 -1.2083400671579512 -0.16271534888577138 -0.8586042169821407 1.215669510939829 0.017279098795421853 -0.24319627715065856 0.02055237023005493 -0.2888336153737993 0.3765267451164096 0.1213630111912297 0.5037786109882485 -0.20051262223920308 0.9119756906247455 -0.45695136622206467 0.7165769925733401 0.09825265042601143 0.38433415697597034 -1.1588602152602687 0.39479211908450074 -0.14435535832134494 -0.21025221812447017 -0.5794510621208988 -0.4290440982888353 -0.9975052370571337 0.5559532361092747 0.15529308827977126 0.16903460623557987 0.07761183424720827 0.3735545498619631 -0.2718849033346027 -0.6371736136433478 -0.5036184312613003 1.0576705936931203 0.0513636991839567 -0.5276929557120009 0.20490586621089227 -0.34747533627640803 -0.9902202733599463 -0.04586848039734036 0.27341393838461947 -0.5069019871085786 -0.1554015888331775 -0.697518176169676 0.6466532709990088 0.845782382627124 -0.6801915119657704 -0.13978779355532056 -0.15599937031817648 0.811997315756879 1.23193919463413 0.715033302235304 -1.9318053022106925 4.199644788740387 0.8720364312276465 1.1302155549403825 -1.229505902602289 -0.601299525454558 1.550740302904297 0.17648283498350897 -1.629815094850277 0.039016490472513446 0.01039188475728533 0.1621211669451982 1.1900808638374472 0.0598748219787614 -0.024085065973661748 -0.6587485116006462 -0.29523617646603345 0.6411775925964184 0.8311108966578783 0.5504844996852197 0.9343052073598812 -0.03203131740393193 -0.5056637438261034 -0.2655085674946137 -0.24900517052295185 0.7206023116826492 -0.09491175897823655 0.036572914028027335 -0.47201057454803225 0.6127841290553898 -1.069824712557151 0.3470151088105378 -0.25653953122678397 -0.09670793164671088 -0.22390529013153054 -0.214992561022933 -0.37699571433302814 0.9023690207729169 1.0388220935280497 0.1647208093515744 0.13848475847318084 -0.26422430146555137 0.006581252761943504 0.3896730526903805 0.2729066597308977 1.0313000741193916 -0.23561537947960715 0.9475325046834326 0.1773205003934559 0.2881676996550263 -0.5252900026974631 -0.6545303597542405 -0.3680145938803404 0.5548546037284574