An instance of this daemon is already running

     Program PWSCF v.7.1 starts on 10May2023 at 14: 4: 0 

     This program is part of the open-source Quantum ESPRESSO suite
     for quantum simulation of materials; please cite
         "P. Giannozzi et al., J. Phys.:Condens. Matter 21 395502 (2009);
         "P. Giannozzi et al., J. Phys.:Condens. Matter 29 465901 (2017);
         "P. Giannozzi et al., J. Chem. Phys. 152 154105 (2020);
          URL http://www.quantum-espresso.org", 
     in publications or presentations arising from this work. More details at
     http://www.quantum-espresso.org/quote

     Parallel version (MPI & OpenMP), running on       4 processor cores
     Number of MPI processes:                 4
     Threads/MPI process:                     1

     MPI processes distributed on     1 nodes
     752400 MiB available memory on the printing compute node when the environment starts
 
     Reading input from pw-si-40.in
Warning: card &CELL ignored
Warning: card / ignored

     Current dimensions of program PWSCF are:
     Max number of different atomic species (ntypx) = 10
     Max number of k-points (npk) =  40000
     Max angular momentum in pseudopotentials (lmaxx) =  4

     IMPORTANT: XC functional enforced from input :
     Exchange-correlation= PBE
                           (   1   4   3   4   0   0   0)
     Any further DFT definition will be discarded
     Please, verify this is what you really want


     gamma-point specific algorithms are used
 
     K-points division:     npool     =       2
     R & G space division:  proc/nbgrp/npool/nimage =       2
     Subspace diagonalization in iterative solution of the eigenvalue problem:
     a serial algorithm will be used

     Message from routine divide_et_impera:
     suboptimal parallelization: some nodes have no k-points
 
     Parallelization info
     --------------------
     sticks:   dense  smooth     PW     G-vecs:    dense   smooth      PW
     Min        2237    2237    591               112383   112383   15273
     Max        2240    2240    594               112384   112384   15278
     Sum        4477    4477   1185               224767   224767   30551
 
     Using Slab Decomposition
 


     bravais-lattice index     =            0
     lattice parameter (alat)  =      21.6234  a.u.
     unit-cell volume          =   10110.4369 (a.u.)^3
     number of atoms/cell      =           64
     number of atomic types    =            1
     number of electrons       =       256.00
     number of Kohn-Sham states=          154
     kinetic-energy cutoff     =      30.0000  Ry
     charge density cutoff     =     120.0000  Ry
     scf convergence threshold =      1.0E-06
     mixing beta               =       0.5000
     number of iterations used =            8  plain     mixing
     Exchange-correlation= PBE
                           (   1   4   3   4   0   0   0)

     GPU acceleration is ACTIVE.
     GPU-aware MPI enabled

     Message from routine print_cuda_info:
     High GPU oversubscription detected. Are you sure this is what you want?

     celldm(1)=  21.623366  celldm(2)=   0.000000  celldm(3)=   0.000000
     celldm(4)=   0.000000  celldm(5)=   0.000000  celldm(6)=   0.000000

     crystal axes: (cart. coord. in units of alat)
               a(1) = (   1.000000   0.000000   0.000000 )  
               a(2) = (   0.000000   1.000000   0.000000 )  
               a(3) = (   0.000000   0.000000   1.000000 )  

     reciprocal axes: (cart. coord. in units 2 pi/alat)
               b(1) = (  1.000000  0.000000  0.000000 )  
               b(2) = (  0.000000  1.000000  0.000000 )  
               b(3) = (  0.000000  0.000000  1.000000 )  


     PseudoPot. # 1 for Si read from file:
     /home/ppiaggi/pseudos/Si_ONCV_PBE_sr.upf
     MD5 check sum: 8553c464762ac42b85b1eed164b4d029
     Pseudo is Norm-conserving, Zval =  4.0
     Generated using ONCVPSP code by D. R. Hamann
     Using radial grid of 1510 points,  4 beta functions with: 
                l(1) =   0
                l(2) =   0
                l(3) =   1
                l(4) =   1

     atomic species   valence    mass     pseudopotential
        Si             4.00    28.08500     Si( 1.00)

     No symmetry found



   Cartesian axes

     site n.     atom                  positions (alat units)
         1           Si  tau(   1) = (   0.1918970   0.1950400   0.6332920  )
         2           Si  tau(   2) = (   0.0757774   0.1350150   0.2823270  )
         3           Si  tau(   3) = (   0.8380010   0.1248560   0.5659200  )
         4           Si  tau(   4) = (   0.3779660   0.8029330   0.9647650  )
         5           Si  tau(   5) = (   0.6091770   0.9460580   0.6810750  )
         6           Si  tau(   6) = (   0.4692950   0.2971180   0.3138460  )
         7           Si  tau(   7) = (   0.3541650   0.0186197   0.9095140  )
         8           Si  tau(   8) = (   0.5904250   0.2611060   0.9540780  )
         9           Si  tau(   9) = (   0.5377630   0.8645420   0.8502910  )
        10           Si  tau(  10) = (   0.3281550   0.3190560   0.4991350  )
        11           Si  tau(  11) = (   0.3312850   0.6853130   0.6754460  )
        12           Si  tau(  12) = (   0.8409520   0.4223600   0.1928420  )
        13           Si  tau(  13) = (   0.5718950   0.5475310   0.7427320  )
        14           Si  tau(  14) = (   0.7312130   0.9768720   0.3372580  )
        15           Si  tau(  15) = (   0.0262266   0.0756064   0.6108650  )
        16           Si  tau(  16) = (   0.5047830   0.7697410   0.6383380  )
        17           Si  tau(  17) = (   0.6883000   0.6412630   0.1753410  )
        18           Si  tau(  18) = (   0.3188360   0.2095240   0.8055740  )
        19           Si  tau(  19) = (   0.6475170   0.6104790   0.5666940  )
        20           Si  tau(  20) = (   0.1186610   0.2257260   0.1074560  )
        21           Si  tau(  21) = (   0.6138190   0.8465160   0.5008900  )
        22           Si  tau(  22) = (   0.1608700   0.0171859   0.1040820  )
        23           Si  tau(  23) = (   0.5760950   0.1036760   0.2108770  )
        24           Si  tau(  24) = (   0.6336610   0.9689790   0.0267955  )
        25           Si  tau(  25) = (   0.1494690   0.2994730   0.4038490  )
        26           Si  tau(  26) = (   0.0510897   0.4018870   0.2236540  )
        27           Si  tau(  27) = (   0.8634190   0.5924430   0.3126420  )
        28           Si  tau(  28) = (   0.3481940   0.3231080   0.1397120  )
        29           Si  tau(  29) = (   0.1710920   0.9953360   0.5294200  )
        30           Si  tau(  30) = (   0.0457013   0.4943110   0.5321760  )
        31           Si  tau(  31) = (   0.4776360   0.4424820   0.0156812  )
        32           Si  tau(  32) = (   0.9516570   0.4438760   0.8620870  )
        33           Si  tau(  33) = (   0.1636040   0.6272290   0.8046280  )
        34           Si  tau(  34) = (   0.8630130   0.5747350   0.5402310  )
        35           Si  tau(  35) = (   0.9403230   0.2462600   0.4025220  )
        36           Si  tau(  36) = (   0.1659940   0.8077350   0.3625510  )
        37           Si  tau(  37) = (   0.7433790   0.8505690   0.1349930  )
        38           Si  tau(  38) = (   0.7782420   0.1488990   0.0101412  )
        39           Si  tau(  39) = (   0.3918120   0.4762740   0.6064390  )
        40           Si  tau(  40) = (   0.9865050   0.9279230   0.5010310  )
        41           Si  tau(  41) = (   0.7847860   0.9264690   0.6084790  )
        42           Si  tau(  42) = (   0.3703900   0.6762350   0.4819750  )
        43           Si  tau(  43) = (   0.5872730   0.4270580   0.4865160  )
        44           Si  tau(  44) = (   0.9862690   0.1140110   0.0051635  )
        45           Si  tau(  45) = (   0.9522170   0.8689490   0.3128660  )
        46           Si  tau(  46) = (   0.5270750   0.9483620   0.3269240  )
        47           Si  tau(  47) = (   0.0885865   0.6019950   0.3062640  )
        48           Si  tau(  48) = (   0.5832620   0.7657780   0.0298816  )
        49           Si  tau(  49) = (   0.2372240   0.5057110   0.4284870  )
        50           Si  tau(  50) = (   0.9062280   0.3268910   0.7005470  )
        51           Si  tau(  51) = (   0.5284950   0.3191370   0.7686090  )
        52           Si  tau(  52) = (   0.7107740   0.2927310   0.6058550  )
        53           Si  tau(  53) = (   0.0615721   0.8420100   0.1050120  )
        54           Si  tau(  54) = (   0.4987810   0.1137120   0.7603130  )
        55           Si  tau(  55) = (   0.3044120   0.6054810   0.9550850  )
        56           Si  tau(  56) = (   0.3089710   0.3949100   0.9548530  )
        57           Si  tau(  57) = (   0.8756690   0.9678020   0.0334206  )
        58           Si  tau(  58) = (   0.0065544   0.6324460   0.9390160  )
        59           Si  tau(  59) = (   0.3784230   0.8273500   0.2990100  )
        60           Si  tau(  60) = (   0.0766569   0.4274610   0.7124730  )
        61           Si  tau(  61) = (   0.2699720   0.8672520   0.1340090  )
        62           Si  tau(  62) = (   0.6792880   0.2631500   0.3649030  )
        63           Si  tau(  63) = (   0.8320420   0.6184030   0.8769450  )
        64           Si  tau(  64) = (   0.6494410   0.4079590   0.0900929  )

     number of k points=     1  Fermi-Dirac smearing, width (Ry)=  0.0100
                       cart. coord. in units 2pi/alat
        k(    1) = (   0.0000000   0.0000000   0.0000000), wk =   2.0000000

     Dense  grid:   112384 G-vectors     FFT dimensions: (  75,  75,  75)

     Estimated max dynamical RAM per process >     178.25 MB

     Estimated total dynamical RAM >     685.57 MB

     Initial potential from superposition of free atoms

     starting charge     255.9608, renormalised to     256.0000
     Starting wfcs are  256 randomized atomic wfcs

     total cpu time spent up to now is        4.5 secs

     Self-consistent Calculation

     iteration #  1     ecut=    30.00 Ry     beta= 0.50
     Davidson diagonalization with overlap
     ethr =  1.00E-02,  avg # of iterations =  3.0

     Threshold (ethr) on eigenvalues was too large:
     Diagonalizing with lowered threshold

     Davidson diagonalization with overlap
     ethr =  6.84E-04,  avg # of iterations =  4.0

     total cpu time spent up to now is        4.9 secs

     total energy              =    -499.63362037 Ry
     estimated scf accuracy    <       2.31487226 Ry

     iteration #  2     ecut=    30.00 Ry     beta= 0.50
     Davidson diagonalization with overlap
     ethr =  9.04E-04,  avg # of iterations =  5.0

     total cpu time spent up to now is        5.0 secs

     total energy              =    -498.95837243 Ry
     estimated scf accuracy    <       7.59902340 Ry

     iteration #  3     ecut=    30.00 Ry     beta= 0.50
     Davidson diagonalization with overlap
     ethr =  9.04E-04,  avg # of iterations =  5.0

     total cpu time spent up to now is        5.2 secs

     total energy              =    -499.73147130 Ry
     estimated scf accuracy    <       5.83953719 Ry

     iteration #  4     ecut=    30.00 Ry     beta= 0.50
     Davidson diagonalization with overlap
     ethr =  9.04E-04,  avg # of iterations =  2.0

     total cpu time spent up to now is        5.3 secs

     total energy              =    -500.09876179 Ry
     estimated scf accuracy    <       0.80621327 Ry

     iteration #  5     ecut=    30.00 Ry     beta= 0.50
     Davidson diagonalization with overlap
     ethr =  3.15E-04,  avg # of iterations =  2.0

     total cpu time spent up to now is        5.4 secs

     total energy              =    -500.15782224 Ry
     estimated scf accuracy    <       0.67956610 Ry

     iteration #  6     ecut=    30.00 Ry     beta= 0.50
     Davidson diagonalization with overlap
     ethr =  2.65E-04,  avg # of iterations =  2.0

     total cpu time spent up to now is        5.6 secs

     total energy              =    -500.20239102 Ry
     estimated scf accuracy    <       0.25527307 Ry

     iteration #  7     ecut=    30.00 Ry     beta= 0.50
     Davidson diagonalization with overlap
     ethr =  9.97E-05,  avg # of iterations =  2.0

     total cpu time spent up to now is        5.7 secs

     total energy              =    -500.22017650 Ry
     estimated scf accuracy    <       0.11531566 Ry

     iteration #  8     ecut=    30.00 Ry     beta= 0.50
     Davidson diagonalization with overlap
     ethr =  4.50E-05,  avg # of iterations =  2.0

     total cpu time spent up to now is        5.8 secs

     total energy              =    -500.23151925 Ry
     estimated scf accuracy    <       0.02239326 Ry

     iteration #  9     ecut=    30.00 Ry     beta= 0.50
     Davidson diagonalization with overlap
     c_bands:  1 eigenvalues not converged
     ethr =  8.75E-06,  avg # of iterations = 20.0

     total cpu time spent up to now is        6.0 secs

     total energy              =    -500.23343550 Ry
     estimated scf accuracy    <       0.01034865 Ry

     iteration # 10     ecut=    30.00 Ry     beta= 0.50
     Davidson diagonalization with overlap
     ethr =  4.04E-06,  avg # of iterations = 17.0

     total cpu time spent up to now is        6.3 secs

     total energy              =    -500.23420558 Ry
     estimated scf accuracy    <       0.00761609 Ry

     iteration # 11     ecut=    30.00 Ry     beta= 0.50
     Davidson diagonalization with overlap
     ethr =  2.98E-06,  avg # of iterations =  2.0

     total cpu time spent up to now is        6.4 secs

     total energy              =    -500.23481565 Ry
     estimated scf accuracy    <       0.00116737 Ry

     iteration # 12     ecut=    30.00 Ry     beta= 0.50
     Davidson diagonalization with overlap
     ethr =  4.56E-07,  avg # of iterations =  3.0

     total cpu time spent up to now is        6.5 secs

     total energy              =    -500.23488982 Ry
     estimated scf accuracy    <       0.00138700 Ry

     iteration # 13     ecut=    30.00 Ry     beta= 0.50
     Davidson diagonalization with overlap
     ethr =  4.56E-07,  avg # of iterations =  2.0

     total cpu time spent up to now is        6.6 secs

     total energy              =    -500.23501541 Ry
     estimated scf accuracy    <       0.00022679 Ry

     iteration # 14     ecut=    30.00 Ry     beta= 0.50
     Davidson diagonalization with overlap
     ethr =  8.86E-08,  avg # of iterations =  3.0

     total cpu time spent up to now is        6.8 secs

     total energy              =    -500.23503913 Ry
     estimated scf accuracy    <       0.00013194 Ry

     iteration # 15     ecut=    30.00 Ry     beta= 0.50
     Davidson diagonalization with overlap
     ethr =  5.15E-08,  avg # of iterations =  2.0

     total cpu time spent up to now is        6.9 secs

     total energy              =    -500.23504894 Ry
     estimated scf accuracy    <       0.00003942 Ry

     iteration # 16     ecut=    30.00 Ry     beta= 0.50
     Davidson diagonalization with overlap
     ethr =  1.54E-08,  avg # of iterations =  3.0

     total cpu time spent up to now is        7.0 secs

     total energy              =    -500.23505020 Ry
     estimated scf accuracy    <       0.00006927 Ry

     iteration # 17     ecut=    30.00 Ry     beta= 0.50
     Davidson diagonalization with overlap
     ethr =  1.54E-08,  avg # of iterations =  2.0

     total cpu time spent up to now is        7.2 secs

     total energy              =    -500.23505440 Ry
     estimated scf accuracy    <       0.00003614 Ry

     iteration # 18     ecut=    30.00 Ry     beta= 0.50
     Davidson diagonalization with overlap
     ethr =  1.41E-08,  avg # of iterations =  1.0

     total cpu time spent up to now is        7.3 secs

     total energy              =    -500.23505630 Ry
     estimated scf accuracy    <       0.00000595 Ry

     iteration # 19     ecut=    30.00 Ry     beta= 0.50
     Davidson diagonalization with overlap
     ethr =  2.32E-09,  avg # of iterations =  3.0

     total cpu time spent up to now is        7.4 secs

     total energy              =    -500.23505686 Ry
     estimated scf accuracy    <       0.00000542 Ry

     iteration # 20     ecut=    30.00 Ry     beta= 0.50
     Davidson diagonalization with overlap
     ethr =  2.12E-09,  avg # of iterations =  2.0

     total cpu time spent up to now is        7.5 secs

     total energy              =    -500.23505707 Ry
     estimated scf accuracy    <       0.00000492 Ry

     iteration # 21     ecut=    30.00 Ry     beta= 0.50
     Davidson diagonalization with overlap
     ethr =  1.92E-09,  avg # of iterations =  1.0

     total cpu time spent up to now is        7.6 secs

     End of self-consistent calculation

          k = 0.0000 0.0000 0.0000 ( 14057 PWs)   bands (ev):

    -7.6723  -7.3010  -7.1807  -7.0069  -6.8280  -6.5983  -6.3813  -6.2429
    -6.1348  -6.0106  -5.8663  -5.6174  -5.5152  -5.3124  -5.1190  -4.9879
    -4.9603  -4.8549  -4.6324  -4.5633  -4.4742  -4.3226  -4.0913  -3.9489
    -3.7611  -3.6940  -3.4872  -3.3239  -3.2199  -3.1230  -3.0730  -2.8547
    -2.7849  -2.6607  -2.5370  -2.4586  -2.3207  -2.2453  -2.1622  -1.9290
    -1.8237  -1.7388  -1.6885  -1.6309  -1.3635  -1.3088  -1.1752  -1.0650
    -0.9915  -0.8982  -0.7143  -0.7090  -0.6378  -0.5370  -0.4747  -0.3434
    -0.2476  -0.1244   0.0598   0.0852   0.1577   0.2571   0.4169   0.5324
     0.5670   0.6458   0.7821   0.8757   0.9801   1.0056   1.0627   1.1095
     1.1551   1.3048   1.4217   1.4333   1.5785   1.6342   1.6841   1.7959
     1.8009   1.8715   1.9729   2.0481   2.1310   2.2166   2.2368   2.2901
     2.3699   2.4022   2.4668   2.5586   2.5757   2.6722   2.7311   2.7821
     2.8999   2.9483   3.0299   3.0731   3.0882   3.1991   3.3054   3.3386
     3.4047   3.4614   3.5264   3.5990   3.6697   3.7585   3.8166   3.8732
     3.9242   4.0006   4.0717   4.1053   4.1385   4.1812   4.2544   4.2965
     4.3051   4.3934   4.5370   4.5897   4.6067   4.7082   4.7965   4.8327
     4.8469   4.8726   4.9206   4.9826   5.0173   5.0886   5.1671   5.2153
     5.3416   5.3821   5.4512   5.4922   5.5961   5.6455   5.6784   5.7288
     5.8184   5.8383   5.9258   5.9742   6.0404   6.0622   6.1432   6.1866
     6.1903   6.3024

     the Fermi energy is     4.8170 ev

!    total energy              =    -500.23505730 Ry
     estimated scf accuracy    <       0.00000029 Ry
     smearing contrib. (-TS)   =      -0.16218652 Ry
     internal energy E=F+TS    =    -500.07287078 Ry

     The total energy is F=E-TS. E is the sum of the following terms:
     one-electron contribution =      28.18203948 Ry
     hartree contribution      =      82.04564127 Ry
     xc contribution           =    -149.69921611 Ry
     ewald contribution        =    -460.60133541 Ry

     convergence has been achieved in  21 iterations

     Forces acting on atoms (cartesian axes, Ry/au):

     atom    1 type  1   force =     0.01148679    0.03556973    0.00209763
     atom    2 type  1   force =    -0.00459488   -0.04223437    0.03730971
     atom    3 type  1   force =    -0.02441972    0.02006211   -0.02619499
     atom    4 type  1   force =    -0.01227340   -0.00610583    0.02519809
     atom    5 type  1   force =    -0.04923628    0.06696009    0.04942479
     atom    6 type  1   force =     0.00583888   -0.00794908    0.00333973
     atom    7 type  1   force =     0.01547524    0.00737947   -0.02257631
     atom    8 type  1   force =     0.02187124   -0.03131378    0.01966020
     atom    9 type  1   force =     0.01098112    0.02282360    0.02093015
     atom   10 type  1   force =     0.02038415   -0.03568473   -0.02529054
     atom   11 type  1   force =    -0.06849459   -0.02711849    0.05383344
     atom   12 type  1   force =    -0.00948533   -0.03285107    0.01154853
     atom   13 type  1   force =    -0.01069921   -0.01299437    0.01669833
     atom   14 type  1   force =     0.03079982   -0.00597385   -0.01925741
     atom   15 type  1   force =    -0.04877557    0.12791389    0.11654013
     atom   16 type  1   force =    -0.00856647   -0.06196720    0.06006176
     atom   17 type  1   force =     0.00878358    0.00685527   -0.00990074
     atom   18 type  1   force =    -0.01492779   -0.00554103    0.00852106
     atom   19 type  1   force =     0.02577920    0.01431086   -0.02163698
     atom   20 type  1   force =     0.04289775    0.07039940   -0.00240521
     atom   21 type  1   force =     0.04871151    0.02918018   -0.09442621
     atom   22 type  1   force =    -0.01895777    0.09120075   -0.00247713
     atom   23 type  1   force =     0.00674974    0.03814611   -0.01892306
     atom   24 type  1   force =    -0.02721351    0.08269147   -0.03415586
     atom   25 type  1   force =    -0.05369905    0.01000752   -0.02026939
     atom   26 type  1   force =     0.01785217   -0.01514805    0.00246378
     atom   27 type  1   force =     0.00752401    0.02236031    0.03796260
     atom   28 type  1   force =    -0.00661898   -0.02436185    0.04420580
     atom   29 type  1   force =     0.13926141   -0.05727113   -0.05433647
     atom   30 type  1   force =     0.03126582   -0.00342085   -0.06277661
     atom   31 type  1   force =     0.02950804    0.05652575   -0.00158392
     atom   32 type  1   force =    -0.04748145   -0.00942474    0.04712177
     atom   33 type  1   force =     0.01487746   -0.01893351   -0.02480606
     atom   34 type  1   force =    -0.03838156    0.00589940   -0.04317217
     atom   35 type  1   force =    -0.01665262    0.00184450   -0.00174468
     atom   36 type  1   force =    -0.00953691   -0.01571246    0.00018978
     atom   37 type  1   force =     0.04733002   -0.04964353    0.08167414
     atom   38 type  1   force =    -0.03461065    0.02400009   -0.01200632
     atom   39 type  1   force =     0.04617634    0.03273888    0.02814620
     atom   40 type  1   force =    -0.04970296   -0.07061123   -0.05152420
     atom   41 type  1   force =     0.06340250   -0.02079427   -0.02981794
     atom   42 type  1   force =    -0.01694482   -0.00393173   -0.07109467
     atom   43 type  1   force =    -0.01856647    0.00832758    0.01099088
     atom   44 type  1   force =     0.02212256    0.08230127   -0.03804401
     atom   45 type  1   force =     0.00318442   -0.00908730   -0.05418935
     atom   46 type  1   force =     0.00971473   -0.00651005    0.03258514
     atom   47 type  1   force =    -0.00506582    0.01067709   -0.00229651
     atom   48 type  1   force =    -0.01345427   -0.04732596   -0.00834648
     atom   49 type  1   force =    -0.02127132    0.02062405   -0.00882006
     atom   50 type  1   force =    -0.06049217   -0.01819925   -0.01000429
     atom   51 type  1   force =     0.01950503    0.02662787   -0.02775993
     atom   52 type  1   force =    -0.01485234    0.02223448    0.01282528
     atom   53 type  1   force =    -0.04403908   -0.05266989    0.01755428
     atom   54 type  1   force =     0.00770389   -0.03450114    0.01564124
     atom   55 type  1   force =     0.00266912   -0.00152873    0.00214632
     atom   56 type  1   force =    -0.11079722   -0.02090275   -0.06821445
     atom   57 type  1   force =    -0.05093826   -0.11608180    0.01708695
     atom   58 type  1   force =     0.08970821    0.04924266    0.05962621
     atom   59 type  1   force =    -0.04186774   -0.04908452    0.02557921
     atom   60 type  1   force =     0.11726940   -0.00192484    0.00711268
     atom   61 type  1   force =     0.05648133   -0.06367888    0.00384576
     atom   62 type  1   force =     0.01218942   -0.00108343   -0.01503397
     atom   63 type  1   force =    -0.11522206   -0.01177165   -0.03183858
     atom   64 type  1   force =     0.08033541    0.00643299    0.04300297

     Total force =     0.576499     Total SCF correction =     0.000807


     Computing stress (Cartesian axis) and pressure

          total   stress  (Ry/bohr**3)                   (kbar)     P=        1.86
   0.00011638   0.00002358  -0.00000254           17.12        3.47       -0.37
   0.00002358  -0.00003265  -0.00002393            3.47       -4.80       -3.52
  -0.00000254  -0.00002393  -0.00004584           -0.37       -3.52       -6.74

 
     init_run     :      0.83s CPU      4.47s WALL (       1 calls)
     electrons    :      2.93s CPU      3.11s WALL (       1 calls)
     forces       :      0.04s CPU      0.05s WALL (       1 calls)
     stress       :      0.19s CPU      0.19s WALL (       1 calls)

     Called by init_run:
     wfcinit      :      0.61s CPU      4.08s WALL (       1 calls)
                                        4.08s GPU  (       1 calls)
     potinit      :      0.06s CPU      0.13s WALL (       1 calls)
     hinit0       :      0.15s CPU      0.17s WALL (       1 calls)

     Called by electrons:
     c_bands      :      1.72s CPU      1.80s WALL (      22 calls)
     sum_band     :      0.61s CPU      0.66s WALL (      22 calls)
     v_of_rho     :      0.26s CPU      0.35s WALL (      22 calls)
     mix_rho      :      0.28s CPU      0.29s WALL (      22 calls)

     Called by c_bands:
     init_us_2    :      0.08s CPU      0.09s WALL (      45 calls)
     init_us_2:gp :      0.08s CPU      0.08s WALL (      45 calls)
     regterg      :      1.51s CPU      1.57s WALL (      22 calls)

     Called by *egterg:
     rdiaghg      :      0.50s CPU      1.23s WALL (     109 calls)
                                        1.21s GPU  (     109 calls)
     h_psi        :      1.36s CPU      4.15s WALL (     111 calls)
                                        4.15s GPU  (     111 calls)
     g_psi        :      0.00s CPU      0.01s WALL (      88 calls)
                                        0.00s GPU  (      88 calls)

     Called by h_psi:
     h_psi:calbec :      0.56s CPU      3.26s WALL (     111 calls)
                                        3.26s GPU  (     111 calls)
     vloc_psi     :      0.73s CPU      0.81s WALL (     111 calls)
                                        0.81s GPU  (     111 calls)
     add_vuspsi   :      0.05s CPU      0.07s WALL (     111 calls)
                                        0.07s GPU  (     111 calls)

     General routines
     calbec       :      0.57s CPU      3.26s WALL (     116 calls)
     fft          :      0.41s CPU      0.53s WALL (     183 calls)
                                        0.12s GPU  (     116 calls)
     ffts         :      0.10s CPU      0.11s WALL (      22 calls)
     fftw         :      0.80s CPU      1.04s WALL (    2320 calls)
                                        0.93s GPU  (    2320 calls)
 
     Parallel routines
 
     PWSCF        :      4.04s CPU      7.91s WALL

 
   This run was terminated on:  14: 4: 8  10May2023            

=------------------------------------------------------------------------------=
   JOB DONE.
=------------------------------------------------------------------------------=
