An instance of this daemon is already running
An instance of this daemon is already running

     Program PWSCF v.7.1 starts on 10May2023 at 14:13:48 

     This program is part of the open-source Quantum ESPRESSO suite
     for quantum simulation of materials; please cite
         "P. Giannozzi et al., J. Phys.:Condens. Matter 21 395502 (2009);
         "P. Giannozzi et al., J. Phys.:Condens. Matter 29 465901 (2017);
         "P. Giannozzi et al., J. Chem. Phys. 152 154105 (2020);
          URL http://www.quantum-espresso.org", 
     in publications or presentations arising from this work. More details at
     http://www.quantum-espresso.org/quote

     Parallel version (MPI & OpenMP), running on       4 processor cores
     Number of MPI processes:                 4
     Threads/MPI process:                     1

     MPI processes distributed on     1 nodes
     752755 MiB available memory on the printing compute node when the environment starts
 
     Reading input from pw-si-97.in
Warning: card &CELL ignored
Warning: card / ignored

     Current dimensions of program PWSCF are:
     Max number of different atomic species (ntypx) = 10
     Max number of k-points (npk) =  40000
     Max angular momentum in pseudopotentials (lmaxx) =  4

     IMPORTANT: XC functional enforced from input :
     Exchange-correlation= PBE
                           (   1   4   3   4   0   0   0)
     Any further DFT definition will be discarded
     Please, verify this is what you really want


     gamma-point specific algorithms are used
 
     K-points division:     npool     =       2
     R & G space division:  proc/nbgrp/npool/nimage =       2
     Subspace diagonalization in iterative solution of the eigenvalue problem:
     a serial algorithm will be used

     Message from routine divide_et_impera:
     suboptimal parallelization: some nodes have no k-points
 
     Parallelization info
     --------------------
     sticks:   dense  smooth     PW     G-vecs:    dense   smooth      PW
     Min        2249    2249    599               114239   114239   15513
     Max        2252    2252    602               114248   114248   15518
     Sum        4501    4501   1201               228487   228487   31031
 
     Using Slab Decomposition
 


     bravais-lattice index     =            0
     lattice parameter (alat)  =      21.7563  a.u.
     unit-cell volume          =   10298.0015 (a.u.)^3
     number of atoms/cell      =           64
     number of atomic types    =            1
     number of electrons       =       256.00
     number of Kohn-Sham states=          154
     kinetic-energy cutoff     =      30.0000  Ry
     charge density cutoff     =     120.0000  Ry
     scf convergence threshold =      1.0E-06
     mixing beta               =       0.5000
     number of iterations used =            8  plain     mixing
     Exchange-correlation= PBE
                           (   1   4   3   4   0   0   0)

     GPU acceleration is ACTIVE.
     GPU-aware MPI enabled

     Message from routine print_cuda_info:
     High GPU oversubscription detected. Are you sure this is what you want?

     celldm(1)=  21.756264  celldm(2)=   0.000000  celldm(3)=   0.000000
     celldm(4)=   0.000000  celldm(5)=   0.000000  celldm(6)=   0.000000

     crystal axes: (cart. coord. in units of alat)
               a(1) = (   1.000000   0.000000   0.000000 )  
               a(2) = (   0.000000   1.000000   0.000000 )  
               a(3) = (   0.000000   0.000000   1.000000 )  

     reciprocal axes: (cart. coord. in units 2 pi/alat)
               b(1) = (  1.000000  0.000000  0.000000 )  
               b(2) = (  0.000000  1.000000  0.000000 )  
               b(3) = (  0.000000  0.000000  1.000000 )  


     PseudoPot. # 1 for Si read from file:
     /home/ppiaggi/pseudos/Si_ONCV_PBE_sr.upf
     MD5 check sum: 8553c464762ac42b85b1eed164b4d029
     Pseudo is Norm-conserving, Zval =  4.0
     Generated using ONCVPSP code by D. R. Hamann
     Using radial grid of 1510 points,  4 beta functions with: 
                l(1) =   0
                l(2) =   0
                l(3) =   1
                l(4) =   1

     atomic species   valence    mass     pseudopotential
        Si             4.00    28.08500     Si( 1.00)

     No symmetry found



   Cartesian axes

     site n.     atom                  positions (alat units)
         1           Si  tau(   1) = (   0.3540180   0.1023870   0.8856560  )
         2           Si  tau(   2) = (   0.0737137   0.1144820   0.2778770  )
         3           Si  tau(   3) = (   0.8110780   0.0776323   0.6792440  )
         4           Si  tau(   4) = (   0.4669790   0.6167720   0.0843790  )
         5           Si  tau(   5) = (   0.6293680   0.8702540   0.4932460  )
         6           Si  tau(   6) = (   0.3766470   0.2855210   0.4284950  )
         7           Si  tau(   7) = (   0.4891710   0.9589620   0.8626140  )
         8           Si  tau(   8) = (   0.7900580   0.4131770   0.1544310  )
         9           Si  tau(   9) = (   0.6723150   0.9918530   0.9689790  )
        10           Si  tau(  10) = (   0.3214420   0.3099500   0.6249840  )
        11           Si  tau(  11) = (   0.2554470   0.5007680   0.6766810  )
        12           Si  tau(  12) = (   0.9586170   0.3959340   0.2758860  )
        13           Si  tau(  13) = (   0.6431570   0.4345510   0.6496470  )
        14           Si  tau(  14) = (   0.6187000   0.7090110   0.3806180  )
        15           Si  tau(  15) = (   0.0526028   0.0097792   0.6618110  )
        16           Si  tau(  16) = (   0.4796660   0.7370690   0.5265110  )
        17           Si  tau(  17) = (   0.5884820   0.7548020   0.1678920  )
        18           Si  tau(  18) = (   0.3383630   0.0650485   0.6809900  )
        19           Si  tau(  19) = (   0.6795200   0.6063430   0.5350860  )
        20           Si  tau(  20) = (   0.1848430   0.1939590   0.1378300  )
        21           Si  tau(  21) = (   0.6880250   0.8980090   0.3082960  )
        22           Si  tau(  22) = (   0.1122970   0.0408082   0.0650797  )
        23           Si  tau(  23) = (   0.6843950   0.2221580   0.1821810  )
        24           Si  tau(  24) = (   0.5929070   0.2643740   0.0035143  )
        25           Si  tau(  25) = (   0.2218500   0.1351750   0.5419230  )
        26           Si  tau(  26) = (   0.9898210   0.6024150   0.2345700  )
        27           Si  tau(  27) = (   0.9747460   0.7329500   0.4544200  )
        28           Si  tau(  28) = (   0.3599580   0.2873780   0.2422960  )
        29           Si  tau(  29) = (   0.0905308   0.0205107   0.4657970  )
        30           Si  tau(  30) = (   0.0422929   0.4854660   0.4313440  )
        31           Si  tau(  31) = (   0.4255610   0.4278070   0.1201040  )
        32           Si  tau(  32) = (   0.9232360   0.6014430   0.8711530  )
        33           Si  tau(  33) = (   0.1853370   0.3475040   0.7826810  )
        34           Si  tau(  34) = (   0.8900610   0.5822960   0.5360460  )
        35           Si  tau(  35) = (   0.0383332   0.2847930   0.4286070  )
        36           Si  tau(  36) = (   0.1657230   0.8318740   0.4223610  )
        37           Si  tau(  37) = (   0.7340870   0.8787400   0.1218420  )
        38           Si  tau(  38) = (   0.8850570   0.4279050   0.9758620  )
        39           Si  tau(  39) = (   0.4899210   0.5722040   0.6616090  )
        40           Si  tau(  40) = (   0.9102000   0.9498030   0.5216760  )
        41           Si  tau(  41) = (   0.7258620   0.0689768   0.4891690  )
        42           Si  tau(  42) = (   0.3015140   0.6948210   0.4095860  )
        43           Si  tau(  43) = (   0.4555490   0.4335960   0.5370950  )
        44           Si  tau(  44) = (   0.9216080   0.9671670   0.0308068  )
        45           Si  tau(  45) = (   0.0035154   0.7885180   0.0004712  )
        46           Si  tau(  46) = (   0.5393140   0.0998488   0.2848990  )
        47           Si  tau(  47) = (   0.1637250   0.6625700   0.9997980  )
        48           Si  tau(  48) = (   0.3331500   0.7757280   0.0802226  )
        49           Si  tau(  49) = (   0.1364240   0.6548260   0.5252820  )
        50           Si  tau(  50) = (   0.7628190   0.4788750   0.8262170  )
        51           Si  tau(  51) = (   0.6438160   0.0711580   0.7700980  )
        52           Si  tau(  52) = (   0.6685510   0.2136420   0.6062240  )
        53           Si  tau(  53) = (   0.0112153   0.9578070   0.8570460  )
        54           Si  tau(  54) = (   0.4904290   0.9378000   0.6656260  )
        55           Si  tau(  55) = (   0.2714610   0.4895810   0.9821420  )
        56           Si  tau(  56) = (   0.3772550   0.1743230   0.0741599  )
        57           Si  tau(  57) = (   0.7809220   0.1602810   0.0229386  )
        58           Si  tau(  58) = (   0.1242900   0.5782580   0.8013720  )
        59           Si  tau(  59) = (   0.1891260   0.6837700   0.2158490  )
        60           Si  tau(  60) = (   0.9901060   0.4143780   0.8101020  )
        61           Si  tau(  61) = (   0.2427880   0.9245770   0.9775350  )
        62           Si  tau(  62) = (   0.5533540   0.2824180   0.3408510  )
        63           Si  tau(  63) = (   0.8861950   0.6280210   0.0699893  )
        64           Si  tau(  64) = (   0.6707160   0.5761050   0.1161970  )

     number of k points=     1  Fermi-Dirac smearing, width (Ry)=  0.0100
                       cart. coord. in units 2pi/alat
        k(    1) = (   0.0000000   0.0000000   0.0000000), wk =   2.0000000

     Dense  grid:   114244 G-vectors     FFT dimensions: (  75,  75,  75)

     Estimated max dynamical RAM per process >     181.18 MB

     Estimated total dynamical RAM >     696.84 MB

     Initial potential from superposition of free atoms

     starting charge     255.9608, renormalised to     256.0000
     Starting wfcs are  256 randomized atomic wfcs

     total cpu time spent up to now is        4.6 secs

     Self-consistent Calculation

     iteration #  1     ecut=    30.00 Ry     beta= 0.50
     Davidson diagonalization with overlap
     ethr =  1.00E-02,  avg # of iterations =  3.0

     Threshold (ethr) on eigenvalues was too large:
     Diagonalizing with lowered threshold

     Davidson diagonalization with overlap
     ethr =  7.41E-04,  avg # of iterations =  4.0

     total cpu time spent up to now is        4.9 secs

     total energy              =    -499.83069752 Ry
     estimated scf accuracy    <       2.46499658 Ry

     iteration #  2     ecut=    30.00 Ry     beta= 0.50
     Davidson diagonalization with overlap
     ethr =  9.63E-04,  avg # of iterations =  3.0

     total cpu time spent up to now is        5.0 secs

     total energy              =    -499.50826229 Ry
     estimated scf accuracy    <       3.45469029 Ry

     iteration #  3     ecut=    30.00 Ry     beta= 0.50
     Davidson diagonalization with overlap
     ethr =  9.63E-04,  avg # of iterations =  4.0

     total cpu time spent up to now is        5.2 secs

     total energy              =    -499.80797362 Ry
     estimated scf accuracy    <       6.43151986 Ry

     iteration #  4     ecut=    30.00 Ry     beta= 0.50
     Davidson diagonalization with overlap
     ethr =  9.63E-04,  avg # of iterations =  2.0

     total cpu time spent up to now is        5.3 secs

     total energy              =    -500.21272012 Ry
     estimated scf accuracy    <       0.97493467 Ry

     iteration #  5     ecut=    30.00 Ry     beta= 0.50
     Davidson diagonalization with overlap
     ethr =  3.81E-04,  avg # of iterations =  2.0

     total cpu time spent up to now is        5.4 secs

     total energy              =    -500.29673459 Ry
     estimated scf accuracy    <       0.60943028 Ry

     iteration #  6     ecut=    30.00 Ry     beta= 0.50
     Davidson diagonalization with overlap
     ethr =  2.38E-04,  avg # of iterations =  2.0

     total cpu time spent up to now is        5.5 secs

     total energy              =    -500.35040340 Ry
     estimated scf accuracy    <       0.10748535 Ry

     iteration #  7     ecut=    30.00 Ry     beta= 0.50
     Davidson diagonalization with overlap
     ethr =  4.20E-05,  avg # of iterations = 14.0

     total cpu time spent up to now is        5.7 secs

     total energy              =    -500.35993355 Ry
     estimated scf accuracy    <       0.05356791 Ry

     iteration #  8     ecut=    30.00 Ry     beta= 0.50
     Davidson diagonalization with overlap
     ethr =  2.09E-05,  avg # of iterations =  2.0

     total cpu time spent up to now is        5.8 secs

     total energy              =    -500.36437123 Ry
     estimated scf accuracy    <       0.03531416 Ry

     iteration #  9     ecut=    30.00 Ry     beta= 0.50
     Davidson diagonalization with overlap
     ethr =  1.38E-05,  avg # of iterations =  2.0

     total cpu time spent up to now is        6.0 secs

     total energy              =    -500.36755247 Ry
     estimated scf accuracy    <       0.00371891 Ry

     iteration # 10     ecut=    30.00 Ry     beta= 0.50
     Davidson diagonalization with overlap
     ethr =  1.45E-06,  avg # of iterations = 14.0

     total cpu time spent up to now is        6.2 secs

     total energy              =    -500.36797379 Ry
     estimated scf accuracy    <       0.00184497 Ry

     iteration # 11     ecut=    30.00 Ry     beta= 0.50
     Davidson diagonalization with overlap
     ethr =  7.21E-07,  avg # of iterations =  3.0

     total cpu time spent up to now is        6.3 secs

     total energy              =    -500.36817719 Ry
     estimated scf accuracy    <       0.00118412 Ry

     iteration # 12     ecut=    30.00 Ry     beta= 0.50
     Davidson diagonalization with overlap
     ethr =  4.63E-07,  avg # of iterations =  2.0

     total cpu time spent up to now is        6.4 secs

     total energy              =    -500.36825892 Ry
     estimated scf accuracy    <       0.00043315 Ry

     iteration # 13     ecut=    30.00 Ry     beta= 0.50
     Davidson diagonalization with overlap
     ethr =  1.69E-07,  avg # of iterations =  2.0

     total cpu time spent up to now is        6.5 secs

     total energy              =    -500.36828885 Ry
     estimated scf accuracy    <       0.00025693 Ry

     iteration # 14     ecut=    30.00 Ry     beta= 0.50
     Davidson diagonalization with overlap
     ethr =  1.00E-07,  avg # of iterations =  2.0

     total cpu time spent up to now is        6.7 secs

     total energy              =    -500.36831110 Ry
     estimated scf accuracy    <       0.00003440 Ry

     iteration # 15     ecut=    30.00 Ry     beta= 0.50
     Davidson diagonalization with overlap
     ethr =  1.34E-08,  avg # of iterations =  5.0

     total cpu time spent up to now is        6.8 secs

     total energy              =    -500.36831163 Ry
     estimated scf accuracy    <       0.00013152 Ry

     iteration # 16     ecut=    30.00 Ry     beta= 0.50
     Davidson diagonalization with overlap
     ethr =  1.34E-08,  avg # of iterations =  3.0

     total cpu time spent up to now is        7.0 secs

     total energy              =    -500.36831953 Ry
     estimated scf accuracy    <       0.00001148 Ry

     iteration # 17     ecut=    30.00 Ry     beta= 0.50
     Davidson diagonalization with overlap
     ethr =  4.48E-09,  avg # of iterations =  4.0

     total cpu time spent up to now is        7.1 secs

     total energy              =    -500.36832023 Ry
     estimated scf accuracy    <       0.00001069 Ry

     iteration # 18     ecut=    30.00 Ry     beta= 0.50
     Davidson diagonalization with overlap
     ethr =  4.18E-09,  avg # of iterations =  2.0

     total cpu time spent up to now is        7.2 secs

     total energy              =    -500.36832098 Ry
     estimated scf accuracy    <       0.00000621 Ry

     iteration # 19     ecut=    30.00 Ry     beta= 0.50
     Davidson diagonalization with overlap
     ethr =  2.43E-09,  avg # of iterations =  2.0

     total cpu time spent up to now is        7.3 secs

     total energy              =    -500.36832149 Ry
     estimated scf accuracy    <       0.00000108 Ry

     iteration # 20     ecut=    30.00 Ry     beta= 0.50
     Davidson diagonalization with overlap
     ethr =  4.22E-10,  avg # of iterations =  2.0

     total cpu time spent up to now is        7.5 secs

     End of self-consistent calculation

          k = 0.0000 0.0000 0.0000 ( 14213 PWs)   bands (ev):

    -8.0662  -7.8061  -7.4980  -7.3638  -7.2822  -7.0694  -6.8699  -6.6705
    -6.6065  -6.4486  -6.3962  -6.2591  -6.2020  -6.0377  -5.9079  -5.5620
    -5.2996  -5.2104  -5.1219  -4.9021  -4.7164  -4.6549  -4.3936  -4.2204
    -4.0455  -3.8601  -3.7777  -3.6653  -3.5468  -3.4726  -3.2673  -3.1804
    -3.0410  -2.9998  -2.8285  -2.7383  -2.6662  -2.4310  -2.4134  -2.3188
    -2.2614  -2.1781  -1.9996  -1.9034  -1.7694  -1.6719  -1.6275  -1.5863
    -1.3436  -1.2350  -1.0575  -1.0308  -0.8884  -0.7857  -0.7392  -0.5270
    -0.3988  -0.3041  -0.1788  -0.1246  -0.0227   0.0065   0.1467   0.3472
     0.3792   0.4740   0.5324   0.6160   0.6245   0.8368   0.8555   0.8838
     0.9468   1.0447   1.0777   1.1881   1.2400   1.3568   1.3804   1.4841
     1.5473   1.6048   1.7068   1.7285   1.7721   1.8800   1.9339   2.0872
     2.1298   2.1541   2.2418   2.3163   2.3669   2.4557   2.5395   2.5748
     2.6284   2.6868   2.7299   2.7729   2.8425   2.9535   3.0473   3.1005
     3.1336   3.2075   3.2950   3.3171   3.4366   3.4591   3.4839   3.5618
     3.6373   3.7103   3.7760   3.8203   3.9095   3.9995   4.0529   4.0756
     4.1215   4.1816   4.2359   4.2892   4.3286   4.4129   4.4978   4.5819
     4.6195   4.7172   4.7920   4.8479   4.9101   4.9468   5.0523   5.1014
     5.1342   5.2373   5.2755   5.3617   5.3739   5.4579   5.5766   5.6145
     5.6773   5.7660   5.7703   5.8017   5.8924   5.9318   6.0321   6.0926
     6.2066   6.2702

     the Fermi energy is     4.6025 ev

!    total energy              =    -500.36832131 Ry
     estimated scf accuracy    <       0.00000053 Ry
     smearing contrib. (-TS)   =      -0.13419417 Ry
     internal energy E=F+TS    =    -500.23412714 Ry

     The total energy is F=E-TS. E is the sum of the following terms:
     one-electron contribution =       0.86239757 Ry
     hartree contribution      =      93.76143305 Ry
     xc contribution           =    -151.17387213 Ry
     ewald contribution        =    -443.68408563 Ry

     convergence has been achieved in  20 iterations

     Forces acting on atoms (cartesian axes, Ry/au):

     atom    1 type  1   force =    -0.04190530   -0.01932581   -0.01032521
     atom    2 type  1   force =    -0.01943595   -0.00658894    0.04097826
     atom    3 type  1   force =     0.10856834   -0.00097902   -0.02007604
     atom    4 type  1   force =    -0.01560459    0.01937202   -0.03875891
     atom    5 type  1   force =     0.03101856    0.07887559    0.08689657
     atom    6 type  1   force =    -0.05221173   -0.02814468    0.07208077
     atom    7 type  1   force =     0.02902516   -0.02168966    0.06214980
     atom    8 type  1   force =    -0.01466791   -0.03406028    0.03787744
     atom    9 type  1   force =    -0.02916882    0.01992139   -0.02172323
     atom   10 type  1   force =    -0.02297709   -0.05890625    0.02548041
     atom   11 type  1   force =     0.04441119    0.08033392   -0.06343656
     atom   12 type  1   force =    -0.01323195   -0.02091972   -0.04255123
     atom   13 type  1   force =     0.03550252   -0.02682301   -0.00670628
     atom   14 type  1   force =    -0.00531160   -0.03387729   -0.08786743
     atom   15 type  1   force =    -0.01895421    0.01023402    0.05913467
     atom   16 type  1   force =    -0.05820628   -0.02017173    0.01870173
     atom   17 type  1   force =    -0.00796570   -0.00711173    0.05725920
     atom   18 type  1   force =    -0.00236814    0.02044230    0.01807140
     atom   19 type  1   force =     0.04170879   -0.01576985    0.02732683
     atom   20 type  1   force =     0.04605726    0.10525221    0.01579688
     atom   21 type  1   force =    -0.01400902    0.05607140    0.00276327
     atom   22 type  1   force =    -0.07731962   -0.07241954   -0.01524558
     atom   23 type  1   force =    -0.00563169    0.02381202    0.03222495
     atom   24 type  1   force =    -0.04115111    0.01000181   -0.01121070
     atom   25 type  1   force =     0.02023478    0.07719387    0.00942191
     atom   26 type  1   force =     0.04063794    0.01434791    0.06084146
     atom   27 type  1   force =    -0.03144923    0.10381226   -0.05995775
     atom   28 type  1   force =    -0.02150998    0.00958477   -0.03462676
     atom   29 type  1   force =    -0.01494024   -0.03960187   -0.11909639
     atom   30 type  1   force =     0.01160895    0.03413400    0.05370744
     atom   31 type  1   force =     0.00612827   -0.02789639   -0.04128368
     atom   32 type  1   force =    -0.01018909    0.07207985   -0.04860362
     atom   33 type  1   force =    -0.00686640   -0.02545255    0.07385008
     atom   34 type  1   force =    -0.02790603   -0.03950113    0.02798044
     atom   35 type  1   force =    -0.00026516   -0.02664315   -0.00569637
     atom   36 type  1   force =    -0.05399339    0.04980594   -0.02330385
     atom   37 type  1   force =     0.06301983    0.01394187   -0.05827156
     atom   38 type  1   force =    -0.00331674   -0.05642139    0.04853614
     atom   39 type  1   force =    -0.03005064    0.07630118    0.05332689
     atom   40 type  1   force =    -0.03339592   -0.03478825   -0.00780832
     atom   41 type  1   force =     0.00288841   -0.06285317   -0.06165993
     atom   42 type  1   force =     0.03441119   -0.03950759   -0.01828843
     atom   43 type  1   force =     0.01122531   -0.02393515   -0.05590761
     atom   44 type  1   force =    -0.07058105    0.05546468    0.06707044
     atom   45 type  1   force =     0.00400026   -0.02621755   -0.01955184
     atom   46 type  1   force =     0.00874578   -0.07595618   -0.03038749
     atom   47 type  1   force =     0.02032787   -0.00618578   -0.00218190
     atom   48 type  1   force =    -0.02308144   -0.02871382    0.02062235
     atom   49 type  1   force =     0.06714416   -0.08893834    0.05976406
     atom   50 type  1   force =    -0.01395572    0.00491001   -0.02318304
     atom   51 type  1   force =    -0.05074968    0.00330497    0.01370440
     atom   52 type  1   force =    -0.01858514    0.04072488    0.03713730
     atom   53 type  1   force =     0.03634088   -0.02250596   -0.01881725
     atom   54 type  1   force =     0.02755464   -0.02536651   -0.03990585
     atom   55 type  1   force =     0.01016506   -0.03152904   -0.00714926
     atom   56 type  1   force =     0.05318056   -0.00726944   -0.01378647
     atom   57 type  1   force =     0.02962326   -0.03123095   -0.03922695
     atom   58 type  1   force =    -0.00615327    0.03063379    0.02510304
     atom   59 type  1   force =     0.02208800    0.02372267    0.01913522
     atom   60 type  1   force =    -0.01258880   -0.04666393   -0.03274969
     atom   61 type  1   force =     0.01642135    0.00862228   -0.05175923
     atom   62 type  1   force =     0.06523382    0.07055957    0.02385202
     atom   63 type  1   force =    -0.06276472    0.01773058    0.00156794
     atom   64 type  1   force =     0.04519121    0.00277389   -0.02125887

     Total force =     0.573192     Total SCF correction =     0.001221


     Computing stress (Cartesian axis) and pressure

          total   stress  (Ry/bohr**3)                   (kbar)     P=       26.04
   0.00011913   0.00001544  -0.00005254           17.52        2.27       -7.73
   0.00001544   0.00016068   0.00004757            2.27       23.64        7.00
  -0.00005254   0.00004757   0.00025129           -7.73        7.00       36.97

 
     init_run     :      0.79s CPU      4.49s WALL (       1 calls)
     electrons    :      2.71s CPU      2.89s WALL (       1 calls)
     forces       :      0.04s CPU      0.05s WALL (       1 calls)
     stress       :      0.19s CPU      0.19s WALL (       1 calls)

     Called by init_run:
     wfcinit      :      0.56s CPU      4.10s WALL (       1 calls)
                                        4.10s GPU  (       1 calls)
     potinit      :      0.05s CPU      0.13s WALL (       1 calls)
     hinit0       :      0.14s CPU      0.17s WALL (       1 calls)

     Called by electrons:
     c_bands      :      1.59s CPU      1.66s WALL (      21 calls)
     sum_band     :      0.55s CPU      0.62s WALL (      21 calls)
     v_of_rho     :      0.26s CPU      0.35s WALL (      21 calls)
     mix_rho      :      0.26s CPU      0.28s WALL (      21 calls)

     Called by c_bands:
     init_us_2    :      0.08s CPU      0.08s WALL (      43 calls)
     init_us_2:gp :      0.08s CPU      0.08s WALL (      43 calls)
     regterg      :      1.39s CPU      1.45s WALL (      21 calls)

     Called by *egterg:
     rdiaghg      :      0.44s CPU      1.17s WALL (      99 calls)
                                        1.15s GPU  (      99 calls)
     h_psi        :      1.29s CPU      4.14s WALL (     101 calls)
                                        4.13s GPU  (     101 calls)
     g_psi        :      0.00s CPU      0.00s WALL (      79 calls)
                                        0.00s GPU  (      79 calls)

     Called by h_psi:
     h_psi:calbec :      0.52s CPU      3.28s WALL (     101 calls)
                                        3.28s GPU  (     101 calls)
     vloc_psi     :      0.70s CPU      0.78s WALL (     101 calls)
                                        0.78s GPU  (     101 calls)
     add_vuspsi   :      0.04s CPU      0.06s WALL (     101 calls)
                                        0.06s GPU  (     101 calls)

     General routines
     calbec       :      0.53s CPU      3.29s WALL (     106 calls)
     fft          :      0.40s CPU      0.52s WALL (     175 calls)
                                        0.12s GPU  (     111 calls)
     ffts         :      0.09s CPU      0.10s WALL (      21 calls)
     fftw         :      0.76s CPU      0.99s WALL (    2213 calls)
                                        0.89s GPU  (    2213 calls)
 
     Parallel routines
 
     PWSCF        :      3.78s CPU      7.71s WALL

 
   This run was terminated on:  14:13:56  10May2023            

=------------------------------------------------------------------------------=
   JOB DONE.
=------------------------------------------------------------------------------=
