An instance of this daemon is already running

     Program PWSCF v.7.1 starts on 10May2023 at 14: 0:27 

     This program is part of the open-source Quantum ESPRESSO suite
     for quantum simulation of materials; please cite
         "P. Giannozzi et al., J. Phys.:Condens. Matter 21 395502 (2009);
         "P. Giannozzi et al., J. Phys.:Condens. Matter 29 465901 (2017);
         "P. Giannozzi et al., J. Chem. Phys. 152 154105 (2020);
          URL http://www.quantum-espresso.org", 
     in publications or presentations arising from this work. More details at
     http://www.quantum-espresso.org/quote

     Parallel version (MPI & OpenMP), running on       4 processor cores
     Number of MPI processes:                 4
     Threads/MPI process:                     1

     MPI processes distributed on     1 nodes
     752413 MiB available memory on the printing compute node when the environment starts
 
     Reading input from pw-si-19.in
Warning: card &CELL ignored
Warning: card / ignored

     Current dimensions of program PWSCF are:
     Max number of different atomic species (ntypx) = 10
     Max number of k-points (npk) =  40000
     Max angular momentum in pseudopotentials (lmaxx) =  4

     IMPORTANT: XC functional enforced from input :
     Exchange-correlation= PBE
                           (   1   4   3   4   0   0   0)
     Any further DFT definition will be discarded
     Please, verify this is what you really want


     gamma-point specific algorithms are used
 
     K-points division:     npool     =       2
     R & G space division:  proc/nbgrp/npool/nimage =       2
     Subspace diagonalization in iterative solution of the eigenvalue problem:
     a serial algorithm will be used

     Message from routine divide_et_impera:
     suboptimal parallelization: some nodes have no k-points
 
     Parallelization info
     --------------------
     sticks:   dense  smooth     PW     G-vecs:    dense   smooth      PW
     Min        1992    1992    524                94328    94328   12836
     Max        1993    1993    525                94335    94335   12841
     Sum        3985    3985   1049               188663   188663   25677
 
     Using Slab Decomposition
 


     bravais-lattice index     =            0
     lattice parameter (alat)  =      20.4048  a.u.
     unit-cell volume          =    8495.6860 (a.u.)^3
     number of atoms/cell      =           64
     number of atomic types    =            1
     number of electrons       =       256.00
     number of Kohn-Sham states=          154
     kinetic-energy cutoff     =      30.0000  Ry
     charge density cutoff     =     120.0000  Ry
     scf convergence threshold =      1.0E-06
     mixing beta               =       0.5000
     number of iterations used =            8  plain     mixing
     Exchange-correlation= PBE
                           (   1   4   3   4   0   0   0)

     GPU acceleration is ACTIVE.
     GPU-aware MPI enabled

     Message from routine print_cuda_info:
     High GPU oversubscription detected. Are you sure this is what you want?

     celldm(1)=  20.404822  celldm(2)=   0.000000  celldm(3)=   0.000000
     celldm(4)=   0.000000  celldm(5)=   0.000000  celldm(6)=   0.000000

     crystal axes: (cart. coord. in units of alat)
               a(1) = (   1.000000   0.000000   0.000000 )  
               a(2) = (   0.000000   1.000000   0.000000 )  
               a(3) = (   0.000000   0.000000   1.000000 )  

     reciprocal axes: (cart. coord. in units 2 pi/alat)
               b(1) = (  1.000000  0.000000  0.000000 )  
               b(2) = (  0.000000  1.000000  0.000000 )  
               b(3) = (  0.000000  0.000000  1.000000 )  


     PseudoPot. # 1 for Si read from file:
     /home/ppiaggi/pseudos/Si_ONCV_PBE_sr.upf
     MD5 check sum: 8553c464762ac42b85b1eed164b4d029
     Pseudo is Norm-conserving, Zval =  4.0
     Generated using ONCVPSP code by D. R. Hamann
     Using radial grid of 1510 points,  4 beta functions with: 
                l(1) =   0
                l(2) =   0
                l(3) =   1
                l(4) =   1

     atomic species   valence    mass     pseudopotential
        Si             4.00    28.08500     Si( 1.00)

     No symmetry found



   Cartesian axes

     site n.     atom                  positions (alat units)
         1           Si  tau(   1) = (   0.1683890   0.1966290   0.6567320  )
         2           Si  tau(   2) = (   0.1834350   0.0877403   0.2735370  )
         3           Si  tau(   3) = (   0.8961090   0.0887614   0.6560190  )
         4           Si  tau(   4) = (   0.3713180   0.8529760   0.0001522  )
         5           Si  tau(   5) = (   0.6491730   0.0215656   0.7902070  )
         6           Si  tau(   6) = (   0.4244990   0.3016740   0.3183810  )
         7           Si  tau(   7) = (   0.2189570   0.9972670   0.9271390  )
         8           Si  tau(   8) = (   0.4380230   0.1008870   0.0888278  )
         9           Si  tau(   9) = (   0.5756270   0.7636350   0.8640580  )
        10           Si  tau(  10) = (   0.1928600   0.3385710   0.4273590  )
        11           Si  tau(  11) = (   0.3540250   0.7186690   0.5886120  )
        12           Si  tau(  12) = (   0.7860560   0.4829880   0.1735990  )
        13           Si  tau(  13) = (   0.6119210   0.5337100   0.7810400  )
        14           Si  tau(  14) = (   0.5823160   0.1702590   0.2464210  )
        15           Si  tau(  15) = (   0.1072830   0.9744780   0.6492630  )
        16           Si  tau(  16) = (   0.4834210   0.8923590   0.6827140  )
        17           Si  tau(  17) = (   0.5519390   0.5661980   0.0535777  )
        18           Si  tau(  18) = (   0.2217050   0.2950690   0.8450640  )
        19           Si  tau(  19) = (   0.7144540   0.6109570   0.5901350  )
        20           Si  tau(  20) = (   0.1146380   0.2611030   0.1920390  )
        21           Si  tau(  21) = (   0.6286980   0.8899370   0.4913360  )
        22           Si  tau(  22) = (   0.0100092   0.0195951   0.8495720  )
        23           Si  tau(  23) = (   0.6005250   0.8885030   0.0458235  )
        24           Si  tau(  24) = (   0.7567990   0.7097270   0.0596403  )
        25           Si  tau(  25) = (   0.9665920   0.3339760   0.4293340  )
        26           Si  tau(  26) = (   0.0412955   0.4804530   0.2528980  )
        27           Si  tau(  27) = (   0.7454910   0.6910430   0.2910970  )
        28           Si  tau(  28) = (   0.3365290   0.3082860   0.1266670  )
        29           Si  tau(  29) = (   0.2879390   0.0448970   0.4881340  )
        30           Si  tau(  30) = (   0.0947132   0.4967700   0.5499560  )
        31           Si  tau(  31) = (   0.5769170   0.3236350   0.9612060  )
        32           Si  tau(  32) = (   0.9245770   0.5076470   0.8587660  )
        33           Si  tau(  33) = (   0.2209000   0.7011220   0.7884200  )
        34           Si  tau(  34) = (   0.9100530   0.5789950   0.4496680  )
        35           Si  tau(  35) = (   0.8514470   0.1391980   0.4165640  )
        36           Si  tau(  36) = (   0.1857530   0.8176930   0.4922460  )
        37           Si  tau(  37) = (   0.9695460   0.7212090   0.2889730  )
        38           Si  tau(  38) = (   0.8265300   0.0983612   0.8864490  )
        39           Si  tau(  39) = (   0.5095330   0.4151630   0.6036200  )
        40           Si  tau(  40) = (   0.9644550   0.8547190   0.5302240  )
        41           Si  tau(  41) = (   0.7620500   0.8984440   0.6746580  )
        42           Si  tau(  42) = (   0.5458090   0.6897050   0.4764930  )
        43           Si  tau(  43) = (   0.5779470   0.4593910   0.3979330  )
        44           Si  tau(  44) = (   0.0059980   0.1832180   0.9951150  )
        45           Si  tau(  45) = (   0.0167150   0.9452810   0.3446520  )
        46           Si  tau(  46) = (   0.5436700   0.9186260   0.2700630  )
        47           Si  tau(  47) = (   0.1756040   0.6223870   0.3538590  )
        48           Si  tau(  48) = (   0.4721300   0.6952480   0.2338240  )
        49           Si  tau(  49) = (   0.3202660   0.4964340   0.5591980  )
        50           Si  tau(  50) = (   0.8597550   0.4236700   0.6750690  )
        51           Si  tau(  51) = (   0.5741540   0.2364510   0.7588200  )
        52           Si  tau(  52) = (   0.7446550   0.2518630   0.6015520  )
        53           Si  tau(  53) = (   0.9701210   0.8651990   0.1288410  )
        54           Si  tau(  54) = (   0.3864370   0.1412430   0.8794100  )
        55           Si  tau(  55) = (   0.3870330   0.6422770   0.9264870  )
        56           Si  tau(  56) = (   0.3350910   0.4467330   0.9599360  )
        57           Si  tau(  57) = (   0.8523140   0.8818110   0.9438360  )
        58           Si  tau(  58) = (   0.9694360   0.7227090   0.8612170  )
        59           Si  tau(  59) = (   0.3469760   0.9269220   0.3147020  )
        60           Si  tau(  60) = (   0.0129935   0.3260740   0.7698700  )
        61           Si  tau(  61) = (   0.1992590   0.9333100   0.1110660  )
        62           Si  tau(  62) = (   0.7715680   0.3636600   0.3549430  )
        63           Si  tau(  63) = (   0.7717090   0.7197520   0.7891790  )
        64           Si  tau(  64) = (   0.7760910   0.3920850   0.9717010  )

     number of k points=     1  Fermi-Dirac smearing, width (Ry)=  0.0100
                       cart. coord. in units 2pi/alat
        k(    1) = (   0.0000000   0.0000000   0.0000000), wk =   2.0000000

     Dense  grid:    94332 G-vectors     FFT dimensions: (  72,  72,  72)

     Estimated max dynamical RAM per process >     150.73 MB

     Estimated total dynamical RAM >     579.88 MB

     Initial potential from superposition of free atoms

     starting charge     255.9608, renormalised to     256.0000
     Starting wfcs are  256 randomized atomic wfcs

     total cpu time spent up to now is        5.1 secs

     Self-consistent Calculation

     iteration #  1     ecut=    30.00 Ry     beta= 0.50
     Davidson diagonalization with overlap
     ethr =  1.00E-02,  avg # of iterations =  3.0

     Threshold (ethr) on eigenvalues was too large:
     Diagonalizing with lowered threshold

     Davidson diagonalization with overlap
     ethr =  6.07E-04,  avg # of iterations =  4.0

     total cpu time spent up to now is        5.3 secs

     total energy              =    -500.47514831 Ry
     estimated scf accuracy    <       2.02019711 Ry

     iteration #  2     ecut=    30.00 Ry     beta= 0.50
     Davidson diagonalization with overlap
     ethr =  7.89E-04,  avg # of iterations =  4.0

     total cpu time spent up to now is        5.5 secs

     total energy              =    -499.79649059 Ry
     estimated scf accuracy    <       8.73036513 Ry

     iteration #  3     ecut=    30.00 Ry     beta= 0.50
     Davidson diagonalization with overlap
     ethr =  7.89E-04,  avg # of iterations =  4.0

     total cpu time spent up to now is        5.6 secs

     total energy              =    -500.63413233 Ry
     estimated scf accuracy    <       4.66684173 Ry

     iteration #  4     ecut=    30.00 Ry     beta= 0.50
     Davidson diagonalization with overlap
     ethr =  7.89E-04,  avg # of iterations =  2.0

     total cpu time spent up to now is        5.7 secs

     total energy              =    -500.97430785 Ry
     estimated scf accuracy    <       0.55271833 Ry

     iteration #  5     ecut=    30.00 Ry     beta= 0.50
     Davidson diagonalization with overlap
     ethr =  2.16E-04,  avg # of iterations =  3.0

     total cpu time spent up to now is        5.8 secs

     total energy              =    -500.99804971 Ry
     estimated scf accuracy    <       0.58152950 Ry

     iteration #  6     ecut=    30.00 Ry     beta= 0.50
     Davidson diagonalization with overlap
     ethr =  2.16E-04,  avg # of iterations =  2.0

     total cpu time spent up to now is        5.9 secs

     total energy              =    -501.04733775 Ry
     estimated scf accuracy    <       0.18060366 Ry

     iteration #  7     ecut=    30.00 Ry     beta= 0.50
     Davidson diagonalization with overlap
     ethr =  7.05E-05,  avg # of iterations =  2.0

     total cpu time spent up to now is        6.0 secs

     total energy              =    -501.06067930 Ry
     estimated scf accuracy    <       0.04756378 Ry

     iteration #  8     ecut=    30.00 Ry     beta= 0.50
     Davidson diagonalization with overlap
     ethr =  1.86E-05,  avg # of iterations =  3.0

     total cpu time spent up to now is        6.1 secs

     total energy              =    -501.06559072 Ry
     estimated scf accuracy    <       0.03735480 Ry

     iteration #  9     ecut=    30.00 Ry     beta= 0.50
     Davidson diagonalization with overlap
     ethr =  1.46E-05,  avg # of iterations =  2.0

     total cpu time spent up to now is        6.2 secs

     total energy              =    -501.06812521 Ry
     estimated scf accuracy    <       0.00478284 Ry

     iteration # 10     ecut=    30.00 Ry     beta= 0.50
     Davidson diagonalization with overlap
     ethr =  1.87E-06,  avg # of iterations = 15.0

     total cpu time spent up to now is        6.4 secs

     total energy              =    -501.06862720 Ry
     estimated scf accuracy    <       0.00511778 Ry

     iteration # 11     ecut=    30.00 Ry     beta= 0.50
     Davidson diagonalization with overlap
     ethr =  1.87E-06,  avg # of iterations =  2.0

     total cpu time spent up to now is        6.5 secs

     total energy              =    -501.06905167 Ry
     estimated scf accuracy    <       0.00048658 Ry

     iteration # 12     ecut=    30.00 Ry     beta= 0.50
     Davidson diagonalization with overlap
     ethr =  1.90E-07,  avg # of iterations =  4.0

     total cpu time spent up to now is        6.6 secs

     total energy              =    -501.06910105 Ry
     estimated scf accuracy    <       0.00036848 Ry

     iteration # 13     ecut=    30.00 Ry     beta= 0.50
     Davidson diagonalization with overlap
     ethr =  1.44E-07,  avg # of iterations =  3.0

     total cpu time spent up to now is        6.7 secs

     total energy              =    -501.06913382 Ry
     estimated scf accuracy    <       0.00039079 Ry

     iteration # 14     ecut=    30.00 Ry     beta= 0.50
     Davidson diagonalization with overlap
     ethr =  1.44E-07,  avg # of iterations =  2.0

     total cpu time spent up to now is        6.8 secs

     total energy              =    -501.06915268 Ry
     estimated scf accuracy    <       0.00011914 Ry

     iteration # 15     ecut=    30.00 Ry     beta= 0.50
     Davidson diagonalization with overlap
     ethr =  4.65E-08,  avg # of iterations =  2.0

     total cpu time spent up to now is        6.9 secs

     total energy              =    -501.06916212 Ry
     estimated scf accuracy    <       0.00003303 Ry

     iteration # 16     ecut=    30.00 Ry     beta= 0.50
     Davidson diagonalization with overlap
     ethr =  1.29E-08,  avg # of iterations =  3.0

     total cpu time spent up to now is        7.0 secs

     total energy              =    -501.06916507 Ry
     estimated scf accuracy    <       0.00003488 Ry

     iteration # 17     ecut=    30.00 Ry     beta= 0.50
     Davidson diagonalization with overlap
     ethr =  1.29E-08,  avg # of iterations =  2.0

     total cpu time spent up to now is        7.1 secs

     total energy              =    -501.06916693 Ry
     estimated scf accuracy    <       0.00000470 Ry

     iteration # 18     ecut=    30.00 Ry     beta= 0.50
     Davidson diagonalization with overlap
     ethr =  1.84E-09,  avg # of iterations =  4.0

     total cpu time spent up to now is        7.2 secs

     total energy              =    -501.06916734 Ry
     estimated scf accuracy    <       0.00001193 Ry

     iteration # 19     ecut=    30.00 Ry     beta= 0.50
     Davidson diagonalization with overlap
     ethr =  1.84E-09,  avg # of iterations =  2.0

     total cpu time spent up to now is        7.3 secs

     total energy              =    -501.06916802 Ry
     estimated scf accuracy    <       0.00000102 Ry

     iteration # 20     ecut=    30.00 Ry     beta= 0.50
     Davidson diagonalization with overlap
     ethr =  3.97E-10,  avg # of iterations =  4.0

     total cpu time spent up to now is        7.4 secs

     End of self-consistent calculation

          k = 0.0000 0.0000 0.0000 ( 11792 PWs)   bands (ev):

    -6.4536  -5.7903  -5.4999  -5.3985  -5.0741  -4.8327  -4.6178  -4.4533
    -4.4240  -4.2822  -4.2137  -4.0948  -3.9633  -3.7557  -3.6492  -3.3858
    -3.3524  -3.2841  -3.1137  -2.9737  -2.7800  -2.5101  -2.3941  -2.3659
    -2.2434  -2.0088  -1.7085  -1.6687  -1.5061  -1.4417  -1.3962  -1.1653
    -1.0321  -0.9450  -0.8929  -0.7423  -0.7245  -0.6265  -0.4821  -0.4190
    -0.3445  -0.3233  -0.1895  -0.0633  -0.0029   0.0653   0.1780   0.3673
     0.4429   0.5428   0.6816   0.7744   0.8223   1.0475   1.1191   1.2204
     1.3025   1.4088   1.4503   1.4783   1.7583   1.8003   1.8729   1.8981
     2.0763   2.1251   2.1751   2.3355   2.3853   2.4283   2.5066   2.5575
     2.6067   2.8022   2.8299   2.9552   3.0555   3.2029   3.2622   3.3629
     3.3765   3.5005   3.6120   3.7331   3.7958   3.9048   3.9405   4.0007
     4.0888   4.1573   4.3379   4.3804   4.4110   4.4497   4.4898   4.6152
     4.6259   4.7441   4.8099   4.9087   4.9118   4.9631   4.9836   5.0628
     5.1252   5.1660   5.2190   5.2242   5.3646   5.3727   5.4860   5.5135
     5.5881   5.6024   5.7038   5.7622   5.8168   5.8705   5.9567   6.0885
     6.1041   6.2019   6.2516   6.3217   6.3355   6.4653   6.5347   6.5669
     6.6456   6.7035   6.7446   6.8324   6.8841   6.9427   6.9599   7.0240
     7.1267   7.1876   7.2535   7.3137   7.3742   7.4203   7.5303   7.5967
     7.7003   7.7874   7.8357   7.8716   7.9231   7.9488   8.0050   8.0211
     8.0738   8.1809

     the Fermi energy is     6.6019 ev

!    total energy              =    -501.06916792 Ry
     estimated scf accuracy    <       0.00000037 Ry
     smearing contrib. (-TS)   =      -0.14302264 Ry
     internal energy E=F+TS    =    -500.92614528 Ry

     The total energy is F=E-TS. E is the sum of the following terms:
     one-electron contribution =     110.59803121 Ry
     hartree contribution      =      57.57283193 Ry
     xc contribution           =    -151.92358377 Ry
     ewald contribution        =    -517.17342465 Ry

     convergence has been achieved in  20 iterations

     Forces acting on atoms (cartesian axes, Ry/au):

     atom    1 type  1   force =    -0.00546217   -0.00537034   -0.04983839
     atom    2 type  1   force =     0.01631347   -0.06185806    0.05088895
     atom    3 type  1   force =     0.00046014    0.00611556   -0.00653859
     atom    4 type  1   force =     0.02166898   -0.02350424    0.01711508
     atom    5 type  1   force =    -0.07070138    0.04828655    0.05527360
     atom    6 type  1   force =    -0.00094335    0.01152661    0.03979504
     atom    7 type  1   force =     0.00746518    0.04492534   -0.11425648
     atom    8 type  1   force =    -0.00070661    0.00947494    0.00813553
     atom    9 type  1   force =    -0.03765803    0.00492227   -0.00405109
     atom   10 type  1   force =     0.03749140   -0.02811733   -0.00021506
     atom   11 type  1   force =    -0.00293315   -0.01541570    0.03424358
     atom   12 type  1   force =     0.01757633    0.02434687   -0.00347863
     atom   13 type  1   force =    -0.00013362   -0.03585849   -0.01036592
     atom   14 type  1   force =     0.01512671   -0.02194476   -0.01331227
     atom   15 type  1   force =     0.00944603    0.02019117    0.01082587
     atom   16 type  1   force =    -0.00705984   -0.00694013   -0.01129347
     atom   17 type  1   force =     0.04596595   -0.00329309    0.02002226
     atom   18 type  1   force =     0.00657115    0.00237526    0.00877521
     atom   19 type  1   force =     0.03098176   -0.02561051    0.01156092
     atom   20 type  1   force =    -0.00415252    0.07915358   -0.02682161
     atom   21 type  1   force =     0.00451576   -0.00094227    0.00022464
     atom   22 type  1   force =     0.10699320   -0.05663696   -0.01802529
     atom   23 type  1   force =    -0.00328321    0.01049448   -0.00576513
     atom   24 type  1   force =    -0.02747547   -0.01208581    0.01136311
     atom   25 type  1   force =     0.02183619    0.00959751    0.01287889
     atom   26 type  1   force =    -0.02968324   -0.03483134   -0.02049731
     atom   27 type  1   force =    -0.00772220   -0.01644681   -0.01182186
     atom   28 type  1   force =    -0.03016501   -0.02285053   -0.01114280
     atom   29 type  1   force =    -0.01206456    0.00996926    0.01195629
     atom   30 type  1   force =    -0.03148560    0.01654234    0.02430940
     atom   31 type  1   force =    -0.04142695    0.01477203    0.00422744
     atom   32 type  1   force =    -0.00777009    0.00607789    0.02191865
     atom   33 type  1   force =    -0.00922067    0.01651265   -0.03649959
     atom   34 type  1   force =    -0.03199438   -0.00873056    0.02408961
     atom   35 type  1   force =    -0.00242568    0.01009984    0.00852437
     atom   36 type  1   force =    -0.00099816    0.01317604   -0.02957479
     atom   37 type  1   force =     0.01367220    0.00280727   -0.01205603
     atom   38 type  1   force =    -0.06884590    0.06214928    0.02710946
     atom   39 type  1   force =     0.03880030   -0.03001619    0.04660845
     atom   40 type  1   force =    -0.00853311   -0.03020991    0.01701058
     atom   41 type  1   force =     0.05547666   -0.00466258   -0.09146263
     atom   42 type  1   force =    -0.01109388   -0.02362526   -0.03028019
     atom   43 type  1   force =    -0.01207334    0.00802804    0.01283860
     atom   44 type  1   force =     0.00144521    0.04185714   -0.01328224
     atom   45 type  1   force =    -0.00596264    0.03118806   -0.02273017
     atom   46 type  1   force =     0.08688351    0.01333596   -0.00811512
     atom   47 type  1   force =     0.00728127    0.00161163    0.02344794
     atom   48 type  1   force =     0.00768637    0.01767825    0.01054711
     atom   49 type  1   force =    -0.04295909    0.01748921    0.00087148
     atom   50 type  1   force =    -0.05586903    0.04624438   -0.06613530
     atom   51 type  1   force =    -0.01868565   -0.00259466   -0.03263051
     atom   52 type  1   force =    -0.00320378   -0.00622939   -0.00038631
     atom   53 type  1   force =     0.04859818    0.00818897    0.01290528
     atom   54 type  1   force =    -0.00451262    0.00848469   -0.01447755
     atom   55 type  1   force =     0.00567479    0.05036015   -0.01746933
     atom   56 type  1   force =     0.00903018   -0.04759465    0.00148725
     atom   57 type  1   force =    -0.01813712    0.01389193    0.02838268
     atom   58 type  1   force =     0.07943264   -0.02879422   -0.00072708
     atom   59 type  1   force =    -0.07751664   -0.02357511   -0.02027074
     atom   60 type  1   force =     0.06219006   -0.05259662    0.03839943
     atom   61 type  1   force =    -0.03157234   -0.02962529    0.13769149
     atom   62 type  1   force =    -0.05042157   -0.00842679   -0.00659459
     atom   63 type  1   force =    -0.01899516   -0.02758173   -0.03333209
     atom   64 type  1   force =     0.03526416    0.01409418    0.01001994

     Total force =     0.450388     Total SCF correction =     0.001201


     Computing stress (Cartesian axis) and pressure

          total   stress  (Ry/bohr**3)                   (kbar)     P=        9.77
   0.00010252  -0.00007602   0.00000934           15.08      -11.18        1.37
  -0.00007602   0.00005702  -0.00002832          -11.18        8.39       -4.17
   0.00000934  -0.00002832   0.00003979            1.37       -4.17        5.85

 
     init_run     :      1.08s CPU      5.00s WALL (       1 calls)
     electrons    :      2.17s CPU      2.33s WALL (       1 calls)
     forces       :      0.04s CPU      0.04s WALL (       1 calls)
     stress       :      0.16s CPU      0.16s WALL (       1 calls)

     Called by init_run:
     wfcinit      :      0.54s CPU      4.27s WALL (       1 calls)
                                        4.27s GPU  (       1 calls)
     potinit      :      0.05s CPU      0.15s WALL (       1 calls)
     hinit0       :      0.47s CPU      0.50s WALL (       1 calls)

     Called by electrons:
     c_bands      :      1.25s CPU      1.32s WALL (      21 calls)
     sum_band     :      0.45s CPU      0.49s WALL (      21 calls)
     v_of_rho     :      0.21s CPU      0.32s WALL (      21 calls)
     mix_rho      :      0.21s CPU      0.23s WALL (      21 calls)

     Called by c_bands:
     init_us_2    :      0.07s CPU      0.08s WALL (      43 calls)
     init_us_2:gp :      0.07s CPU      0.08s WALL (      43 calls)
     regterg      :      1.08s CPU      1.14s WALL (      21 calls)

     Called by *egterg:
     rdiaghg      :      0.43s CPU      1.20s WALL (      92 calls)
                                        1.19s GPU  (      92 calls)
     h_psi        :      0.98s CPU      3.99s WALL (      94 calls)
                                        3.98s GPU  (      94 calls)
     g_psi        :      0.00s CPU      0.00s WALL (      72 calls)
                                        0.00s GPU  (      72 calls)

     Called by h_psi:
     h_psi:calbec :      0.51s CPU      3.43s WALL (      94 calls)
                                        3.43s GPU  (      94 calls)
     vloc_psi     :      0.42s CPU      0.49s WALL (      94 calls)
                                        0.48s GPU  (      94 calls)
     add_vuspsi   :      0.04s CPU      0.06s WALL (      94 calls)
                                        0.05s GPU  (      94 calls)

     General routines
     calbec       :      0.51s CPU      3.44s WALL (      99 calls)
     fft          :      0.65s CPU      0.80s WALL (     175 calls)
                                        0.14s GPU  (     111 calls)
     ffts         :      0.06s CPU      0.07s WALL (      21 calls)
     fftw         :      0.51s CPU      0.66s WALL (    2205 calls)
                                        0.58s GPU  (    2205 calls)
 
     Parallel routines
 
     PWSCF        :      3.49s CPU      7.62s WALL

 
   This run was terminated on:  14: 0:35  10May2023            

=------------------------------------------------------------------------------=
   JOB DONE.
=------------------------------------------------------------------------------=
