An instance of this daemon is already running
An instance of this daemon is already running

     Program PWSCF v.7.1 starts on 10May2023 at 14: 1:47 

     This program is part of the open-source Quantum ESPRESSO suite
     for quantum simulation of materials; please cite
         "P. Giannozzi et al., J. Phys.:Condens. Matter 21 395502 (2009);
         "P. Giannozzi et al., J. Phys.:Condens. Matter 29 465901 (2017);
         "P. Giannozzi et al., J. Chem. Phys. 152 154105 (2020);
          URL http://www.quantum-espresso.org", 
     in publications or presentations arising from this work. More details at
     http://www.quantum-espresso.org/quote

     Parallel version (MPI & OpenMP), running on       4 processor cores
     Number of MPI processes:                 4
     Threads/MPI process:                     1

     MPI processes distributed on     1 nodes
     752391 MiB available memory on the printing compute node when the environment starts
 
     Reading input from pw-si-27.in
Warning: card &CELL ignored
Warning: card / ignored

     Current dimensions of program PWSCF are:
     Max number of different atomic species (ntypx) = 10
     Max number of k-points (npk) =  40000
     Max angular momentum in pseudopotentials (lmaxx) =  4

     IMPORTANT: XC functional enforced from input :
     Exchange-correlation= PBE
                           (   1   4   3   4   0   0   0)
     Any further DFT definition will be discarded
     Please, verify this is what you really want


     gamma-point specific algorithms are used
 
     K-points division:     npool     =       2
     R & G space division:  proc/nbgrp/npool/nimage =       2
     Subspace diagonalization in iterative solution of the eigenvalue problem:
     a serial algorithm will be used

     Message from routine divide_et_impera:
     suboptimal parallelization: some nodes have no k-points
 
     Parallelization info
     --------------------
     sticks:   dense  smooth     PW     G-vecs:    dense   smooth      PW
     Min        2098    2098    550               102506   102506   13814
     Max        2099    2099    551               102515   102515   13819
     Sum        4197    4197   1101               205021   205021   27633
 
     Using Slab Decomposition
 


     bravais-lattice index     =            0
     lattice parameter (alat)  =      20.9765  a.u.
     unit-cell volume          =    9229.9492 (a.u.)^3
     number of atoms/cell      =           64
     number of atomic types    =            1
     number of electrons       =       256.00
     number of Kohn-Sham states=          154
     kinetic-energy cutoff     =      30.0000  Ry
     charge density cutoff     =     120.0000  Ry
     scf convergence threshold =      1.0E-06
     mixing beta               =       0.5000
     number of iterations used =            8  plain     mixing
     Exchange-correlation= PBE
                           (   1   4   3   4   0   0   0)

     GPU acceleration is ACTIVE.
     GPU-aware MPI enabled

     Message from routine print_cuda_info:
     High GPU oversubscription detected. Are you sure this is what you want?

     celldm(1)=  20.976504  celldm(2)=   0.000000  celldm(3)=   0.000000
     celldm(4)=   0.000000  celldm(5)=   0.000000  celldm(6)=   0.000000

     crystal axes: (cart. coord. in units of alat)
               a(1) = (   1.000000   0.000000   0.000000 )  
               a(2) = (   0.000000   1.000000   0.000000 )  
               a(3) = (   0.000000   0.000000   1.000000 )  

     reciprocal axes: (cart. coord. in units 2 pi/alat)
               b(1) = (  1.000000  0.000000  0.000000 )  
               b(2) = (  0.000000  1.000000  0.000000 )  
               b(3) = (  0.000000  0.000000  1.000000 )  


     PseudoPot. # 1 for Si read from file:
     /home/ppiaggi/pseudos/Si_ONCV_PBE_sr.upf
     MD5 check sum: 8553c464762ac42b85b1eed164b4d029
     Pseudo is Norm-conserving, Zval =  4.0
     Generated using ONCVPSP code by D. R. Hamann
     Using radial grid of 1510 points,  4 beta functions with: 
                l(1) =   0
                l(2) =   0
                l(3) =   1
                l(4) =   1

     atomic species   valence    mass     pseudopotential
        Si             4.00    28.08500     Si( 1.00)

     No symmetry found



   Cartesian axes

     site n.     atom                  positions (alat units)
         1           Si  tau(   1) = (   0.1957090   0.2182960   0.5912930  )
         2           Si  tau(   2) = (   0.1496180   0.0995386   0.3056710  )
         3           Si  tau(   3) = (   0.8675790   0.1140260   0.5986220  )
         4           Si  tau(   4) = (   0.3774150   0.8444960   0.0114072  )
         5           Si  tau(   5) = (   0.5473860   0.0210581   0.7872490  )
         6           Si  tau(   6) = (   0.4504880   0.3061470   0.3231330  )
         7           Si  tau(   7) = (   0.2831260   0.0242406   0.9027700  )
         8           Si  tau(   8) = (   0.5196290   0.1574360   0.0812858  )
         9           Si  tau(   9) = (   0.5457820   0.8150060   0.8577340  )
        10           Si  tau(  10) = (   0.2658510   0.2920060   0.4219410  )
        11           Si  tau(  11) = (   0.3231010   0.6948070   0.6301720  )
        12           Si  tau(  12) = (   0.8294910   0.4602720   0.2062560  )
        13           Si  tau(  13) = (   0.5957350   0.5611360   0.7757130  )
        14           Si  tau(  14) = (   0.6616120   0.1154780   0.2477260  )
        15           Si  tau(  15) = (   0.0874010   0.0481873   0.6441270  )
        16           Si  tau(  16) = (   0.5009960   0.8020730   0.6555400  )
        17           Si  tau(  17) = (   0.6175340   0.5359570   0.1263600  )
        18           Si  tau(  18) = (   0.2427480   0.2454620   0.8237080  )
        19           Si  tau(  19) = (   0.6600170   0.6009510   0.5756120  )
        20           Si  tau(  20) = (   0.1353410   0.2635160   0.1392030  )
        21           Si  tau(  21) = (   0.6252960   0.8333020   0.4917980  )
        22           Si  tau(  22) = (   0.0490986   0.9974080   0.9177270  )
        23           Si  tau(  23) = (   0.5443660   0.9543800   0.1004750  )
        24           Si  tau(  24) = (   0.7122200   0.7996630   0.0698961  )
        25           Si  tau(  25) = (   0.0585549   0.3151250   0.4135480  )
        26           Si  tau(  26) = (   0.0376183   0.4412160   0.2359220  )
        27           Si  tau(  27) = (   0.7148450   0.6285220   0.2831160  )
        28           Si  tau(  28) = (   0.3534590   0.3033090   0.1361320  )
        29           Si  tau(  29) = (   0.2632250   0.0140757   0.5385860  )
        30           Si  tau(  30) = (   0.0660469   0.5046180   0.5691380  )
        31           Si  tau(  31) = (   0.5092000   0.4164360   0.0305816  )
        32           Si  tau(  32) = (   0.9089300   0.5069750   0.8455540  )
        33           Si  tau(  33) = (   0.2054250   0.6572570   0.7866150  )
        34           Si  tau(  34) = (   0.8949550   0.5894390   0.4537270  )
        35           Si  tau(  35) = (   0.9166360   0.1524810   0.3843740  )
        36           Si  tau(  36) = (   0.1850720   0.8058360   0.3993330  )
        37           Si  tau(  37) = (   0.9158870   0.7356470   0.2893580  )
        38           Si  tau(  38) = (   0.7853940   0.1435090   0.9038970  )
        39           Si  tau(  39) = (   0.4596130   0.4475550   0.6114100  )
        40           Si  tau(  40) = (   0.0009032   0.8695340   0.5865840  )
        41           Si  tau(  41) = (   0.7842150   0.9280130   0.6295220  )
        42           Si  tau(  42) = (   0.4767760   0.6701840   0.4172990  )
        43           Si  tau(  43) = (   0.5742300   0.4689810   0.4140560  )
        44           Si  tau(  44) = (   0.9832980   0.1806690   0.9785540  )
        45           Si  tau(  45) = (   0.9822590   0.9355820   0.3636350  )
        46           Si  tau(  46) = (   0.5596240   0.9249360   0.3211740  )
        47           Si  tau(  47) = (   0.1585990   0.5844340   0.3404300  )
        48           Si  tau(  48) = (   0.4845880   0.7492780   0.1885880  )
        49           Si  tau(  49) = (   0.3040340   0.5157840   0.4936990  )
        50           Si  tau(  50) = (   0.8936800   0.4253920   0.6401360  )
        51           Si  tau(  51) = (   0.5464230   0.3047660   0.7420880  )
        52           Si  tau(  52) = (   0.7328900   0.2955380   0.6433810  )
        53           Si  tau(  53) = (   0.9944440   0.8835310   0.1299910  )
        54           Si  tau(  54) = (   0.4315360   0.1747410   0.8612490  )
        55           Si  tau(  55) = (   0.3845350   0.6158750   0.9179550  )
        56           Si  tau(  56) = (   0.3114390   0.4198530   0.9626950  )
        57           Si  tau(  57) = (   0.8548580   0.9013880   0.9299550  )
        58           Si  tau(  58) = (   0.0240853   0.6743390   0.9116600  )
        59           Si  tau(  59) = (   0.3562480   0.8675810   0.3005450  )
        60           Si  tau(  60) = (   0.0533803   0.3405970   0.7446490  )
        61           Si  tau(  61) = (   0.2119150   0.8752930   0.1315560  )
        62           Si  tau(  62) = (   0.7424270   0.3163440   0.3949850  )
        63           Si  tau(  63) = (   0.7888930   0.6614530   0.7817390  )
        64           Si  tau(  64) = (   0.7345480   0.4079870   0.0250555  )

     number of k points=     1  Fermi-Dirac smearing, width (Ry)=  0.0100
                       cart. coord. in units 2pi/alat
        k(    1) = (   0.0000000   0.0000000   0.0000000), wk =   2.0000000

     Dense  grid:   102511 G-vectors     FFT dimensions: (  75,  75,  75)

     Estimated max dynamical RAM per process >     164.27 MB

     Estimated total dynamical RAM >     632.05 MB

     Initial potential from superposition of free atoms

     starting charge     255.9608, renormalised to     256.0000
     Starting wfcs are  256 randomized atomic wfcs

     total cpu time spent up to now is        4.7 secs

     Self-consistent Calculation

     iteration #  1     ecut=    30.00 Ry     beta= 0.50
     Davidson diagonalization with overlap
     ethr =  1.00E-02,  avg # of iterations =  3.0

     Threshold (ethr) on eigenvalues was too large:
     Diagonalizing with lowered threshold

     Davidson diagonalization with overlap
     ethr =  6.41E-04,  avg # of iterations =  4.0

     total cpu time spent up to now is        5.1 secs

     total energy              =    -500.07761090 Ry
     estimated scf accuracy    <       2.08610824 Ry

     iteration #  2     ecut=    30.00 Ry     beta= 0.50
     Davidson diagonalization with overlap
     ethr =  8.15E-04,  avg # of iterations =  3.0

     total cpu time spent up to now is        5.2 secs

     total energy              =    -499.27399911 Ry
     estimated scf accuracy    <      10.78109006 Ry

     iteration #  3     ecut=    30.00 Ry     beta= 0.50
     Davidson diagonalization with overlap
     ethr =  8.15E-04,  avg # of iterations =  5.0

     total cpu time spent up to now is        5.4 secs

     total energy              =    -500.22208180 Ry
     estimated scf accuracy    <       4.92585329 Ry

     iteration #  4     ecut=    30.00 Ry     beta= 0.50
     Davidson diagonalization with overlap
     ethr =  8.15E-04,  avg # of iterations =  3.0

     total cpu time spent up to now is        5.5 secs

     total energy              =    -500.55169319 Ry
     estimated scf accuracy    <       1.02089323 Ry

     iteration #  5     ecut=    30.00 Ry     beta= 0.50
     Davidson diagonalization with overlap
     ethr =  3.99E-04,  avg # of iterations =  2.0

     total cpu time spent up to now is        5.6 secs

     total energy              =    -500.60655377 Ry
     estimated scf accuracy    <       0.79353006 Ry

     iteration #  6     ecut=    30.00 Ry     beta= 0.50
     Davidson diagonalization with overlap
     ethr =  3.10E-04,  avg # of iterations =  2.0

     total cpu time spent up to now is        5.7 secs

     total energy              =    -500.66896608 Ry
     estimated scf accuracy    <       0.17772074 Ry

     iteration #  7     ecut=    30.00 Ry     beta= 0.50
     Davidson diagonalization with overlap
     ethr =  6.94E-05,  avg # of iterations =  2.0

     total cpu time spent up to now is        5.8 secs

     total energy              =    -500.68254071 Ry
     estimated scf accuracy    <       0.12638653 Ry

     iteration #  8     ecut=    30.00 Ry     beta= 0.50
     Davidson diagonalization with overlap
     ethr =  4.94E-05,  avg # of iterations =  2.0

     total cpu time spent up to now is        6.0 secs

     total energy              =    -500.69270205 Ry
     estimated scf accuracy    <       0.03519581 Ry

     iteration #  9     ecut=    30.00 Ry     beta= 0.50
     Davidson diagonalization with overlap
     ethr =  1.37E-05,  avg # of iterations = 10.0

     total cpu time spent up to now is        6.1 secs

     total energy              =    -500.69551927 Ry
     estimated scf accuracy    <       0.01232375 Ry

     iteration # 10     ecut=    30.00 Ry     beta= 0.50
     Davidson diagonalization with overlap
     ethr =  4.81E-06,  avg # of iterations =  9.0

     total cpu time spent up to now is        6.3 secs

     total energy              =    -500.69670342 Ry
     estimated scf accuracy    <       0.00705099 Ry

     iteration # 11     ecut=    30.00 Ry     beta= 0.50
     Davidson diagonalization with overlap
     ethr =  2.75E-06,  avg # of iterations =  2.0

     total cpu time spent up to now is        6.4 secs

     total energy              =    -500.69723331 Ry
     estimated scf accuracy    <       0.00064482 Ry

     iteration # 12     ecut=    30.00 Ry     beta= 0.50
     Davidson diagonalization with overlap
     ethr =  2.52E-07,  avg # of iterations =  5.0

     total cpu time spent up to now is        6.6 secs

     total energy              =    -500.69721475 Ry
     estimated scf accuracy    <       0.00245578 Ry

     iteration # 13     ecut=    30.00 Ry     beta= 0.50
     Davidson diagonalization with overlap
     ethr =  2.52E-07,  avg # of iterations =  3.0

     total cpu time spent up to now is        6.7 secs

     total energy              =    -500.69741991 Ry
     estimated scf accuracy    <       0.00033638 Ry

     iteration # 14     ecut=    30.00 Ry     beta= 0.50
     Davidson diagonalization with overlap
     ethr =  1.31E-07,  avg # of iterations =  2.0

     total cpu time spent up to now is        6.8 secs

     total energy              =    -500.69744329 Ry
     estimated scf accuracy    <       0.00007166 Ry

     iteration # 15     ecut=    30.00 Ry     beta= 0.50
     Davidson diagonalization with overlap
     ethr =  2.80E-08,  avg # of iterations =  4.0

     total cpu time spent up to now is        7.0 secs

     total energy              =    -500.69744658 Ry
     estimated scf accuracy    <       0.00013122 Ry

     iteration # 16     ecut=    30.00 Ry     beta= 0.50
     Davidson diagonalization with overlap
     ethr =  2.80E-08,  avg # of iterations =  3.0

     total cpu time spent up to now is        7.1 secs

     total energy              =    -500.69745451 Ry
     estimated scf accuracy    <       0.00002870 Ry

     iteration # 17     ecut=    30.00 Ry     beta= 0.50
     Davidson diagonalization with overlap
     ethr =  1.12E-08,  avg # of iterations =  2.0

     total cpu time spent up to now is        7.2 secs

     total energy              =    -500.69745601 Ry
     estimated scf accuracy    <       0.00004102 Ry

     iteration # 18     ecut=    30.00 Ry     beta= 0.50
     Davidson diagonalization with overlap
     ethr =  1.12E-08,  avg # of iterations =  2.0

     total cpu time spent up to now is        7.3 secs

     total energy              =    -500.69745884 Ry
     estimated scf accuracy    <       0.00000662 Ry

     iteration # 19     ecut=    30.00 Ry     beta= 0.50
     Davidson diagonalization with overlap
     ethr =  2.59E-09,  avg # of iterations =  2.0

     total cpu time spent up to now is        7.5 secs

     total energy              =    -500.69745925 Ry
     estimated scf accuracy    <       0.00000237 Ry

     iteration # 20     ecut=    30.00 Ry     beta= 0.50
     Davidson diagonalization with overlap
     ethr =  9.26E-10,  avg # of iterations =  3.0

     total cpu time spent up to now is        7.6 secs

     total energy              =    -500.69745953 Ry
     estimated scf accuracy    <       0.00000247 Ry

     iteration # 21     ecut=    30.00 Ry     beta= 0.50
     Davidson diagonalization with overlap
     ethr =  9.26E-10,  avg # of iterations =  2.0

     total cpu time spent up to now is        7.7 secs

     total energy              =    -500.69745958 Ry
     estimated scf accuracy    <       0.00000168 Ry

     iteration # 22     ecut=    30.00 Ry     beta= 0.50
     Davidson diagonalization with overlap
     ethr =  6.57E-10,  avg # of iterations =  1.0

     total cpu time spent up to now is        7.8 secs

     End of self-consistent calculation

          k = 0.0000 0.0000 0.0000 ( 12839 PWs)   bands (ev):

    -6.7371  -6.2647  -6.0069  -5.8885  -5.6608  -5.4901  -5.2241  -4.9373
    -4.8791  -4.7626  -4.6634  -4.5974  -4.4670  -4.2606  -4.1213  -4.0524
    -3.8782  -3.7794  -3.7255  -3.5599  -3.3968  -3.2051  -3.0430  -2.9355
    -2.7818  -2.6883  -2.5257  -2.4511  -2.3046  -2.1849  -2.0729  -1.9689
    -1.8691  -1.7108  -1.6136  -1.5016  -1.3569  -1.2879  -1.1103  -1.0814
    -0.9721  -0.8702  -0.8028  -0.7204  -0.5667  -0.5293  -0.4873  -0.3793
    -0.2771  -0.1738   0.0068   0.1188   0.1642   0.2360   0.4171   0.4734
     0.6057   0.7912   0.8176   0.9031   0.9552   1.0509   1.2628   1.3863
     1.4336   1.5150   1.5900   1.6620   1.7389   1.8496   2.0527   2.0855
     2.1202   2.1794   2.2896   2.3414   2.4480   2.4911   2.5440   2.6281
     2.6846   2.7249   2.7776   2.8723   2.9741   3.0337   3.1035   3.2004
     3.2721   3.3421   3.4258   3.4557   3.5583   3.6100   3.7014   3.7891
     3.8500   3.9268   4.0086   4.0619   4.1108   4.1717   4.2033   4.2183
     4.3495   4.4236   4.4481   4.5311   4.5634   4.6447   4.6847   4.7642
     4.8426   4.9643   4.9773   5.0061   5.0712   5.1042   5.1890   5.2810
     5.3127   5.3426   5.3996   5.4651   5.5240   5.5727   5.6092   5.6395
     5.7218   5.7579   5.8299   5.9104   5.9599   6.0187   6.0964   6.1562
     6.1778   6.2436   6.3216   6.3762   6.3956   6.4499   6.5578   6.6360
     6.6812   6.7087   6.7601   6.8527   6.9086   6.9257   7.0779   7.1210
     7.1671   7.2177

     the Fermi energy is     5.7010 ev

!    total energy              =    -500.69745949 Ry
     estimated scf accuracy    <       0.00000031 Ry
     smearing contrib. (-TS)   =      -0.16095996 Ry
     internal energy E=F+TS    =    -500.53649953 Ry

     The total energy is F=E-TS. E is the sum of the following terms:
     one-electron contribution =      94.42974616 Ry
     hartree contribution      =      57.73796774 Ry
     xc contribution           =    -149.81212516 Ry
     ewald contribution        =    -502.89208828 Ry

     convergence has been achieved in  22 iterations

     Forces acting on atoms (cartesian axes, Ry/au):

     atom    1 type  1   force =    -0.00196719   -0.00006921    0.08421477
     atom    2 type  1   force =    -0.00068699    0.00041301    0.00196908
     atom    3 type  1   force =     0.01278969    0.03110907   -0.01142263
     atom    4 type  1   force =     0.03956381   -0.01290142   -0.04452464
     atom    5 type  1   force =     0.03664271   -0.04561700   -0.00731714
     atom    6 type  1   force =     0.02706218    0.00148390   -0.00558747
     atom    7 type  1   force =    -0.04850377   -0.02305711    0.00789702
     atom    8 type  1   force =    -0.02367453    0.06102582   -0.01690986
     atom    9 type  1   force =     0.00978708    0.00772567    0.06186079
     atom   10 type  1   force =     0.03304396    0.01111480   -0.04608594
     atom   11 type  1   force =     0.00871312    0.00008759   -0.06575809
     atom   12 type  1   force =    -0.00729242   -0.01901472    0.05157423
     atom   13 type  1   force =    -0.03751188   -0.02501964    0.00799790
     atom   14 type  1   force =    -0.01190150    0.02599610    0.01515357
     atom   15 type  1   force =    -0.04792673    0.02208489    0.05540368
     atom   16 type  1   force =    -0.01096399    0.00280289   -0.00643633
     atom   17 type  1   force =     0.01333603    0.12701969    0.04814226
     atom   18 type  1   force =    -0.03793688    0.01447347   -0.01226636
     atom   19 type  1   force =     0.00992419    0.03326752   -0.01059256
     atom   20 type  1   force =    -0.02173149   -0.00925269    0.01051476
     atom   21 type  1   force =     0.03756713   -0.04522325    0.04921534
     atom   22 type  1   force =     0.04657749   -0.01696808   -0.01020660
     atom   23 type  1   force =     0.01963192   -0.03721094   -0.01623016
     atom   24 type  1   force =    -0.02021351   -0.00143969   -0.02298677
     atom   25 type  1   force =    -0.02210827    0.02744049    0.00836990
     atom   26 type  1   force =     0.03090178   -0.02263981   -0.00553327
     atom   27 type  1   force =     0.02195083    0.03298026    0.03296210
     atom   28 type  1   force =    -0.01590193   -0.04434939    0.01501294
     atom   29 type  1   force =     0.02231352   -0.00829572   -0.03651268
     atom   30 type  1   force =     0.06818163    0.00251574   -0.03634686
     atom   31 type  1   force =    -0.01512723   -0.08669021   -0.07161930
     atom   32 type  1   force =     0.00190573   -0.04062311    0.02665796
     atom   33 type  1   force =    -0.02393812   -0.01297805    0.04517162
     atom   34 type  1   force =    -0.00233981   -0.00047948   -0.00277329
     atom   35 type  1   force =    -0.01763139    0.00300141    0.00839065
     atom   36 type  1   force =    -0.04725778   -0.02986094    0.03124623
     atom   37 type  1   force =     0.00306510   -0.00581632   -0.01363473
     atom   38 type  1   force =     0.00099822   -0.00461193    0.00238229
     atom   39 type  1   force =     0.04460575    0.00415136    0.00493135
     atom   40 type  1   force =    -0.01986040   -0.03416593   -0.04538602
     atom   41 type  1   force =    -0.01831697   -0.03496329    0.01069660
     atom   42 type  1   force =    -0.00168420    0.00031472   -0.00656940
     atom   43 type  1   force =    -0.00923139   -0.01634559    0.00796046
     atom   44 type  1   force =     0.00710251    0.03955613    0.00668144
     atom   45 type  1   force =     0.02484599   -0.00149868    0.00338926
     atom   46 type  1   force =    -0.01242792    0.03914043   -0.05412198
     atom   47 type  1   force =    -0.02887143    0.03121972    0.02473283
     atom   48 type  1   force =     0.03959418   -0.03609788   -0.00187776
     atom   49 type  1   force =    -0.02974722    0.01784346   -0.01535770
     atom   50 type  1   force =    -0.05702186    0.01687224    0.01366235
     atom   51 type  1   force =     0.01582245    0.03543590    0.00198568
     atom   52 type  1   force =     0.01453836   -0.04506989   -0.03448155
     atom   53 type  1   force =     0.01064320   -0.01425139   -0.00309120
     atom   54 type  1   force =     0.05127476    0.00682904    0.03475991
     atom   55 type  1   force =     0.00595629    0.02638923   -0.01392021
     atom   56 type  1   force =    -0.03384951   -0.01389719   -0.03398948
     atom   57 type  1   force =     0.00391622   -0.00079996   -0.00447425
     atom   58 type  1   force =     0.00449528    0.01754951    0.00302106
     atom   59 type  1   force =    -0.04117321    0.03194347    0.01562754
     atom   60 type  1   force =     0.01396079   -0.01751949    0.02944246
     atom   61 type  1   force =    -0.02826577    0.03423520    0.03513452
     atom   62 type  1   force =     0.00832992    0.00003913   -0.01177705
     atom   63 type  1   force =    -0.03419641    0.04460977   -0.00972174
     atom   64 type  1   force =     0.04021985   -0.04394365   -0.07864952

     Total force =     0.423110     Total SCF correction =     0.001059


     Computing stress (Cartesian axis) and pressure

          total   stress  (Ry/bohr**3)                   (kbar)     P=      -15.97
  -0.00007079   0.00001953  -0.00004098          -10.41        2.87       -6.03
   0.00001953  -0.00012711  -0.00002362            2.87      -18.70       -3.47
  -0.00004098  -0.00002362  -0.00012769           -6.03       -3.47      -18.78

 
     init_run     :      0.77s CPU      4.67s WALL (       1 calls)
     electrons    :      2.87s CPU      3.06s WALL (       1 calls)
     forces       :      0.04s CPU      0.04s WALL (       1 calls)
     stress       :      0.18s CPU      0.18s WALL (       1 calls)

     Called by init_run:
     wfcinit      :      0.56s CPU      4.29s WALL (       1 calls)
                                        4.29s GPU  (       1 calls)
     potinit      :      0.05s CPU      0.14s WALL (       1 calls)
     hinit0       :      0.14s CPU      0.17s WALL (       1 calls)

     Called by electrons:
     c_bands      :      1.65s CPU      1.73s WALL (      23 calls)
     sum_band     :      0.62s CPU      0.68s WALL (      23 calls)
     v_of_rho     :      0.25s CPU      0.36s WALL (      23 calls)
     mix_rho      :      0.27s CPU      0.29s WALL (      23 calls)

     Called by c_bands:
     init_us_2    :      0.08s CPU      0.09s WALL (      47 calls)
     init_us_2:gp :      0.08s CPU      0.09s WALL (      47 calls)
     regterg      :      1.45s CPU      1.52s WALL (      23 calls)

     Called by *egterg:
     rdiaghg      :      0.44s CPU      1.22s WALL (      98 calls)
                                        1.20s GPU  (      98 calls)
     h_psi        :      1.35s CPU      4.35s WALL (     100 calls)
                                        4.35s GPU  (     100 calls)
     g_psi        :      0.00s CPU      0.00s WALL (      76 calls)
                                        0.00s GPU  (      76 calls)

     Called by h_psi:
     h_psi:calbec :      0.53s CPU      3.43s WALL (     100 calls)
                                        3.43s GPU  (     100 calls)
     vloc_psi     :      0.76s CPU      0.85s WALL (     100 calls)
                                        0.84s GPU  (     100 calls)
     add_vuspsi   :      0.04s CPU      0.06s WALL (     100 calls)
                                        0.06s GPU  (     100 calls)

     General routines
     calbec       :      0.53s CPU      3.44s WALL (     105 calls)
     fft          :      0.40s CPU      0.54s WALL (     191 calls)
                                        0.13s GPU  (     121 calls)
     ffts         :      0.09s CPU      0.10s WALL (      23 calls)
     fftw         :      0.84s CPU      1.09s WALL (    2407 calls)
                                        0.98s GPU  (    2407 calls)
 
     Parallel routines
 
     PWSCF        :      3.90s CPU      8.05s WALL

 
   This run was terminated on:  14: 1:55  10May2023            

=------------------------------------------------------------------------------=
   JOB DONE.
=------------------------------------------------------------------------------=
