An instance of this daemon is already running

     Program PWSCF v.7.1 starts on 10May2023 at 14:12:47 

     This program is part of the open-source Quantum ESPRESSO suite
     for quantum simulation of materials; please cite
         "P. Giannozzi et al., J. Phys.:Condens. Matter 21 395502 (2009);
         "P. Giannozzi et al., J. Phys.:Condens. Matter 29 465901 (2017);
         "P. Giannozzi et al., J. Chem. Phys. 152 154105 (2020);
          URL http://www.quantum-espresso.org", 
     in publications or presentations arising from this work. More details at
     http://www.quantum-espresso.org/quote

     Parallel version (MPI & OpenMP), running on       4 processor cores
     Number of MPI processes:                 4
     Threads/MPI process:                     1

     MPI processes distributed on     1 nodes
     752767 MiB available memory on the printing compute node when the environment starts
 
     Reading input from pw-si-91.in
Warning: card &CELL ignored
Warning: card / ignored

     Current dimensions of program PWSCF are:
     Max number of different atomic species (ntypx) = 10
     Max number of k-points (npk) =  40000
     Max angular momentum in pseudopotentials (lmaxx) =  4

     IMPORTANT: XC functional enforced from input :
     Exchange-correlation= PBE
                           (   1   4   3   4   0   0   0)
     Any further DFT definition will be discarded
     Please, verify this is what you really want


     gamma-point specific algorithms are used
 
     K-points division:     npool     =       2
     R & G space division:  proc/nbgrp/npool/nimage =       2
     Subspace diagonalization in iterative solution of the eigenvalue problem:
     a serial algorithm will be used

     Message from routine divide_et_impera:
     suboptimal parallelization: some nodes have no k-points
 
     Parallelization info
     --------------------
     sticks:   dense  smooth     PW     G-vecs:    dense   smooth      PW
     Min        2242    2242    591               112766   112766   15273
     Max        2243    2243    594               112769   112769   15278
     Sum        4485    4485   1185               225535   225535   30551
 
     Using Slab Decomposition
 


     bravais-lattice index     =            0
     lattice parameter (alat)  =      21.6562  a.u.
     unit-cell volume          =   10156.5901 (a.u.)^3
     number of atoms/cell      =           64
     number of atomic types    =            1
     number of electrons       =       256.00
     number of Kohn-Sham states=          154
     kinetic-energy cutoff     =      30.0000  Ry
     charge density cutoff     =     120.0000  Ry
     scf convergence threshold =      1.0E-06
     mixing beta               =       0.5000
     number of iterations used =            8  plain     mixing
     Exchange-correlation= PBE
                           (   1   4   3   4   0   0   0)

     GPU acceleration is ACTIVE.
     GPU-aware MPI enabled

     Message from routine print_cuda_info:
     High GPU oversubscription detected. Are you sure this is what you want?

     celldm(1)=  21.656219  celldm(2)=   0.000000  celldm(3)=   0.000000
     celldm(4)=   0.000000  celldm(5)=   0.000000  celldm(6)=   0.000000

     crystal axes: (cart. coord. in units of alat)
               a(1) = (   1.000000   0.000000   0.000000 )  
               a(2) = (   0.000000   1.000000   0.000000 )  
               a(3) = (   0.000000   0.000000   1.000000 )  

     reciprocal axes: (cart. coord. in units 2 pi/alat)
               b(1) = (  1.000000  0.000000  0.000000 )  
               b(2) = (  0.000000  1.000000  0.000000 )  
               b(3) = (  0.000000  0.000000  1.000000 )  


     PseudoPot. # 1 for Si read from file:
     /home/ppiaggi/pseudos/Si_ONCV_PBE_sr.upf
     MD5 check sum: 8553c464762ac42b85b1eed164b4d029
     Pseudo is Norm-conserving, Zval =  4.0
     Generated using ONCVPSP code by D. R. Hamann
     Using radial grid of 1510 points,  4 beta functions with: 
                l(1) =   0
                l(2) =   0
                l(3) =   1
                l(4) =   1

     atomic species   valence    mass     pseudopotential
        Si             4.00    28.08500     Si( 1.00)

     No symmetry found



   Cartesian axes

     site n.     atom                  positions (alat units)
         1           Si  tau(   1) = (   0.2930840   0.1430760   0.8335050  )
         2           Si  tau(   2) = (   0.0751229   0.1231530   0.2803440  )
         3           Si  tau(   3) = (   0.8408070   0.0687922   0.7071170  )
         4           Si  tau(   4) = (   0.4511280   0.6159760   0.0282789  )
         5           Si  tau(   5) = (   0.5878180   0.9294810   0.4701740  )
         6           Si  tau(   6) = (   0.3660070   0.2447880   0.4461630  )
         7           Si  tau(   7) = (   0.4501040   0.9440140   0.8737630  )
         8           Si  tau(   8) = (   0.7790720   0.4151170   0.1544520  )
         9           Si  tau(   9) = (   0.6332940   0.0072171   0.9578100  )
        10           Si  tau(  10) = (   0.2728950   0.3416670   0.6212650  )
        11           Si  tau(  11) = (   0.2725840   0.5448880   0.6566420  )
        12           Si  tau(  12) = (   0.9369930   0.4214960   0.2927360  )
        13           Si  tau(  13) = (   0.6307650   0.4214980   0.6954900  )
        14           Si  tau(  14) = (   0.6336480   0.7443150   0.3593090  )
        15           Si  tau(  15) = (   0.0655216   0.0279566   0.6620200  )
        16           Si  tau(  16) = (   0.4903230   0.7420330   0.5301380  )
        17           Si  tau(  17) = (   0.5535020   0.7567110   0.1696660  )
        18           Si  tau(  18) = (   0.3567410   0.0456094   0.6635490  )
        19           Si  tau(  19) = (   0.6158370   0.5905910   0.5319520  )
        20           Si  tau(  20) = (   0.2177170   0.1955690   0.1451490  )
        21           Si  tau(  21) = (   0.7293280   0.9157280   0.3299320  )
        22           Si  tau(  22) = (   0.1000210   0.0583458   0.0904709  )
        23           Si  tau(  23) = (   0.6589280   0.2649380   0.1971910  )
        24           Si  tau(  24) = (   0.5796910   0.2186900   0.0050706  )
        25           Si  tau(  25) = (   0.1838720   0.1626560   0.5326860  )
        26           Si  tau(  26) = (   0.0712065   0.5939280   0.2469080  )
        27           Si  tau(  27) = (   0.9773900   0.7263770   0.4156510  )
        28           Si  tau(  28) = (   0.4027730   0.2538180   0.2400500  )
        29           Si  tau(  29) = (   0.0658582   0.0277163   0.4566020  )
        30           Si  tau(  30) = (   0.0689848   0.4824970   0.4235280  )
        31           Si  tau(  31) = (   0.4220980   0.3946890   0.0463438  )
        32           Si  tau(  32) = (   0.8836430   0.5746270   0.9339230  )
        33           Si  tau(  33) = (   0.1738860   0.3984330   0.8049190  )
        34           Si  tau(  34) = (   0.8595300   0.5478270   0.4865120  )
        35           Si  tau(  35) = (   0.0452545   0.2708770   0.3994500  )
        36           Si  tau(  36) = (   0.1499840   0.8149080   0.4284810  )
        37           Si  tau(  37) = (   0.7132670   0.8803730   0.1016920  )
        38           Si  tau(  38) = (   0.9108990   0.3740560   0.9804960  )
        39           Si  tau(  39) = (   0.4784810   0.5496800   0.6549820  )
        40           Si  tau(  40) = (   0.9308120   0.9190690   0.5775080  )
        41           Si  tau(  41) = (   0.7592390   0.0498905   0.5085750  )
        42           Si  tau(  42) = (   0.3289030   0.7352980   0.3951940  )
        43           Si  tau(  43) = (   0.5371630   0.3983090   0.5264310  )
        44           Si  tau(  44) = (   0.8908430   0.9789000   0.0399522  )
        45           Si  tau(  45) = (   0.9720370   0.7625040   0.9758580  )
        46           Si  tau(  46) = (   0.5482910   0.0874206   0.2471330  )
        47           Si  tau(  47) = (   0.1585780   0.6662300   0.0224979  )
        48           Si  tau(  48) = (   0.3521290   0.7854030   0.0635222  )
        49           Si  tau(  49) = (   0.1611100   0.6479700   0.5197300  )
        50           Si  tau(  50) = (   0.7970940   0.4255890   0.8227980  )
        51           Si  tau(  51) = (   0.5907230   0.0576089   0.7605570  )
        52           Si  tau(  52) = (   0.7044520   0.2157080   0.6874780  )
        53           Si  tau(  53) = (   0.0923133   0.9619790   0.9091820  )
        54           Si  tau(  54) = (   0.5212450   0.8857430   0.6814260  )
        55           Si  tau(  55) = (   0.2738220   0.4919140   0.9459480  )
        56           Si  tau(  56) = (   0.3928850   0.1363360   0.0577356  )
        57           Si  tau(  57) = (   0.7762360   0.1450970   0.0234720  )
        58           Si  tau(  58) = (   0.1243040   0.5930900   0.8223290  )
        59           Si  tau(  59) = (   0.2459910   0.6896850   0.2221610  )
        60           Si  tau(  60) = (   0.9865280   0.4563190   0.7970010  )
        61           Si  tau(  61) = (   0.2681890   0.9614390   0.9806070  )
        62           Si  tau(  62) = (   0.5445280   0.3415030   0.3451260  )
        63           Si  tau(  63) = (   0.8500580   0.6566630   0.1222280  )
        64           Si  tau(  64) = (   0.6266970   0.5751360   0.1090340  )

     number of k points=     1  Fermi-Dirac smearing, width (Ry)=  0.0100
                       cart. coord. in units 2pi/alat
        k(    1) = (   0.0000000   0.0000000   0.0000000), wk =   2.0000000

     Dense  grid:   112768 G-vectors     FFT dimensions: (  75,  75,  75)

     Estimated max dynamical RAM per process >     178.96 MB

     Estimated total dynamical RAM >     688.30 MB

     Initial potential from superposition of free atoms

     starting charge     255.9608, renormalised to     256.0000
     Starting wfcs are  256 randomized atomic wfcs

     total cpu time spent up to now is        4.5 secs

     Self-consistent Calculation

     iteration #  1     ecut=    30.00 Ry     beta= 0.50
     Davidson diagonalization with overlap
     ethr =  1.00E-02,  avg # of iterations =  3.0

     Threshold (ethr) on eigenvalues was too large:
     Diagonalizing with lowered threshold

     Davidson diagonalization with overlap
     ethr =  7.27E-04,  avg # of iterations =  4.0

     total cpu time spent up to now is        4.8 secs

     total energy              =    -499.78524421 Ry
     estimated scf accuracy    <       2.41400550 Ry

     iteration #  2     ecut=    30.00 Ry     beta= 0.50
     Davidson diagonalization with overlap
     ethr =  9.43E-04,  avg # of iterations =  4.0

     total cpu time spent up to now is        5.0 secs

     total energy              =    -499.18284672 Ry
     estimated scf accuracy    <       6.41148036 Ry

     iteration #  3     ecut=    30.00 Ry     beta= 0.50
     Davidson diagonalization with overlap
     ethr =  9.43E-04,  avg # of iterations =  5.0

     total cpu time spent up to now is        5.1 secs

     total energy              =    -499.77347388 Ry
     estimated scf accuracy    <       7.39347675 Ry

     iteration #  4     ecut=    30.00 Ry     beta= 0.50
     Davidson diagonalization with overlap
     ethr =  9.43E-04,  avg # of iterations =  3.0

     total cpu time spent up to now is        5.3 secs

     total energy              =    -500.21832867 Ry
     estimated scf accuracy    <       1.05076324 Ry

     iteration #  5     ecut=    30.00 Ry     beta= 0.50
     Davidson diagonalization with overlap
     ethr =  4.10E-04,  avg # of iterations =  3.0

     total cpu time spent up to now is        5.4 secs

     total energy              =    -500.30724919 Ry
     estimated scf accuracy    <       0.68368605 Ry

     iteration #  6     ecut=    30.00 Ry     beta= 0.50
     Davidson diagonalization with overlap
     ethr =  2.67E-04,  avg # of iterations =  2.0

     total cpu time spent up to now is        5.5 secs

     total energy              =    -500.36077878 Ry
     estimated scf accuracy    <       0.12819425 Ry

     iteration #  7     ecut=    30.00 Ry     beta= 0.50
     Davidson diagonalization with overlap
     ethr =  5.01E-05,  avg # of iterations =  3.0

     total cpu time spent up to now is        5.6 secs

     total energy              =    -500.37090258 Ry
     estimated scf accuracy    <       0.13526406 Ry

     iteration #  8     ecut=    30.00 Ry     beta= 0.50
     Davidson diagonalization with overlap
     ethr =  5.01E-05,  avg # of iterations =  2.0

     total cpu time spent up to now is        5.8 secs

     total energy              =    -500.38134377 Ry
     estimated scf accuracy    <       0.02925066 Ry

     iteration #  9     ecut=    30.00 Ry     beta= 0.50
     Davidson diagonalization with overlap
     ethr =  1.14E-05,  avg # of iterations = 14.0

     total cpu time spent up to now is        5.9 secs

     total energy              =    -500.38382109 Ry
     estimated scf accuracy    <       0.01363185 Ry

     iteration # 10     ecut=    30.00 Ry     beta= 0.50
     Davidson diagonalization with overlap
     ethr =  5.32E-06,  avg # of iterations =  3.0

     total cpu time spent up to now is        6.1 secs

     total energy              =    -500.38500789 Ry
     estimated scf accuracy    <       0.00711317 Ry

     iteration # 11     ecut=    30.00 Ry     beta= 0.50
     Davidson diagonalization with overlap
     ethr =  2.78E-06,  avg # of iterations =  7.0

     total cpu time spent up to now is        6.2 secs

     total energy              =    -500.38565671 Ry
     estimated scf accuracy    <       0.00074468 Ry

     iteration # 12     ecut=    30.00 Ry     beta= 0.50
     Davidson diagonalization with overlap
     ethr =  2.91E-07,  avg # of iterations =  4.0

     total cpu time spent up to now is        6.4 secs

     total energy              =    -500.38577209 Ry
     estimated scf accuracy    <       0.00042762 Ry

     iteration # 13     ecut=    30.00 Ry     beta= 0.50
     Davidson diagonalization with overlap
     ethr =  1.67E-07,  avg # of iterations =  3.0

     total cpu time spent up to now is        6.5 secs

     total energy              =    -500.38580645 Ry
     estimated scf accuracy    <       0.00033098 Ry

     iteration # 14     ecut=    30.00 Ry     beta= 0.50
     Davidson diagonalization with overlap
     ethr =  1.29E-07,  avg # of iterations =  2.0

     total cpu time spent up to now is        6.6 secs

     total energy              =    -500.38582778 Ry
     estimated scf accuracy    <       0.00011002 Ry

     iteration # 15     ecut=    30.00 Ry     beta= 0.50
     Davidson diagonalization with overlap
     ethr =  4.30E-08,  avg # of iterations =  3.0

     total cpu time spent up to now is        6.8 secs

     total energy              =    -500.38583732 Ry
     estimated scf accuracy    <       0.00010175 Ry

     iteration # 16     ecut=    30.00 Ry     beta= 0.50
     Davidson diagonalization with overlap
     ethr =  3.97E-08,  avg # of iterations =  2.0

     total cpu time spent up to now is        6.9 secs

     total energy              =    -500.38584416 Ry
     estimated scf accuracy    <       0.00002015 Ry

     iteration # 17     ecut=    30.00 Ry     beta= 0.50
     Davidson diagonalization with overlap
     ethr =  7.87E-09,  avg # of iterations =  2.0

     total cpu time spent up to now is        7.0 secs

     total energy              =    -500.38584589 Ry
     estimated scf accuracy    <       0.00002478 Ry

     iteration # 18     ecut=    30.00 Ry     beta= 0.50
     Davidson diagonalization with overlap
     ethr =  7.87E-09,  avg # of iterations =  2.0

     total cpu time spent up to now is        7.1 secs

     total energy              =    -500.38584768 Ry
     estimated scf accuracy    <       0.00000514 Ry

     iteration # 19     ecut=    30.00 Ry     beta= 0.50
     Davidson diagonalization with overlap
     ethr =  2.01E-09,  avg # of iterations =  2.0

     total cpu time spent up to now is        7.3 secs

     total energy              =    -500.38584801 Ry
     estimated scf accuracy    <       0.00000316 Ry

     iteration # 20     ecut=    30.00 Ry     beta= 0.50
     Davidson diagonalization with overlap
     ethr =  1.24E-09,  avg # of iterations =  2.0

     total cpu time spent up to now is        7.4 secs

     total energy              =    -500.38584834 Ry
     estimated scf accuracy    <       0.00000288 Ry

     iteration # 21     ecut=    30.00 Ry     beta= 0.50
     Davidson diagonalization with overlap
     ethr =  1.12E-09,  avg # of iterations =  1.0

     total cpu time spent up to now is        7.5 secs

     End of self-consistent calculation

          k = 0.0000 0.0000 0.0000 ( 14129 PWs)   bands (ev):

    -8.0093  -7.7345  -7.4684  -7.3232  -7.0120  -6.9813  -6.8633  -6.6612
    -6.6057  -6.3244  -6.2427  -5.9977  -5.8312  -5.5830  -5.5063  -5.3998
    -5.1565  -5.0531  -4.9016  -4.7572  -4.5311  -4.3355  -4.2643  -3.9801
    -3.9659  -3.7207  -3.6152  -3.5254  -3.4577  -3.2843  -3.1282  -2.9741
    -2.9535  -2.8104  -2.7749  -2.5212  -2.5154  -2.4152  -2.2542  -2.1338
    -2.0399  -1.9737  -1.7819  -1.7114  -1.7066  -1.5941  -1.4016  -1.3582
    -1.2732  -1.1587  -1.0049  -0.9724  -0.8167  -0.6303  -0.5130  -0.4253
    -0.3298  -0.2453  -0.0452  -0.0091   0.0867   0.2124   0.2670   0.4393
     0.5332   0.5992   0.6874   0.8207   0.8623   0.8773   0.9423   1.0320
     1.1081   1.2476   1.2850   1.3287   1.4524   1.5033   1.5145   1.5392
     1.6052   1.6475   1.7911   1.8248   1.8547   1.9264   2.0860   2.1153
     2.1477   2.2264   2.3719   2.4374   2.4984   2.5796   2.6143   2.6771
     2.7359   2.8027   2.9093   2.9869   3.1143   3.1358   3.1779   3.1962
     3.2745   3.3979   3.4468   3.4636   3.5169   3.6150   3.7008   3.7683
     3.8326   3.9504   4.0134   4.0244   4.0817   4.1604   4.2194   4.2839
     4.3442   4.3741   4.4421   4.4787   4.5492   4.5975   4.6748   4.7432
     4.7916   4.9208   4.9742   4.9989   5.0713   5.1039   5.1735   5.2249
     5.2743   5.3484   5.4186   5.4503   5.4882   5.5595   5.6171   5.6839
     5.8157   5.8457   5.8847   5.9525   6.0296   6.0710   6.1702   6.2098
     6.2426   6.3205

     the Fermi energy is     4.7795 ev

!    total energy              =    -500.38584811 Ry
     estimated scf accuracy    <       0.00000056 Ry
     smearing contrib. (-TS)   =      -0.14334754 Ry
     internal energy E=F+TS    =    -500.24250057 Ry

     The total energy is F=E-TS. E is the sum of the following terms:
     one-electron contribution =       8.96817106 Ry
     hartree contribution      =      90.97914499 Ry
     xc contribution           =    -150.97534951 Ry
     ewald contribution        =    -449.21446710 Ry

     convergence has been achieved in  21 iterations

     Forces acting on atoms (cartesian axes, Ry/au):

     atom    1 type  1   force =     0.00149658   -0.01036931    0.03396182
     atom    2 type  1   force =     0.00334951   -0.04343398   -0.03294401
     atom    3 type  1   force =     0.03631954   -0.01941209    0.02494130
     atom    4 type  1   force =    -0.02423373   -0.05251538   -0.03401311
     atom    5 type  1   force =    -0.03065705    0.02477535    0.01608044
     atom    6 type  1   force =    -0.00030053    0.00120976    0.02661716
     atom    7 type  1   force =    -0.04033694   -0.01235176    0.01588515
     atom    8 type  1   force =     0.03019835    0.03721648   -0.02771412
     atom    9 type  1   force =    -0.00899135   -0.00638003    0.01096990
     atom   10 type  1   force =     0.01517889   -0.02838332   -0.00659009
     atom   11 type  1   force =    -0.03217404    0.01854141    0.02257437
     atom   12 type  1   force =    -0.05556944   -0.00552188   -0.02728242
     atom   13 type  1   force =     0.04330522   -0.02072678    0.06622142
     atom   14 type  1   force =    -0.01212221   -0.04848134    0.03392637
     atom   15 type  1   force =     0.03243986    0.03997058    0.10402975
     atom   16 type  1   force =    -0.02713601    0.04598019   -0.00778076
     atom   17 type  1   force =    -0.00758259    0.02148480   -0.00812335
     atom   18 type  1   force =     0.02160972   -0.00109439   -0.00774295
     atom   19 type  1   force =     0.14911920   -0.00338676   -0.08439876
     atom   20 type  1   force =     0.04573768    0.06978673    0.02535484
     atom   21 type  1   force =     0.06165280    0.04045053   -0.05138957
     atom   22 type  1   force =    -0.07708434   -0.05328383   -0.03018796
     atom   23 type  1   force =     0.00476098   -0.05991086   -0.01430132
     atom   24 type  1   force =    -0.02195925    0.02859241   -0.01161949
     atom   25 type  1   force =     0.03100885    0.04193774    0.02725656
     atom   26 type  1   force =    -0.05548479    0.00421410   -0.01459666
     atom   27 type  1   force =    -0.06436995   -0.04216172    0.00352978
     atom   28 type  1   force =    -0.04996958    0.01191890   -0.01877058
     atom   29 type  1   force =    -0.01308620   -0.08806866   -0.06573715
     atom   30 type  1   force =     0.03806314    0.02373423    0.07448533
     atom   31 type  1   force =     0.03524370   -0.01548451    0.03189382
     atom   32 type  1   force =    -0.01691088    0.05113063    0.00688043
     atom   33 type  1   force =     0.03567124   -0.10789850   -0.02988019
     atom   34 type  1   force =     0.03342874    0.01173520   -0.03876199
     atom   35 type  1   force =    -0.01905277    0.04706803    0.04473549
     atom   36 type  1   force =     0.00370548    0.15387147   -0.02899721
     atom   37 type  1   force =     0.00299094   -0.00707857    0.02489847
     atom   38 type  1   force =    -0.01503680   -0.06698260    0.05918738
     atom   39 type  1   force =    -0.08863256   -0.00271880    0.08995481
     atom   40 type  1   force =    -0.05769184   -0.04524587   -0.05591754
     atom   41 type  1   force =    -0.00316425   -0.00774880   -0.01397206
     atom   42 type  1   force =     0.01200052   -0.01747536    0.04194268
     atom   43 type  1   force =    -0.03151640   -0.00482998    0.00219104
     atom   44 type  1   force =     0.02590479   -0.02350525   -0.01427138
     atom   45 type  1   force =     0.01554712    0.02475647    0.00536149
     atom   46 type  1   force =     0.00806384   -0.00140016   -0.00864770
     atom   47 type  1   force =     0.00865381   -0.00888957   -0.00836199
     atom   48 type  1   force =    -0.03338227    0.01372788    0.02576721
     atom   49 type  1   force =     0.01914977   -0.06915840    0.01968256
     atom   50 type  1   force =    -0.08906779   -0.00856264   -0.03830052
     atom   51 type  1   force =     0.03223287    0.02792261   -0.01727607
     atom   52 type  1   force =    -0.00389912    0.00518211   -0.01063864
     atom   53 type  1   force =    -0.08906182   -0.00514519   -0.06263717
     atom   54 type  1   force =    -0.03759467   -0.00182088   -0.00991073
     atom   55 type  1   force =     0.01388568    0.03791244    0.05053320
     atom   56 type  1   force =    -0.00280219   -0.05072654   -0.04769349
     atom   57 type  1   force =     0.02309406    0.04409949    0.00170226
     atom   58 type  1   force =     0.02949366    0.11613783   -0.01358733
     atom   59 type  1   force =     0.01967495    0.02108433   -0.03456903
     atom   60 type  1   force =    -0.00087079   -0.02964446   -0.04163657
     atom   61 type  1   force =     0.10079267    0.01011173    0.03612618
     atom   62 type  1   force =     0.02849247    0.01362490   -0.02556235
     atom   63 type  1   force =    -0.00944750    0.00534857    0.02423816
     atom   64 type  1   force =     0.05692302   -0.02372872   -0.00711513

     Total force =     0.566454     Total SCF correction =     0.001322


     Computing stress (Cartesian axis) and pressure

          total   stress  (Ry/bohr**3)                   (kbar)     P=       18.84
   0.00015697   0.00009619   0.00004688           23.09       14.15        6.90
   0.00009619   0.00011369   0.00006507           14.15       16.72        9.57
   0.00004688   0.00006507   0.00011354            6.90        9.57       16.70

 
     init_run     :      0.89s CPU      4.45s WALL (       1 calls)
     electrons    :      2.80s CPU      2.95s WALL (       1 calls)
     forces       :      0.04s CPU      0.05s WALL (       1 calls)
     stress       :      0.18s CPU      0.19s WALL (       1 calls)

     Called by init_run:
     wfcinit      :      0.66s CPU      4.06s WALL (       1 calls)
                                        4.06s GPU  (       1 calls)
     potinit      :      0.06s CPU      0.13s WALL (       1 calls)
     hinit0       :      0.14s CPU      0.17s WALL (       1 calls)

     Called by electrons:
     c_bands      :      1.61s CPU      1.66s WALL (      22 calls)
     sum_band     :      0.59s CPU      0.65s WALL (      22 calls)
     v_of_rho     :      0.27s CPU      0.36s WALL (      22 calls)
     mix_rho      :      0.28s CPU      0.29s WALL (      22 calls)

     Called by c_bands:
     init_us_2    :      0.08s CPU      0.08s WALL (      45 calls)
     init_us_2:gp :      0.08s CPU      0.08s WALL (      45 calls)
     regterg      :      1.41s CPU      1.45s WALL (      22 calls)

     Called by *egterg:
     rdiaghg      :      0.43s CPU      1.14s WALL (      97 calls)
                                        1.13s GPU  (      97 calls)
     h_psi        :      1.41s CPU      4.13s WALL (      99 calls)
                                        4.12s GPU  (      99 calls)
     g_psi        :      0.00s CPU      0.00s WALL (      76 calls)
                                        0.00s GPU  (      76 calls)

     Called by h_psi:
     h_psi:calbec :      0.62s CPU      3.25s WALL (      99 calls)
                                        3.25s GPU  (      99 calls)
     vloc_psi     :      0.72s CPU      0.80s WALL (      99 calls)
                                        0.80s GPU  (      99 calls)
     add_vuspsi   :      0.04s CPU      0.06s WALL (      99 calls)
                                        0.06s GPU  (      99 calls)

     General routines
     calbec       :      0.63s CPU      3.26s WALL (     104 calls)
     fft          :      0.42s CPU      0.53s WALL (     183 calls)
                                        0.12s GPU  (     116 calls)
     ffts         :      0.10s CPU      0.11s WALL (      22 calls)
     fftw         :      0.78s CPU      1.02s WALL (    2302 calls)
                                        0.92s GPU  (    2302 calls)
 
     Parallel routines
 
     PWSCF        :      3.96s CPU      7.73s WALL

 
   This run was terminated on:  14:12:55  10May2023            

=------------------------------------------------------------------------------=
   JOB DONE.
=------------------------------------------------------------------------------=
