An instance of this daemon is already running
An instance of this daemon is already running
An instance of this daemon is already running

     Program PWSCF v.7.1 starts on 10May2023 at 14: 3: 9 

     This program is part of the open-source Quantum ESPRESSO suite
     for quantum simulation of materials; please cite
         "P. Giannozzi et al., J. Phys.:Condens. Matter 21 395502 (2009);
         "P. Giannozzi et al., J. Phys.:Condens. Matter 29 465901 (2017);
         "P. Giannozzi et al., J. Chem. Phys. 152 154105 (2020);
          URL http://www.quantum-espresso.org", 
     in publications or presentations arising from this work. More details at
     http://www.quantum-espresso.org/quote

     Parallel version (MPI & OpenMP), running on       4 processor cores
     Number of MPI processes:                 4
     Threads/MPI process:                     1

     MPI processes distributed on     1 nodes
     752408 MiB available memory on the printing compute node when the environment starts
 
     Reading input from pw-si-35.in
Warning: card &CELL ignored
Warning: card / ignored

     Current dimensions of program PWSCF are:
     Max number of different atomic species (ntypx) = 10
     Max number of k-points (npk) =  40000
     Max angular momentum in pseudopotentials (lmaxx) =  4

     IMPORTANT: XC functional enforced from input :
     Exchange-correlation= PBE
                           (   1   4   3   4   0   0   0)
     Any further DFT definition will be discarded
     Please, verify this is what you really want


     gamma-point specific algorithms are used
 
     K-points division:     npool     =       2
     R & G space division:  proc/nbgrp/npool/nimage =       2
     Subspace diagonalization in iterative solution of the eigenvalue problem:
     a serial algorithm will be used

     Message from routine divide_et_impera:
     suboptimal parallelization: some nodes have no k-points
 
     Parallelization info
     --------------------
     sticks:   dense  smooth     PW     G-vecs:    dense   smooth      PW
     Min        2198    2198    577               109898   109898   14855
     Max        2199    2199    584               109901   109901   14856
     Sum        4397    4397   1161               219799   219799   29711
 
     Using Slab Decomposition
 


     bravais-lattice index     =            0
     lattice parameter (alat)  =      21.4759  a.u.
     unit-cell volume          =    9904.9584 (a.u.)^3
     number of atoms/cell      =           64
     number of atomic types    =            1
     number of electrons       =       256.00
     number of Kohn-Sham states=          154
     kinetic-energy cutoff     =      30.0000  Ry
     charge density cutoff     =     120.0000  Ry
     scf convergence threshold =      1.0E-06
     mixing beta               =       0.5000
     number of iterations used =            8  plain     mixing
     Exchange-correlation= PBE
                           (   1   4   3   4   0   0   0)

     GPU acceleration is ACTIVE.
     GPU-aware MPI enabled

     Message from routine print_cuda_info:
     High GPU oversubscription detected. Are you sure this is what you want?

     celldm(1)=  21.475876  celldm(2)=   0.000000  celldm(3)=   0.000000
     celldm(4)=   0.000000  celldm(5)=   0.000000  celldm(6)=   0.000000

     crystal axes: (cart. coord. in units of alat)
               a(1) = (   1.000000   0.000000   0.000000 )  
               a(2) = (   0.000000   1.000000   0.000000 )  
               a(3) = (   0.000000   0.000000   1.000000 )  

     reciprocal axes: (cart. coord. in units 2 pi/alat)
               b(1) = (  1.000000  0.000000  0.000000 )  
               b(2) = (  0.000000  1.000000  0.000000 )  
               b(3) = (  0.000000  0.000000  1.000000 )  


     PseudoPot. # 1 for Si read from file:
     /home/ppiaggi/pseudos/Si_ONCV_PBE_sr.upf
     MD5 check sum: 8553c464762ac42b85b1eed164b4d029
     Pseudo is Norm-conserving, Zval =  4.0
     Generated using ONCVPSP code by D. R. Hamann
     Using radial grid of 1510 points,  4 beta functions with: 
                l(1) =   0
                l(2) =   0
                l(3) =   1
                l(4) =   1

     atomic species   valence    mass     pseudopotential
        Si             4.00    28.08500     Si( 1.00)

     No symmetry found



   Cartesian axes

     site n.     atom                  positions (alat units)
         1           Si  tau(   1) = (   0.2033330   0.1957450   0.6066410  )
         2           Si  tau(   2) = (   0.0969358   0.1393720   0.2945050  )
         3           Si  tau(   3) = (   0.8344300   0.1204810   0.5621710  )
         4           Si  tau(   4) = (   0.3303660   0.8284470   0.9919860  )
         5           Si  tau(   5) = (   0.5882390   0.9766040   0.7047080  )
         6           Si  tau(   6) = (   0.5117110   0.2980360   0.3078350  )
         7           Si  tau(   7) = (   0.3105220   0.0431665   0.9011490  )
         8           Si  tau(   8) = (   0.5792670   0.2507480   0.0104726  )
         9           Si  tau(   9) = (   0.5540880   0.8278760   0.8724130  )
        10           Si  tau(  10) = (   0.3308250   0.2982540   0.4582770  )
        11           Si  tau(  11) = (   0.3210610   0.6710010   0.6416150  )
        12           Si  tau(  12) = (   0.8399380   0.4102130   0.2210620  )
        13           Si  tau(  13) = (   0.5550970   0.5488820   0.7748730  )
        14           Si  tau(  14) = (   0.7177760   0.0856019   0.3005310  )
        15           Si  tau(  15) = (   0.0214672   0.0859321   0.6659940  )
        16           Si  tau(  16) = (   0.4969910   0.7755010   0.6830420  )
        17           Si  tau(  17) = (   0.6615300   0.5644270   0.1604220  )
        18           Si  tau(  18) = (   0.2916630   0.2399170   0.8297330  )
        19           Si  tau(  19) = (   0.6358440   0.5985810   0.5700760  )
        20           Si  tau(  20) = (   0.1425680   0.2381900   0.1008170  )
        21           Si  tau(  21) = (   0.6588990   0.8139290   0.4934180  )
        22           Si  tau(  22) = (   0.1182130   0.0240406   0.0150375  )
        23           Si  tau(  23) = (   0.5625190   0.0557412   0.1675090  )
        24           Si  tau(  24) = (   0.6576510   0.9337370   0.0135434  )
        25           Si  tau(  25) = (   0.1213620   0.3292300   0.4009530  )
        26           Si  tau(  26) = (   0.0464357   0.4153720   0.2297030  )
        27           Si  tau(  27) = (   0.8209990   0.6020150   0.3160680  )
        28           Si  tau(  28) = (   0.3418340   0.3135790   0.1346940  )
        29           Si  tau(  29) = (   0.1658460   0.0064774   0.5448560  )
        30           Si  tau(  30) = (   0.0640016   0.4974890   0.5236970  )
        31           Si  tau(  31) = (   0.4691380   0.4468060   0.0467002  )
        32           Si  tau(  32) = (   0.9248350   0.4685800   0.8544250  )
        33           Si  tau(  33) = (   0.1720200   0.6082360   0.7863570  )
        34           Si  tau(  34) = (   0.8517790   0.5559030   0.5478450  )
        35           Si  tau(  35) = (   0.9247260   0.2209610   0.4008180  )
        36           Si  tau(  36) = (   0.1759340   0.7913760   0.3521730  )
        37           Si  tau(  37) = (   0.7995900   0.8140810   0.1767090  )
        38           Si  tau(  38) = (   0.7692680   0.0952180   0.9702350  )
        39           Si  tau(  39) = (   0.4131240   0.4855840   0.6075910  )
        40           Si  tau(  40) = (   0.9942350   0.8975190   0.5382170  )
        41           Si  tau(  41) = (   0.8083760   0.9251710   0.5933010  )
        42           Si  tau(  42) = (   0.4151770   0.6838720   0.4549170  )
        43           Si  tau(  43) = (   0.6015810   0.4114160   0.4611100  )
        44           Si  tau(  44) = (   0.9781210   0.1618240   0.9742190  )
        45           Si  tau(  45) = (   0.9655050   0.8996370   0.3120610  )
        46           Si  tau(  46) = (   0.5605400   0.9539220   0.3645410  )
        47           Si  tau(  47) = (   0.0994385   0.5969980   0.3292260  )
        48           Si  tau(  48) = (   0.5511890   0.7589840   0.0692350  )
        49           Si  tau(  49) = (   0.2744030   0.5173860   0.4391530  )
        50           Si  tau(  50) = (   0.8860150   0.4019770   0.6685360  )
        51           Si  tau(  51) = (   0.5537510   0.3450520   0.7380230  )
        52           Si  tau(  52) = (   0.7153800   0.2989390   0.6112210  )
        53           Si  tau(  53) = (   0.0151797   0.8631640   0.1234080  )
        54           Si  tau(  54) = (   0.4747270   0.1395420   0.8215840  )
        55           Si  tau(  55) = (   0.3603420   0.6030140   0.8915490  )
        56           Si  tau(  56) = (   0.2722340   0.4032150   0.9530480  )
        57           Si  tau(  57) = (   0.8838120   0.9293190   0.0003352  )
        58           Si  tau(  58) = (   0.0177020   0.6327620   0.9227470  )
        59           Si  tau(  59) = (   0.3718150   0.8059650   0.3124430  )
        60           Si  tau(  60) = (   0.1100030   0.4141670   0.7380380  )
        61           Si  tau(  61) = (   0.2120020   0.8465110   0.1739680  )
        62           Si  tau(  62) = (   0.7100860   0.2550490   0.3881850  )
        63           Si  tau(  63) = (   0.8184700   0.6430130   0.8307270  )
        64           Si  tau(  64) = (   0.7003160   0.3951660   0.0674486  )

     number of k points=     1  Fermi-Dirac smearing, width (Ry)=  0.0100
                       cart. coord. in units 2pi/alat
        k(    1) = (   0.0000000   0.0000000   0.0000000), wk =   2.0000000

     Dense  grid:   109900 G-vectors     FFT dimensions: (  75,  75,  75)

     Estimated max dynamical RAM per process >     174.96 MB

     Estimated total dynamical RAM >     673.00 MB

     Initial potential from superposition of free atoms

     starting charge     255.9608, renormalised to     256.0000
     Starting wfcs are  256 randomized atomic wfcs

     total cpu time spent up to now is        4.5 secs

     Self-consistent Calculation

     iteration #  1     ecut=    30.00 Ry     beta= 0.50
     Davidson diagonalization with overlap
     ethr =  1.00E-02,  avg # of iterations =  3.0

     Threshold (ethr) on eigenvalues was too large:
     Diagonalizing with lowered threshold

     Davidson diagonalization with overlap
     ethr =  5.91E-04,  avg # of iterations =  4.0

     total cpu time spent up to now is        4.9 secs

     total energy              =    -499.95678552 Ry
     estimated scf accuracy    <       2.03404404 Ry

     iteration #  2     ecut=    30.00 Ry     beta= 0.50
     Davidson diagonalization with overlap
     ethr =  7.95E-04,  avg # of iterations =  4.0

     total cpu time spent up to now is        5.0 secs

     total energy              =    -499.42651216 Ry
     estimated scf accuracy    <       5.74011555 Ry

     iteration #  3     ecut=    30.00 Ry     beta= 0.50
     Davidson diagonalization with overlap
     ethr =  7.95E-04,  avg # of iterations =  5.0

     total cpu time spent up to now is        5.2 secs

     total energy              =    -499.87496813 Ry
     estimated scf accuracy    <       7.66359013 Ry

     iteration #  4     ecut=    30.00 Ry     beta= 0.50
     Davidson diagonalization with overlap
     ethr =  7.95E-04,  avg # of iterations =  3.0

     total cpu time spent up to now is        5.3 secs

     total energy              =    -500.37583172 Ry
     estimated scf accuracy    <       0.61968942 Ry

     iteration #  5     ecut=    30.00 Ry     beta= 0.50
     Davidson diagonalization with overlap
     ethr =  2.42E-04,  avg # of iterations =  2.0

     total cpu time spent up to now is        5.4 secs

     total energy              =    -500.43687242 Ry
     estimated scf accuracy    <       0.21269159 Ry

     iteration #  6     ecut=    30.00 Ry     beta= 0.50
     Davidson diagonalization with overlap
     ethr =  8.31E-05,  avg # of iterations =  3.0

     total cpu time spent up to now is        5.5 secs

     total energy              =    -500.45040451 Ry
     estimated scf accuracy    <       0.28356250 Ry

     iteration #  7     ecut=    30.00 Ry     beta= 0.50
     Davidson diagonalization with overlap
     ethr =  8.31E-05,  avg # of iterations =  2.0

     total cpu time spent up to now is        5.6 secs

     total energy              =    -500.46962867 Ry
     estimated scf accuracy    <       0.05231614 Ry

     iteration #  8     ecut=    30.00 Ry     beta= 0.50
     Davidson diagonalization with overlap
     ethr =  2.04E-05,  avg # of iterations = 20.0

     total cpu time spent up to now is        5.9 secs

     total energy              =    -500.47331336 Ry
     estimated scf accuracy    <       0.06150248 Ry

     iteration #  9     ecut=    30.00 Ry     beta= 0.50
     Davidson diagonalization with overlap
     ethr =  2.04E-05,  avg # of iterations =  2.0

     total cpu time spent up to now is        6.0 secs

     total energy              =    -500.47758000 Ry
     estimated scf accuracy    <       0.00473172 Ry

     iteration # 10     ecut=    30.00 Ry     beta= 0.50
     Davidson diagonalization with overlap
     ethr =  1.85E-06,  avg # of iterations =  9.0

     total cpu time spent up to now is        6.2 secs

     total energy              =    -500.47805286 Ry
     estimated scf accuracy    <       0.00487240 Ry

     iteration # 11     ecut=    30.00 Ry     beta= 0.50
     Davidson diagonalization with overlap
     ethr =  1.85E-06,  avg # of iterations =  2.0

     total cpu time spent up to now is        6.3 secs

     total energy              =    -500.47839137 Ry
     estimated scf accuracy    <       0.00230691 Ry

     iteration # 12     ecut=    30.00 Ry     beta= 0.50
     Davidson diagonalization with overlap
     ethr =  9.01E-07,  avg # of iterations =  2.0

     total cpu time spent up to now is        6.4 secs

     total energy              =    -500.47860758 Ry
     estimated scf accuracy    <       0.00047147 Ry

     iteration # 13     ecut=    30.00 Ry     beta= 0.50
     Davidson diagonalization with overlap
     ethr =  1.84E-07,  avg # of iterations =  2.0

     total cpu time spent up to now is        6.6 secs

     total energy              =    -500.47865049 Ry
     estimated scf accuracy    <       0.00009443 Ry

     iteration # 14     ecut=    30.00 Ry     beta= 0.50
     Davidson diagonalization with overlap
     ethr =  3.69E-08,  avg # of iterations =  4.0

     total cpu time spent up to now is        6.7 secs

     total energy              =    -500.47865774 Ry
     estimated scf accuracy    <       0.00013792 Ry

     iteration # 15     ecut=    30.00 Ry     beta= 0.50
     Davidson diagonalization with overlap
     ethr =  3.69E-08,  avg # of iterations =  2.0

     total cpu time spent up to now is        6.8 secs

     total energy              =    -500.47866630 Ry
     estimated scf accuracy    <       0.00004292 Ry

     iteration # 16     ecut=    30.00 Ry     beta= 0.50
     Davidson diagonalization with overlap
     ethr =  1.68E-08,  avg # of iterations =  3.0

     total cpu time spent up to now is        7.0 secs

     total energy              =    -500.47866755 Ry
     estimated scf accuracy    <       0.00008254 Ry

     iteration # 17     ecut=    30.00 Ry     beta= 0.50
     Davidson diagonalization with overlap
     ethr =  1.68E-08,  avg # of iterations =  2.0

     total cpu time spent up to now is        7.1 secs

     total energy              =    -500.47867206 Ry
     estimated scf accuracy    <       0.00001138 Ry

     iteration # 18     ecut=    30.00 Ry     beta= 0.50
     Davidson diagonalization with overlap
     ethr =  4.45E-09,  avg # of iterations =  2.0

     total cpu time spent up to now is        7.2 secs

     total energy              =    -500.47867353 Ry
     estimated scf accuracy    <       0.00000268 Ry

     iteration # 19     ecut=    30.00 Ry     beta= 0.50
     Davidson diagonalization with overlap
     ethr =  1.05E-09,  avg # of iterations =  2.0

     total cpu time spent up to now is        7.3 secs

     total energy              =    -500.47867377 Ry
     estimated scf accuracy    <       0.00000114 Ry

     iteration # 20     ecut=    30.00 Ry     beta= 0.50
     Davidson diagonalization with overlap
     ethr =  4.45E-10,  avg # of iterations =  3.0

     total cpu time spent up to now is        7.5 secs

     total energy              =    -500.47867388 Ry
     estimated scf accuracy    <       0.00000134 Ry

     iteration # 21     ecut=    30.00 Ry     beta= 0.50
     Davidson diagonalization with overlap
     ethr =  4.45E-10,  avg # of iterations =  2.0

     total cpu time spent up to now is        7.6 secs

     End of self-consistent calculation

          k = 0.0000 0.0000 0.0000 ( 13805 PWs)   bands (ev):

    -7.2593  -6.7980  -6.6392  -6.4810  -6.3295  -6.1572  -6.1241  -6.0067
    -5.8016  -5.5848  -5.4085  -5.3148  -5.1028  -5.0248  -4.9021  -4.7550
    -4.6828  -4.5278  -4.4208  -4.3651  -4.2344  -4.0340  -3.7997  -3.6972
    -3.5115  -3.3687  -3.1665  -3.1027  -2.8236  -2.8044  -2.6310  -2.5210
    -2.4677  -2.3972  -2.3276  -2.1768  -2.0414  -1.9741  -1.9471  -1.8259
    -1.7962  -1.5060  -1.4483  -1.3179  -1.1923  -1.1446  -1.0576  -0.8698
    -0.7637  -0.6655  -0.6173  -0.5318  -0.4350  -0.2805  -0.2304  -0.1084
     0.0483   0.1736   0.2327   0.3331   0.4182   0.6261   0.6522   0.7486
     0.7808   0.8640   1.0280   1.1114   1.2039   1.2476   1.2820   1.3416
     1.4145   1.5212   1.6496   1.6833   1.7365   1.7943   1.8886   1.9298
     2.0569   2.0915   2.1512   2.2349   2.3539   2.4278   2.4929   2.5791
     2.5991   2.6329   2.7434   2.8088   2.8252   2.8879   3.0177   3.1157
     3.1277   3.1714   3.2248   3.3404   3.3838   3.3989   3.5023   3.5748
     3.6089   3.7141   3.7430   3.8107   3.8320   3.8788   3.9883   4.0195
     4.1260   4.2126   4.2473   4.2670   4.3954   4.4492   4.5038   4.5549
     4.5789   4.6281   4.7112   4.7619   4.8353   4.8844   4.9454   4.9657
     5.0171   5.0973   5.1503   5.1933   5.2562   5.3372   5.3715   5.4411
     5.5008   5.5994   5.6376   5.6706   5.7269   5.7876   5.8621   5.9409
     5.9771   6.0049   6.1363   6.1904   6.2149   6.2230   6.2774   6.3261
     6.3814   6.4427

     the Fermi energy is     5.0121 ev

!    total energy              =    -500.47867366 Ry
     estimated scf accuracy    <       0.00000039 Ry
     smearing contrib. (-TS)   =      -0.15995014 Ry
     internal energy E=F+TS    =    -500.31872353 Ry

     The total energy is F=E-TS. E is the sum of the following terms:
     one-electron contribution =      48.30501133 Ry
     hartree contribution      =      74.09013614 Ry
     xc contribution           =    -149.31448526 Ry
     ewald contribution        =    -473.39938574 Ry

     convergence has been achieved in  21 iterations

     Forces acting on atoms (cartesian axes, Ry/au):

     atom    1 type  1   force =     0.01250725    0.04843812    0.04772118
     atom    2 type  1   force =    -0.02659575   -0.01090458    0.00767104
     atom    3 type  1   force =    -0.00142414    0.03087524    0.00830658
     atom    4 type  1   force =     0.05638950   -0.00310348    0.00002504
     atom    5 type  1   force =     0.00400887   -0.00905864    0.02056220
     atom    6 type  1   force =    -0.04007019   -0.00668181   -0.01709413
     atom    7 type  1   force =    -0.02824668   -0.04698931    0.01157898
     atom    8 type  1   force =    -0.03762080   -0.06295483   -0.02585629
     atom    9 type  1   force =    -0.01638220    0.00141351   -0.00093573
     atom   10 type  1   force =     0.00290635    0.03179433   -0.00704210
     atom   11 type  1   force =    -0.03848126    0.00227322    0.01189948
     atom   12 type  1   force =    -0.00170112   -0.02340572    0.02989724
     atom   13 type  1   force =    -0.00155984    0.02026733   -0.00115441
     atom   14 type  1   force =     0.02248746   -0.08649911   -0.00728781
     atom   15 type  1   force =    -0.03273576    0.02923214    0.02166574
     atom   16 type  1   force =     0.01723396    0.01936767   -0.02099467
     atom   17 type  1   force =    -0.02705184    0.07513531    0.01555850
     atom   18 type  1   force =    -0.02541346   -0.01441987   -0.06184071
     atom   19 type  1   force =    -0.00773127    0.01978601   -0.01595959
     atom   20 type  1   force =    -0.01727647    0.01505241    0.01722412
     atom   21 type  1   force =    -0.01476763   -0.02885885    0.01318834
     atom   22 type  1   force =     0.04318642   -0.02289242    0.01458384
     atom   23 type  1   force =    -0.00373066    0.02657347   -0.02110270
     atom   24 type  1   force =     0.00435249   -0.01767748    0.03064258
     atom   25 type  1   force =    -0.01144876   -0.01565081    0.03558798
     atom   26 type  1   force =     0.02393414   -0.01401309   -0.04338558
     atom   27 type  1   force =     0.00143341    0.00172414    0.00929762
     atom   28 type  1   force =     0.01195853   -0.01576245    0.02467710
     atom   29 type  1   force =     0.03762640   -0.03971192   -0.03699716
     atom   30 type  1   force =     0.00262481   -0.01381815    0.00910768
     atom   31 type  1   force =     0.00465161    0.01149909   -0.01083067
     atom   32 type  1   force =    -0.00134612   -0.05573547    0.02204907
     atom   33 type  1   force =     0.03344690    0.00831491   -0.01904774
     atom   34 type  1   force =    -0.01117753    0.04438208   -0.03984904
     atom   35 type  1   force =     0.01501388   -0.00105729   -0.02804761
     atom   36 type  1   force =    -0.06912494   -0.02457245    0.09203915
     atom   37 type  1   force =    -0.00596874   -0.00955729    0.00607505
     atom   38 type  1   force =     0.00949092    0.07115673   -0.00977727
     atom   39 type  1   force =     0.03184258   -0.03474715   -0.00521146
     atom   40 type  1   force =     0.04757569   -0.01903382   -0.04386759
     atom   41 type  1   force =    -0.07611166   -0.01140962    0.02493397
     atom   42 type  1   force =     0.02772796   -0.07646608    0.04991219
     atom   43 type  1   force =    -0.01876279    0.05824719    0.03005720
     atom   44 type  1   force =    -0.03849482    0.03920740   -0.02037814
     atom   45 type  1   force =    -0.00972833    0.03291395    0.05948308
     atom   46 type  1   force =    -0.01784476   -0.01194488   -0.01124435
     atom   47 type  1   force =    -0.00267212   -0.00375796    0.00875727
     atom   48 type  1   force =    -0.00885593   -0.03865712    0.00386583
     atom   49 type  1   force =    -0.01460344   -0.00519239   -0.00893163
     atom   50 type  1   force =     0.01215691   -0.02077414    0.00397237
     atom   51 type  1   force =    -0.01685151   -0.01823654    0.01161993
     atom   52 type  1   force =     0.00032866   -0.02347997   -0.00273068
     atom   53 type  1   force =     0.03227261   -0.03844569   -0.01146169
     atom   54 type  1   force =     0.04993573    0.01581941    0.01034781
     atom   55 type  1   force =     0.02240854   -0.00594636    0.00988410
     atom   56 type  1   force =    -0.02791055    0.02243352   -0.00677180
     atom   57 type  1   force =    -0.04312182   -0.00064841   -0.04282454
     atom   58 type  1   force =    -0.00743917    0.04110867    0.02767179
     atom   59 type  1   force =     0.05173375    0.07644501   -0.05755408
     atom   60 type  1   force =    -0.00189686   -0.01794585   -0.01050013
     atom   61 type  1   force =     0.04464478    0.02792580   -0.09791649
     atom   62 type  1   force =     0.04184408    0.05746747    0.01776797
     atom   63 type  1   force =    -0.01436054    0.02175505   -0.01081392
     atom   64 type  1   force =     0.05278528   -0.00059816   -0.01022230

     Total force =     0.428373     Total SCF correction =     0.001179


     Computing stress (Cartesian axis) and pressure

          total   stress  (Ry/bohr**3)                   (kbar)     P=      -12.55
  -0.00008407  -0.00001913   0.00001696          -12.37       -2.81        2.50
  -0.00001913  -0.00004948   0.00002027           -2.81       -7.28        2.98
   0.00001696   0.00002027  -0.00012231            2.50        2.98      -17.99

 
     init_run     :      0.87s CPU      4.44s WALL (       1 calls)
     electrons    :      2.89s CPU      3.06s WALL (       1 calls)
     forces       :      0.04s CPU      0.04s WALL (       1 calls)
     stress       :      0.18s CPU      0.19s WALL (       1 calls)

     Called by init_run:
     wfcinit      :      0.64s CPU      4.05s WALL (       1 calls)
                                        4.05s GPU  (       1 calls)
     potinit      :      0.05s CPU      0.13s WALL (       1 calls)
     hinit0       :      0.14s CPU      0.17s WALL (       1 calls)

     Called by electrons:
     c_bands      :      1.71s CPU      1.78s WALL (      22 calls)
     sum_band     :      0.58s CPU      0.64s WALL (      22 calls)
     v_of_rho     :      0.26s CPU      0.35s WALL (      22 calls)
     mix_rho      :      0.27s CPU      0.29s WALL (      22 calls)

     Called by c_bands:
     init_us_2    :      0.08s CPU      0.09s WALL (      45 calls)
     init_us_2:gp :      0.08s CPU      0.08s WALL (      45 calls)
     regterg      :      1.51s CPU      1.58s WALL (      22 calls)

     Called by *egterg:
     rdiaghg      :      0.50s CPU      1.21s WALL (     104 calls)
                                        1.19s GPU  (     104 calls)
     h_psi        :      1.42s CPU      4.16s WALL (     106 calls)
                                        4.16s GPU  (     106 calls)
     g_psi        :      0.00s CPU      0.01s WALL (      83 calls)
                                        0.00s GPU  (      83 calls)

     Called by h_psi:
     h_psi:calbec :      0.61s CPU      3.25s WALL (     106 calls)
                                        3.25s GPU  (     106 calls)
     vloc_psi     :      0.75s CPU      0.83s WALL (     106 calls)
                                        0.83s GPU  (     106 calls)
     add_vuspsi   :      0.04s CPU      0.06s WALL (     106 calls)
                                        0.06s GPU  (     106 calls)

     General routines
     calbec       :      0.61s CPU      3.25s WALL (     111 calls)
     fft          :      0.41s CPU      0.53s WALL (     183 calls)
                                        0.12s GPU  (     116 calls)
     ffts         :      0.09s CPU      0.10s WALL (      22 calls)
     fftw         :      0.81s CPU      1.05s WALL (    2322 calls)
                                        0.95s GPU  (    2322 calls)
 
     Parallel routines
 
     PWSCF        :      4.03s CPU      7.83s WALL

 
   This run was terminated on:  14: 3:17  10May2023            

=------------------------------------------------------------------------------=
   JOB DONE.
=------------------------------------------------------------------------------=
