An instance of this daemon is already running
An instance of this daemon is already running
An instance of this daemon is already running

     Program PWSCF v.7.1 starts on 10May2023 at 14: 6:13 

     This program is part of the open-source Quantum ESPRESSO suite
     for quantum simulation of materials; please cite
         "P. Giannozzi et al., J. Phys.:Condens. Matter 21 395502 (2009);
         "P. Giannozzi et al., J. Phys.:Condens. Matter 29 465901 (2017);
         "P. Giannozzi et al., J. Chem. Phys. 152 154105 (2020);
          URL http://www.quantum-espresso.org", 
     in publications or presentations arising from this work. More details at
     http://www.quantum-espresso.org/quote

     Parallel version (MPI & OpenMP), running on       4 processor cores
     Number of MPI processes:                 4
     Threads/MPI process:                     1

     MPI processes distributed on     1 nodes
     752764 MiB available memory on the printing compute node when the environment starts
 
     Reading input from pw-si-53.in
Warning: card &CELL ignored
Warning: card / ignored

     Current dimensions of program PWSCF are:
     Max number of different atomic species (ntypx) = 10
     Max number of k-points (npk) =  40000
     Max angular momentum in pseudopotentials (lmaxx) =  4

     IMPORTANT: XC functional enforced from input :
     Exchange-correlation= PBE
                           (   1   4   3   4   0   0   0)
     Any further DFT definition will be discarded
     Please, verify this is what you really want


     gamma-point specific algorithms are used
 
     K-points division:     npool     =       2
     R & G space division:  proc/nbgrp/npool/nimage =       2
     Subspace diagonalization in iterative solution of the eigenvalue problem:
     a serial algorithm will be used

     Message from routine divide_et_impera:
     suboptimal parallelization: some nodes have no k-points
 
     Parallelization info
     --------------------
     sticks:   dense  smooth     PW     G-vecs:    dense   smooth      PW
     Min        2222    2222    592               111566   111566   15107
     Max        2223    2223    593               111569   111569   15108
     Sum        4445    4445   1185               223135   223135   30215
 
     Using Slab Decomposition
 


     bravais-lattice index     =            0
     lattice parameter (alat)  =      21.5904  a.u.
     unit-cell volume          =   10064.2337 (a.u.)^3
     number of atoms/cell      =           64
     number of atomic types    =            1
     number of electrons       =       256.00
     number of Kohn-Sham states=          154
     kinetic-energy cutoff     =      30.0000  Ry
     charge density cutoff     =     120.0000  Ry
     scf convergence threshold =      1.0E-06
     mixing beta               =       0.5000
     number of iterations used =            8  plain     mixing
     Exchange-correlation= PBE
                           (   1   4   3   4   0   0   0)

     GPU acceleration is ACTIVE.
     GPU-aware MPI enabled

     Message from routine print_cuda_info:
     High GPU oversubscription detected. Are you sure this is what you want?

     celldm(1)=  21.590378  celldm(2)=   0.000000  celldm(3)=   0.000000
     celldm(4)=   0.000000  celldm(5)=   0.000000  celldm(6)=   0.000000

     crystal axes: (cart. coord. in units of alat)
               a(1) = (   1.000000   0.000000   0.000000 )  
               a(2) = (   0.000000   1.000000   0.000000 )  
               a(3) = (   0.000000   0.000000   1.000000 )  

     reciprocal axes: (cart. coord. in units 2 pi/alat)
               b(1) = (  1.000000  0.000000  0.000000 )  
               b(2) = (  0.000000  1.000000  0.000000 )  
               b(3) = (  0.000000  0.000000  1.000000 )  


     PseudoPot. # 1 for Si read from file:
     /home/ppiaggi/pseudos/Si_ONCV_PBE_sr.upf
     MD5 check sum: 8553c464762ac42b85b1eed164b4d029
     Pseudo is Norm-conserving, Zval =  4.0
     Generated using ONCVPSP code by D. R. Hamann
     Using radial grid of 1510 points,  4 beta functions with: 
                l(1) =   0
                l(2) =   0
                l(3) =   1
                l(4) =   1

     atomic species   valence    mass     pseudopotential
        Si             4.00    28.08500     Si( 1.00)

     No symmetry found



   Cartesian axes

     site n.     atom                  positions (alat units)
         1           Si  tau(   1) = (   0.2123960   0.2134960   0.6406090  )
         2           Si  tau(   2) = (   0.0861932   0.0549297   0.3459220  )
         3           Si  tau(   3) = (   0.8767760   0.1594960   0.5444180  )
         4           Si  tau(   4) = (   0.3995470   0.6609570   0.0407192  )
         5           Si  tau(   5) = (   0.6331150   0.8770160   0.6880880  )
         6           Si  tau(   6) = (   0.4541710   0.3013650   0.3660780  )
         7           Si  tau(   7) = (   0.3857700   0.9828900   0.9133440  )
         8           Si  tau(   8) = (   0.6988090   0.4140120   0.9555790  )
         9           Si  tau(   9) = (   0.6037390   0.9616080   0.9175640  )
        10           Si  tau(  10) = (   0.3054530   0.3074260   0.4868400  )
        11           Si  tau(  11) = (   0.2689770   0.6926220   0.7093410  )
        12           Si  tau(  12) = (   0.8352520   0.4965290   0.1567440  )
        13           Si  tau(  13) = (   0.6196320   0.4985930   0.6496500  )
        14           Si  tau(  14) = (   0.7405610   0.7147180   0.3318530  )
        15           Si  tau(  15) = (   0.0353238   0.1028720   0.6623510  )
        16           Si  tau(  16) = (   0.4745330   0.7981400   0.5723760  )
        17           Si  tau(  17) = (   0.6951160   0.6956040   0.1341260  )
        18           Si  tau(  18) = (   0.3575360   0.1411820   0.7843860  )
        19           Si  tau(  19) = (   0.6245110   0.6655830   0.5237680  )
        20           Si  tau(  20) = (   0.1913640   0.1973670   0.1056080  )
        21           Si  tau(  21) = (   0.6293350   0.8626490   0.4477000  )
        22           Si  tau(  22) = (   0.1447370   0.0070774   0.1484240  )
        23           Si  tau(  23) = (   0.5732660   0.1487700   0.2335410  )
        24           Si  tau(  24) = (   0.6631150   0.1401500   0.0504269  )
        25           Si  tau(  25) = (   0.1040640   0.2764690   0.4792850  )
        26           Si  tau(  26) = (   0.0516051   0.4796970   0.2007080  )
        27           Si  tau(  27) = (   0.9626810   0.5861910   0.3478390  )
        28           Si  tau(  28) = (   0.3656180   0.2713870   0.1502510  )
        29           Si  tau(  29) = (   0.1768590   0.9824860   0.4951290  )
        30           Si  tau(  30) = (   0.0222245   0.5771420   0.5283930  )
        31           Si  tau(  31) = (   0.4546220   0.4005490   0.9705730  )
        32           Si  tau(  32) = (   0.9565850   0.4546990   0.9311750  )
        33           Si  tau(  33) = (   0.1556190   0.5809100   0.8369080  )
        34           Si  tau(  34) = (   0.8322990   0.6702790   0.5092540  )
        35           Si  tau(  35) = (   0.9317920   0.2379890   0.3708850  )
        36           Si  tau(  36) = (   0.0996961   0.8200710   0.4218700  )
        37           Si  tau(  37) = (   0.6484550   0.9175550   0.0850855  )
        38           Si  tau(  38) = (   0.8297650   0.2520550   0.0071938  )
        39           Si  tau(  39) = (   0.4057040   0.5251480   0.6863400  )
        40           Si  tau(  40) = (   0.9714020   0.9689160   0.5253660  )
        41           Si  tau(  41) = (   0.7659890   0.9861180   0.5491420  )
        42           Si  tau(  42) = (   0.2996430   0.7204910   0.4918060  )
        43           Si  tau(  43) = (   0.5204430   0.4499040   0.4764090  )
        44           Si  tau(  44) = (   0.9837870   0.1119670   0.0355438  )
        45           Si  tau(  45) = (   0.9724800   0.7427390   0.1658750  )
        46           Si  tau(  46) = (   0.5270390   0.9324440   0.2791140  )
        47           Si  tau(  47) = (   0.2018630   0.5853360   0.2736670  )
        48           Si  tau(  48) = (   0.5883340   0.7756120   0.9357530  )
        49           Si  tau(  49) = (   0.2168260   0.5056650   0.4758630  )
        50           Si  tau(  50) = (   0.9443730   0.2716370   0.7166510  )
        51           Si  tau(  51) = (   0.5528960   0.1954530   0.7436940  )
        52           Si  tau(  52) = (   0.7465200   0.2857010   0.6807250  )
        53           Si  tau(  53) = (   0.0882826   0.8670260   0.0092481  )
        54           Si  tau(  54) = (   0.5024180   0.9984140   0.7566320  )
        55           Si  tau(  55) = (   0.2877800   0.4995200   0.9807350  )
        56           Si  tau(  56) = (   0.3012820   0.2945310   0.9702250  )
        57           Si  tau(  57) = (   0.8133940   0.0253129   0.0200241  )
        58           Si  tau(  58) = (   0.0001491   0.6646520   0.9582610  )
        59           Si  tau(  59) = (   0.2592730   0.7925590   0.2613140  )
        60           Si  tau(  60) = (   0.0230808   0.4619640   0.7420210  )
        61           Si  tau(  61) = (   0.3098510   0.8454820   0.0593599  )
        62           Si  tau(  62) = (   0.6503900   0.3138630   0.3278990  )
        63           Si  tau(  63) = (   0.8036120   0.5986170   0.9739710  )
        64           Si  tau(  64) = (   0.5943070   0.4373130   0.1782500  )

     number of k points=     1  Fermi-Dirac smearing, width (Ry)=  0.0100
                       cart. coord. in units 2pi/alat
        k(    1) = (   0.0000000   0.0000000   0.0000000), wk =   2.0000000

     Dense  grid:   111568 G-vectors     FFT dimensions: (  75,  75,  75)

     Estimated max dynamical RAM per process >     177.46 MB

     Estimated total dynamical RAM >     682.59 MB

     Initial potential from superposition of free atoms

     starting charge     255.9608, renormalised to     256.0000
     Starting wfcs are  256 randomized atomic wfcs

     total cpu time spent up to now is        4.8 secs

     Self-consistent Calculation

     iteration #  1     ecut=    30.00 Ry     beta= 0.50
     Davidson diagonalization with overlap
     ethr =  1.00E-02,  avg # of iterations =  3.0

     Threshold (ethr) on eigenvalues was too large:
     Diagonalizing with lowered threshold

     Davidson diagonalization with overlap
     ethr =  8.18E-04,  avg # of iterations =  4.0

     total cpu time spent up to now is        5.1 secs

     total energy              =    -499.42397719 Ry
     estimated scf accuracy    <       2.74587349 Ry

     iteration #  2     ecut=    30.00 Ry     beta= 0.50
     Davidson diagonalization with overlap
     ethr =  1.07E-03,  avg # of iterations =  4.0

     total cpu time spent up to now is        5.3 secs

     total energy              =    -498.54683324 Ry
     estimated scf accuracy    <      11.05519902 Ry

     iteration #  3     ecut=    30.00 Ry     beta= 0.50
     Davidson diagonalization with overlap
     ethr =  1.07E-03,  avg # of iterations =  4.0

     total cpu time spent up to now is        5.4 secs

     total energy              =    -499.62185329 Ry
     estimated scf accuracy    <       6.18768068 Ry

     iteration #  4     ecut=    30.00 Ry     beta= 0.50
     Davidson diagonalization with overlap
     ethr =  1.07E-03,  avg # of iterations =  2.0

     total cpu time spent up to now is        5.5 secs

     total energy              =    -500.07088342 Ry
     estimated scf accuracy    <       0.98093849 Ry

     iteration #  5     ecut=    30.00 Ry     beta= 0.50
     Davidson diagonalization with overlap
     ethr =  3.83E-04,  avg # of iterations =  2.0

     total cpu time spent up to now is        5.6 secs

     total energy              =    -500.16036572 Ry
     estimated scf accuracy    <       0.25233511 Ry

     iteration #  6     ecut=    30.00 Ry     beta= 0.50
     Davidson diagonalization with overlap
     ethr =  9.86E-05,  avg # of iterations =  4.0

     total cpu time spent up to now is        5.8 secs

     total energy              =    -500.17916016 Ry
     estimated scf accuracy    <       0.35880667 Ry

     iteration #  7     ecut=    30.00 Ry     beta= 0.50
     Davidson diagonalization with overlap
     ethr =  9.86E-05,  avg # of iterations =  2.0

     total cpu time spent up to now is        5.9 secs

     total energy              =    -500.20378457 Ry
     estimated scf accuracy    <       0.04532733 Ry

     iteration #  8     ecut=    30.00 Ry     beta= 0.50
     Davidson diagonalization with overlap
     ethr =  1.77E-05,  avg # of iterations = 10.0

     total cpu time spent up to now is        6.1 secs

     total energy              =    -500.20607380 Ry
     estimated scf accuracy    <       0.08682111 Ry

     iteration #  9     ecut=    30.00 Ry     beta= 0.50
     Davidson diagonalization with overlap
     ethr =  1.77E-05,  avg # of iterations =  2.0

     total cpu time spent up to now is        6.2 secs

     total energy              =    -500.21172961 Ry
     estimated scf accuracy    <       0.01034609 Ry

     iteration # 10     ecut=    30.00 Ry     beta= 0.50
     Davidson diagonalization with overlap
     ethr =  4.04E-06,  avg # of iterations = 10.0

     total cpu time spent up to now is        6.4 secs

     total energy              =    -500.21256454 Ry
     estimated scf accuracy    <       0.00869951 Ry

     iteration # 11     ecut=    30.00 Ry     beta= 0.50
     Davidson diagonalization with overlap
     ethr =  3.40E-06,  avg # of iterations =  2.0

     total cpu time spent up to now is        6.5 secs

     total energy              =    -500.21311538 Ry
     estimated scf accuracy    <       0.00180953 Ry

     iteration # 12     ecut=    30.00 Ry     beta= 0.50
     Davidson diagonalization with overlap
     ethr =  7.07E-07,  avg # of iterations =  4.0

     total cpu time spent up to now is        6.6 secs

     total energy              =    -500.21325206 Ry
     estimated scf accuracy    <       0.00238173 Ry

     iteration # 13     ecut=    30.00 Ry     beta= 0.50
     Davidson diagonalization with overlap
     ethr =  7.07E-07,  avg # of iterations =  2.0

     total cpu time spent up to now is        6.7 secs

     total energy              =    -500.21342120 Ry
     estimated scf accuracy    <       0.00058305 Ry

     iteration # 14     ecut=    30.00 Ry     beta= 0.50
     Davidson diagonalization with overlap
     ethr =  2.28E-07,  avg # of iterations =  2.0

     total cpu time spent up to now is        6.9 secs

     total energy              =    -500.21349108 Ry
     estimated scf accuracy    <       0.00006955 Ry

     iteration # 15     ecut=    30.00 Ry     beta= 0.50
     Davidson diagonalization with overlap
     ethr =  2.72E-08,  avg # of iterations =  3.0

     total cpu time spent up to now is        7.0 secs

     total energy              =    -500.21349625 Ry
     estimated scf accuracy    <       0.00002435 Ry

     iteration # 16     ecut=    30.00 Ry     beta= 0.50
     Davidson diagonalization with overlap
     ethr =  9.51E-09,  avg # of iterations =  5.0

     total cpu time spent up to now is        7.2 secs

     total energy              =    -500.21349562 Ry
     estimated scf accuracy    <       0.00010388 Ry

     iteration # 17     ecut=    30.00 Ry     beta= 0.50
     Davidson diagonalization with overlap
     ethr =  9.51E-09,  avg # of iterations =  3.0

     total cpu time spent up to now is        7.3 secs

     total energy              =    -500.21350190 Ry
     estimated scf accuracy    <       0.00000889 Ry

     iteration # 18     ecut=    30.00 Ry     beta= 0.50
     Davidson diagonalization with overlap
     ethr =  3.47E-09,  avg # of iterations =  3.0

     total cpu time spent up to now is        7.4 secs

     total energy              =    -500.21350278 Ry
     estimated scf accuracy    <       0.00001057 Ry

     iteration # 19     ecut=    30.00 Ry     beta= 0.50
     Davidson diagonalization with overlap
     ethr =  3.47E-09,  avg # of iterations =  2.0

     total cpu time spent up to now is        7.5 secs

     total energy              =    -500.21350339 Ry
     estimated scf accuracy    <       0.00000181 Ry

     iteration # 20     ecut=    30.00 Ry     beta= 0.50
     Davidson diagonalization with overlap
     ethr =  7.06E-10,  avg # of iterations =  4.0

     total cpu time spent up to now is        7.7 secs

     total energy              =    -500.21350362 Ry
     estimated scf accuracy    <       0.00000162 Ry

     iteration # 21     ecut=    30.00 Ry     beta= 0.50
     Davidson diagonalization with overlap
     ethr =  6.35E-10,  avg # of iterations =  2.0

     total cpu time spent up to now is        7.8 secs

     End of self-consistent calculation

          k = 0.0000 0.0000 0.0000 ( 14009 PWs)   bands (ev):

    -7.9875  -7.7594  -7.2793  -7.1251  -7.0029  -6.7315  -6.6315  -6.5108
    -6.1922  -6.0143  -5.9495  -5.7468  -5.6761  -5.3654  -5.2376  -5.1285
    -4.9173  -4.7031  -4.6211  -4.4593  -4.3166  -4.2389  -4.1331  -3.9332
    -3.6811  -3.5927  -3.5222  -3.4104  -3.3018  -3.2658  -3.1744  -2.9832
    -2.8116  -2.6389  -2.5550  -2.4446  -2.3515  -2.2139  -2.0747  -1.9743
    -1.8945  -1.8054  -1.6175  -1.6002  -1.5235  -1.3734  -1.1600  -1.0036
    -0.9636  -0.8634  -0.8445  -0.6609  -0.6136  -0.4149  -0.3739  -0.3383
    -0.2518  -0.1206   0.0308   0.0857   0.2035   0.2925   0.3417   0.4986
     0.6443   0.6710   0.8731   0.8964   0.9413   0.9768   1.1186   1.1607
     1.2624   1.3148   1.3540   1.4047   1.4791   1.5827   1.6686   1.7161
     1.7762   1.8525   1.9115   1.9603   2.0713   2.1068   2.1458   2.2394
     2.2957   2.3790   2.4373   2.5274   2.6102   2.7161   2.7966   2.8443
     2.8805   2.9567   3.0338   3.1120   3.1496   3.2445   3.3023   3.3399
     3.4214   3.4877   3.5351   3.6228   3.6677   3.7781   3.7928   3.9032
     3.9454   4.0010   4.0437   4.2016   4.2130   4.2362   4.3060   4.3338
     4.4304   4.4565   4.5215   4.5806   4.5949   4.7231   4.8042   4.8251
     4.8568   4.9185   4.9663   4.9882   5.0975   5.1254   5.2616   5.3081
     5.3342   5.4179   5.4974   5.5541   5.5843   5.6698   5.7571   5.8246
     5.8854   5.9188   5.9418   6.0164   6.0194   6.1357   6.2188   6.2561
     6.3050   6.4090

     the Fermi energy is     4.8405 ev

!    total energy              =    -500.21350330 Ry
     estimated scf accuracy    <       0.00000062 Ry
     smearing contrib. (-TS)   =      -0.15652588 Ry
     internal energy E=F+TS    =    -500.05697742 Ry

     The total energy is F=E-TS. E is the sum of the following terms:
     one-electron contribution =      25.07192032 Ry
     hartree contribution      =      83.91844138 Ry
     xc contribution           =    -150.42708283 Ry
     ewald contribution        =    -458.62025629 Ry

     convergence has been achieved in  21 iterations

     Forces acting on atoms (cartesian axes, Ry/au):

     atom    1 type  1   force =     0.00891446   -0.03622665    0.04409811
     atom    2 type  1   force =    -0.06144891    0.06904423   -0.05727275
     atom    3 type  1   force =    -0.05947710    0.05721358    0.00269235
     atom    4 type  1   force =     0.04000356    0.01681248    0.00891603
     atom    5 type  1   force =     0.05977056   -0.04897744    0.00086991
     atom    6 type  1   force =    -0.02540841   -0.03311010   -0.09430696
     atom    7 type  1   force =    -0.03845593   -0.01625357    0.04932181
     atom    8 type  1   force =    -0.00656955   -0.01210329    0.01525395
     atom    9 type  1   force =     0.00895051    0.15192270   -0.10176654
     atom   10 type  1   force =    -0.03036792    0.03704795    0.03309020
     atom   11 type  1   force =     0.04009908   -0.00374679   -0.02450771
     atom   12 type  1   force =    -0.01484419   -0.02114780    0.01870977
     atom   13 type  1   force =    -0.00136496   -0.03251798    0.01619202
     atom   14 type  1   force =     0.00938238    0.00401446    0.01380541
     atom   15 type  1   force =     0.05692520   -0.03124893    0.04229211
     atom   16 type  1   force =    -0.00062004   -0.00839573    0.00746516
     atom   17 type  1   force =    -0.01130061    0.00556765   -0.02684892
     atom   18 type  1   force =    -0.04434328    0.05317905    0.01544135
     atom   19 type  1   force =    -0.00984733   -0.05402333   -0.00080801
     atom   20 type  1   force =    -0.05803983    0.01189538    0.01026672
     atom   21 type  1   force =     0.00465746    0.04403727   -0.05281586
     atom   22 type  1   force =     0.00129838   -0.01740465    0.01566306
     atom   23 type  1   force =    -0.04841436   -0.02152201   -0.00135052
     atom   24 type  1   force =    -0.06764312    0.04284525   -0.01757412
     atom   25 type  1   force =    -0.04185720    0.01679444   -0.04490890
     atom   26 type  1   force =    -0.03889558   -0.04413997   -0.04474872
     atom   27 type  1   force =    -0.02293993    0.02209047   -0.07716133
     atom   28 type  1   force =     0.10901719   -0.00697917    0.12406502
     atom   29 type  1   force =     0.09637211    0.04490158    0.09840358
     atom   30 type  1   force =     0.02224308    0.00337299    0.11235899
     atom   31 type  1   force =     0.16389412    0.00929827    0.00892266
     atom   32 type  1   force =     0.00066307   -0.03601824    0.04088894
     atom   33 type  1   force =     0.00261651   -0.00049638    0.02080868
     atom   34 type  1   force =     0.02978087    0.00915858    0.01161217
     atom   35 type  1   force =     0.03396569    0.00783675   -0.05780479
     atom   36 type  1   force =    -0.01011073   -0.08104339   -0.03349756
     atom   37 type  1   force =     0.05161806   -0.06368896    0.22562674
     atom   38 type  1   force =     0.01481478    0.04858938   -0.01220921
     atom   39 type  1   force =    -0.00648883    0.01055319   -0.00610177
     atom   40 type  1   force =    -0.00979813   -0.05628728   -0.01818205
     atom   41 type  1   force =    -0.02242275   -0.03303574    0.02518114
     atom   42 type  1   force =    -0.03991269   -0.00464503   -0.00421318
     atom   43 type  1   force =     0.01106241    0.05353955    0.02923865
     atom   44 type  1   force =     0.05751774    0.01601793    0.01008432
     atom   45 type  1   force =     0.00688903   -0.01241808    0.00145716
     atom   46 type  1   force =     0.00587662    0.02116281   -0.04039732
     atom   47 type  1   force =     0.02390758    0.02287804    0.01758539
     atom   48 type  1   force =    -0.01468781   -0.15961767    0.00574928
     atom   49 type  1   force =     0.00837302   -0.00307375   -0.01483768
     atom   50 type  1   force =    -0.00764404    0.03856680    0.04284543
     atom   51 type  1   force =     0.02073282    0.01770185    0.01752814
     atom   52 type  1   force =    -0.03420126    0.01369395   -0.00993020
     atom   53 type  1   force =     0.00930897   -0.01655454   -0.00282835
     atom   54 type  1   force =    -0.02457112    0.02765512   -0.09617277
     atom   55 type  1   force =    -0.06410793    0.06286161    0.00197030
     atom   56 type  1   force =    -0.09009521   -0.07174204   -0.13072924
     atom   57 type  1   force =     0.00621163   -0.08626805   -0.00991758
     atom   58 type  1   force =     0.01909391    0.00757636    0.01289425
     atom   59 type  1   force =    -0.00367676   -0.01074118    0.02634095
     atom   60 type  1   force =    -0.01957614   -0.00212523   -0.07644941
     atom   61 type  1   force =    -0.04413346    0.01931760   -0.01788294
     atom   62 type  1   force =     0.07489155   -0.00394645    0.02316040
     atom   63 type  1   force =    -0.03885627    0.02676677   -0.01859488
     atom   64 type  1   force =     0.01326903    0.03558536   -0.05698089

     Total force =     0.658843     Total SCF correction =     0.001318


     Computing stress (Cartesian axis) and pressure

          total   stress  (Ry/bohr**3)                   (kbar)     P=       16.56
   0.00005350   0.00000281   0.00004966            7.87        0.41        7.30
   0.00000281   0.00012834   0.00001703            0.41       18.88        2.50
   0.00004966   0.00001703   0.00015580            7.30        2.50       22.92

 
     init_run     :      0.76s CPU      4.70s WALL (       1 calls)
     electrons    :      2.82s CPU      3.01s WALL (       1 calls)
     forces       :      0.04s CPU      0.05s WALL (       1 calls)
     stress       :      0.18s CPU      0.19s WALL (       1 calls)

     Called by init_run:
     wfcinit      :      0.55s CPU      4.31s WALL (       1 calls)
                                        4.31s GPU  (       1 calls)
     potinit      :      0.04s CPU      0.13s WALL (       1 calls)
     hinit0       :      0.14s CPU      0.17s WALL (       1 calls)

     Called by electrons:
     c_bands      :      1.66s CPU      1.73s WALL (      22 calls)
     sum_band     :      0.58s CPU      0.65s WALL (      22 calls)
     v_of_rho     :      0.24s CPU      0.34s WALL (      22 calls)
     mix_rho      :      0.27s CPU      0.29s WALL (      22 calls)

     Called by c_bands:
     init_us_2    :      0.08s CPU      0.08s WALL (      45 calls)
     init_us_2:gp :      0.08s CPU      0.08s WALL (      45 calls)
     regterg      :      1.45s CPU      1.52s WALL (      22 calls)

     Called by *egterg:
     rdiaghg      :      0.45s CPU      1.22s WALL (     100 calls)
                                        1.20s GPU  (     100 calls)
     h_psi        :      1.32s CPU      4.36s WALL (     102 calls)
                                        4.35s GPU  (     102 calls)
     g_psi        :      0.00s CPU      0.00s WALL (      79 calls)
                                        0.00s GPU  (      79 calls)

     Called by h_psi:
     h_psi:calbec :      0.52s CPU      3.45s WALL (     102 calls)
                                        3.45s GPU  (     102 calls)
     vloc_psi     :      0.74s CPU      0.83s WALL (     102 calls)
                                        0.83s GPU  (     102 calls)
     add_vuspsi   :      0.04s CPU      0.06s WALL (     102 calls)
                                        0.06s GPU  (     102 calls)

     General routines
     calbec       :      0.52s CPU      3.46s WALL (     107 calls)
     fft          :      0.40s CPU      0.53s WALL (     183 calls)
                                        0.12s GPU  (     116 calls)
     ffts         :      0.09s CPU      0.11s WALL (      22 calls)
     fftw         :      0.80s CPU      1.04s WALL (    2308 calls)
                                        0.94s GPU  (    2308 calls)
 
     Parallel routines
 
     PWSCF        :      3.85s CPU      8.04s WALL

 
   This run was terminated on:  14: 6:21  10May2023            

=------------------------------------------------------------------------------=
   JOB DONE.
=------------------------------------------------------------------------------=
