An instance of this daemon is already running
An instance of this daemon is already running

     Program PWSCF v.7.1 starts on 10May2023 at 14: 4:10 

     This program is part of the open-source Quantum ESPRESSO suite
     for quantum simulation of materials; please cite
         "P. Giannozzi et al., J. Phys.:Condens. Matter 21 395502 (2009);
         "P. Giannozzi et al., J. Phys.:Condens. Matter 29 465901 (2017);
         "P. Giannozzi et al., J. Chem. Phys. 152 154105 (2020);
          URL http://www.quantum-espresso.org", 
     in publications or presentations arising from this work. More details at
     http://www.quantum-espresso.org/quote

     Parallel version (MPI & OpenMP), running on       4 processor cores
     Number of MPI processes:                 4
     Threads/MPI process:                     1

     MPI processes distributed on     1 nodes
     752405 MiB available memory on the printing compute node when the environment starts
 
     Reading input from pw-si-41.in
Warning: card &CELL ignored
Warning: card / ignored

     Current dimensions of program PWSCF are:
     Max number of different atomic species (ntypx) = 10
     Max number of k-points (npk) =  40000
     Max angular momentum in pseudopotentials (lmaxx) =  4

     IMPORTANT: XC functional enforced from input :
     Exchange-correlation= PBE
                           (   1   4   3   4   0   0   0)
     Any further DFT definition will be discarded
     Please, verify this is what you really want


     gamma-point specific algorithms are used
 
     K-points division:     npool     =       2
     R & G space division:  proc/nbgrp/npool/nimage =       2
     Subspace diagonalization in iterative solution of the eigenvalue problem:
     a serial algorithm will be used

     Message from routine divide_et_impera:
     suboptimal parallelization: some nodes have no k-points
 
     Parallelization info
     --------------------
     sticks:   dense  smooth     PW     G-vecs:    dense   smooth      PW
     Min        2238    2238    591               112526   112526   15273
     Max        2239    2239    594               112529   112529   15278
     Sum        4477    4477   1185               225055   225055   30551
 
     Using Slab Decomposition
 


     bravais-lattice index     =            0
     lattice parameter (alat)  =      21.6378  a.u.
     unit-cell volume          =   10130.7241 (a.u.)^3
     number of atoms/cell      =           64
     number of atomic types    =            1
     number of electrons       =       256.00
     number of Kohn-Sham states=          154
     kinetic-energy cutoff     =      30.0000  Ry
     charge density cutoff     =     120.0000  Ry
     scf convergence threshold =      1.0E-06
     mixing beta               =       0.5000
     number of iterations used =            8  plain     mixing
     Exchange-correlation= PBE
                           (   1   4   3   4   0   0   0)

     GPU acceleration is ACTIVE.
     GPU-aware MPI enabled

     Message from routine print_cuda_info:
     High GPU oversubscription detected. Are you sure this is what you want?

     celldm(1)=  21.637820  celldm(2)=   0.000000  celldm(3)=   0.000000
     celldm(4)=   0.000000  celldm(5)=   0.000000  celldm(6)=   0.000000

     crystal axes: (cart. coord. in units of alat)
               a(1) = (   1.000000   0.000000   0.000000 )  
               a(2) = (   0.000000   1.000000   0.000000 )  
               a(3) = (   0.000000   0.000000   1.000000 )  

     reciprocal axes: (cart. coord. in units 2 pi/alat)
               b(1) = (  1.000000  0.000000  0.000000 )  
               b(2) = (  0.000000  1.000000  0.000000 )  
               b(3) = (  0.000000  0.000000  1.000000 )  


     PseudoPot. # 1 for Si read from file:
     /home/ppiaggi/pseudos/Si_ONCV_PBE_sr.upf
     MD5 check sum: 8553c464762ac42b85b1eed164b4d029
     Pseudo is Norm-conserving, Zval =  4.0
     Generated using ONCVPSP code by D. R. Hamann
     Using radial grid of 1510 points,  4 beta functions with: 
                l(1) =   0
                l(2) =   0
                l(3) =   1
                l(4) =   1

     atomic species   valence    mass     pseudopotential
        Si             4.00    28.08500     Si( 1.00)

     No symmetry found



   Cartesian axes

     site n.     atom                  positions (alat units)
         1           Si  tau(   1) = (   0.1926760   0.1924960   0.6360050  )
         2           Si  tau(   2) = (   0.0759783   0.1298940   0.2823490  )
         3           Si  tau(   3) = (   0.8411020   0.1277100   0.5628890  )
         4           Si  tau(   4) = (   0.3969140   0.7935360   0.9560060  )
         5           Si  tau(   5) = (   0.6053290   0.9460550   0.6672030  )
         6           Si  tau(   6) = (   0.4586890   0.2959600   0.3184830  )
         7           Si  tau(   7) = (   0.3574600   0.0186595   0.9067830  )
         8           Si  tau(   8) = (   0.5992930   0.2730490   0.9475280  )
         9           Si  tau(   9) = (   0.5318060   0.8692080   0.8560350  )
        10           Si  tau(  10) = (   0.3218700   0.3153730   0.4997160  )
        11           Si  tau(  11) = (   0.3298900   0.6876250   0.6841790  )
        12           Si  tau(  12) = (   0.8399410   0.4243710   0.1861210  )
        13           Si  tau(  13) = (   0.5749730   0.5456290   0.7337650  )
        14           Si  tau(  14) = (   0.7354540   0.9529570   0.3386890  )
        15           Si  tau(  15) = (   0.0239858   0.0869883   0.6120080  )
        16           Si  tau(  16) = (   0.5029330   0.7648830   0.6266160  )
        17           Si  tau(  17) = (   0.7010220   0.6596100   0.1798120  )
        18           Si  tau(  18) = (   0.3205960   0.2015440   0.8007900  )
        19           Si  tau(  19) = (   0.6482640   0.6184020   0.5656720  )
        20           Si  tau(  20) = (   0.1162850   0.2302210   0.1099420  )
        21           Si  tau(  21) = (   0.6105460   0.8558420   0.4991430  )
        22           Si  tau(  22) = (   0.1621640   0.0209123   0.1217470  )
        23           Si  tau(  23) = (   0.5819230   0.1170280   0.2213740  )
        24           Si  tau(  24) = (   0.6297960   0.9807770   0.0306608  )
        25           Si  tau(  25) = (   0.1541450   0.2955640   0.4060970  )
        26           Si  tau(  26) = (   0.0552275   0.3984780   0.2211120  )
        27           Si  tau(  27) = (   0.8745770   0.5962910   0.3184200  )
        28           Si  tau(  28) = (   0.3495810   0.3219640   0.1453320  )
        29           Si  tau(  29) = (   0.1807250   0.9841230   0.5180310  )
        30           Si  tau(  30) = (   0.0470492   0.4977740   0.5295310  )
        31           Si  tau(  31) = (   0.4722910   0.4399490   0.0086738  )
        32           Si  tau(  32) = (   0.9521060   0.4423750   0.8717310  )
        33           Si  tau(  33) = (   0.1562880   0.6326480   0.8176090  )
        34           Si  tau(  34) = (   0.8691880   0.5779130   0.5270330  )
        35           Si  tau(  35) = (   0.9373030   0.2464990   0.4053340  )
        36           Si  tau(  36) = (   0.1569720   0.8120760   0.3645870  )
        37           Si  tau(  37) = (   0.7329460   0.8440010   0.1371420  )
        38           Si  tau(  38) = (   0.7815210   0.1594620   0.0160872  )
        39           Si  tau(  39) = (   0.3948030   0.4841550   0.6083230  )
        40           Si  tau(  40) = (   0.9819380   0.9291960   0.4900060  )
        41           Si  tau(  41) = (   0.7998120   0.9321790   0.6015240  )
        42           Si  tau(  42) = (   0.3580280   0.6747420   0.4769420  )
        43           Si  tau(  43) = (   0.5813390   0.4290940   0.4853720  )
        44           Si  tau(  44) = (   0.0006524   0.1189370   0.0112911  )
        45           Si  tau(  45) = (   0.9539180   0.8601290   0.3131850  )
        46           Si  tau(  46) = (   0.5262440   0.9530520   0.3245620  )
        47           Si  tau(  47) = (   0.0834949   0.6031440   0.3076710  )
        48           Si  tau(  48) = (   0.5905520   0.7608700   0.0367724  )
        49           Si  tau(  49) = (   0.2261050   0.5042020   0.4288240  )
        50           Si  tau(  50) = (   0.9050720   0.3102980   0.6989760  )
        51           Si  tau(  51) = (   0.5268260   0.3115540   0.7701430  )
        52           Si  tau(  52) = (   0.7108890   0.2902120   0.6065380  )
        53           Si  tau(  53) = (   0.0626778   0.8399760   0.0992231  )
        54           Si  tau(  54) = (   0.5007640   0.1076550   0.7512500  )
        55           Si  tau(  55) = (   0.2953570   0.6070980   0.9680130  )
        56           Si  tau(  56) = (   0.3099560   0.3854020   0.9482910  )
        57           Si  tau(  57) = (   0.8663010   0.9645800   0.0403610  )
        58           Si  tau(  58) = (   0.0060083   0.6352840   0.9402080  )
        59           Si  tau(  59) = (   0.3644710   0.8155480   0.3087130  )
        60           Si  tau(  60) = (   0.0701368   0.4280630   0.7058280  )
        61           Si  tau(  61) = (   0.2829630   0.8685560   0.1264210  )
        62           Si  tau(  62) = (   0.6738050   0.2650350   0.3611870  )
        63           Si  tau(  63) = (   0.8353780   0.6107020   0.8853950  )
        64           Si  tau(  64) = (   0.6459260   0.4114080   0.0926384  )

     number of k points=     1  Fermi-Dirac smearing, width (Ry)=  0.0100
                       cart. coord. in units 2pi/alat
        k(    1) = (   0.0000000   0.0000000   0.0000000), wk =   2.0000000

     Dense  grid:   112528 G-vectors     FFT dimensions: (  75,  75,  75)

     Estimated max dynamical RAM per process >     178.56 MB

     Estimated total dynamical RAM >     686.76 MB

     Initial potential from superposition of free atoms

     starting charge     255.9608, renormalised to     256.0000
     Starting wfcs are  256 randomized atomic wfcs

     total cpu time spent up to now is        4.8 secs

     Self-consistent Calculation

     iteration #  1     ecut=    30.00 Ry     beta= 0.50
     Davidson diagonalization with overlap
     ethr =  1.00E-02,  avg # of iterations =  3.0

     Threshold (ethr) on eigenvalues was too large:
     Diagonalizing with lowered threshold

     Davidson diagonalization with overlap
     ethr =  6.66E-04,  avg # of iterations =  4.0

     total cpu time spent up to now is        5.1 secs

     total energy              =    -499.70402147 Ry
     estimated scf accuracy    <       2.24116924 Ry

     iteration #  2     ecut=    30.00 Ry     beta= 0.50
     Davidson diagonalization with overlap
     ethr =  8.75E-04,  avg # of iterations =  4.0

     total cpu time spent up to now is        5.2 secs

     total energy              =    -499.11348763 Ry
     estimated scf accuracy    <       6.47671323 Ry

     iteration #  3     ecut=    30.00 Ry     beta= 0.50
     Davidson diagonalization with overlap
     ethr =  8.75E-04,  avg # of iterations =  5.0

     total cpu time spent up to now is        5.4 secs

     total energy              =    -499.71560449 Ry
     estimated scf accuracy    <       6.29266758 Ry

     iteration #  4     ecut=    30.00 Ry     beta= 0.50
     Davidson diagonalization with overlap
     ethr =  8.75E-04,  avg # of iterations =  3.0

     total cpu time spent up to now is        5.5 secs

     total energy              =    -500.14250849 Ry
     estimated scf accuracy    <       0.77243113 Ry

     iteration #  5     ecut=    30.00 Ry     beta= 0.50
     Davidson diagonalization with overlap
     ethr =  3.02E-04,  avg # of iterations =  2.0

     total cpu time spent up to now is        5.6 secs

     total energy              =    -500.18821031 Ry
     estimated scf accuracy    <       0.59551074 Ry

     iteration #  6     ecut=    30.00 Ry     beta= 0.50
     Davidson diagonalization with overlap
     ethr =  2.33E-04,  avg # of iterations =  2.0

     total cpu time spent up to now is        5.8 secs

     total energy              =    -500.23826389 Ry
     estimated scf accuracy    <       0.23021156 Ry

     iteration #  7     ecut=    30.00 Ry     beta= 0.50
     Davidson diagonalization with overlap
     ethr =  8.99E-05,  avg # of iterations =  2.0

     total cpu time spent up to now is        5.9 secs

     total energy              =    -500.25430251 Ry
     estimated scf accuracy    <       0.04692990 Ry

     iteration #  8     ecut=    30.00 Ry     beta= 0.50
     Davidson diagonalization with overlap
     ethr =  1.83E-05,  avg # of iterations =  8.0

     total cpu time spent up to now is        6.0 secs

     total energy              =    -500.25915562 Ry
     estimated scf accuracy    <       0.03837510 Ry

     iteration #  9     ecut=    30.00 Ry     beta= 0.50
     Davidson diagonalization with overlap
     ethr =  1.50E-05,  avg # of iterations =  2.0

     total cpu time spent up to now is        6.2 secs

     total energy              =    -500.26213183 Ry
     estimated scf accuracy    <       0.00842968 Ry

     iteration # 10     ecut=    30.00 Ry     beta= 0.50
     Davidson diagonalization with overlap
     c_bands:  2 eigenvalues not converged
     ethr =  3.29E-06,  avg # of iterations = 20.0

     total cpu time spent up to now is        6.4 secs

     total energy              =    -500.26283511 Ry
     estimated scf accuracy    <       0.00697477 Ry

     iteration # 11     ecut=    30.00 Ry     beta= 0.50
     Davidson diagonalization with overlap
     ethr =  2.72E-06,  avg # of iterations = 12.0

     total cpu time spent up to now is        6.6 secs

     total energy              =    -500.26345104 Ry
     estimated scf accuracy    <       0.00079400 Ry

     iteration # 12     ecut=    30.00 Ry     beta= 0.50
     Davidson diagonalization with overlap
     ethr =  3.10E-07,  avg # of iterations =  3.0

     total cpu time spent up to now is        6.7 secs

     total energy              =    -500.26357529 Ry
     estimated scf accuracy    <       0.00021345 Ry

     iteration # 13     ecut=    30.00 Ry     beta= 0.50
     Davidson diagonalization with overlap
     ethr =  8.34E-08,  avg # of iterations =  5.0

     total cpu time spent up to now is        6.9 secs

     total energy              =    -500.26358683 Ry
     estimated scf accuracy    <       0.00027676 Ry

     iteration # 14     ecut=    30.00 Ry     beta= 0.50
     Davidson diagonalization with overlap
     ethr =  8.34E-08,  avg # of iterations =  3.0

     total cpu time spent up to now is        7.0 secs

     total energy              =    -500.26360528 Ry
     estimated scf accuracy    <       0.00013166 Ry

     iteration # 15     ecut=    30.00 Ry     beta= 0.50
     Davidson diagonalization with overlap
     ethr =  5.14E-08,  avg # of iterations =  2.0

     total cpu time spent up to now is        7.1 secs

     total energy              =    -500.26361247 Ry
     estimated scf accuracy    <       0.00006429 Ry

     iteration # 16     ecut=    30.00 Ry     beta= 0.50
     Davidson diagonalization with overlap
     ethr =  2.51E-08,  avg # of iterations =  2.0

     total cpu time spent up to now is        7.2 secs

     total energy              =    -500.26361821 Ry
     estimated scf accuracy    <       0.00004446 Ry

     iteration # 17     ecut=    30.00 Ry     beta= 0.50
     Davidson diagonalization with overlap
     ethr =  1.74E-08,  avg # of iterations =  1.0

     total cpu time spent up to now is        7.4 secs

     total energy              =    -500.26362109 Ry
     estimated scf accuracy    <       0.00000279 Ry

     iteration # 18     ecut=    30.00 Ry     beta= 0.50
     Davidson diagonalization with overlap
     ethr =  1.09E-09,  avg # of iterations =  5.0

     total cpu time spent up to now is        7.5 secs

     total energy              =    -500.26362102 Ry
     estimated scf accuracy    <       0.00001376 Ry

     iteration # 19     ecut=    30.00 Ry     beta= 0.50
     Davidson diagonalization with overlap
     ethr =  1.09E-09,  avg # of iterations =  3.0

     total cpu time spent up to now is        7.7 secs

     total energy              =    -500.26362190 Ry
     estimated scf accuracy    <       0.00000163 Ry

     iteration # 20     ecut=    30.00 Ry     beta= 0.50
     Davidson diagonalization with overlap
     ethr =  6.37E-10,  avg # of iterations =  3.0

     total cpu time spent up to now is        7.8 secs

     total energy              =    -500.26362207 Ry
     estimated scf accuracy    <       0.00000135 Ry

     iteration # 21     ecut=    30.00 Ry     beta= 0.50
     Davidson diagonalization with overlap
     ethr =  5.27E-10,  avg # of iterations =  2.0

     total cpu time spent up to now is        7.9 secs

     End of self-consistent calculation

          k = 0.0000 0.0000 0.0000 ( 14057 PWs)   bands (ev):

    -7.6597  -7.2225  -7.1768  -6.9600  -6.7873  -6.6882  -6.2963  -6.2546
    -6.1155  -5.9728  -5.7633  -5.6511  -5.6180  -5.2842  -5.1189  -5.0504
    -4.9688  -4.9454  -4.6676  -4.6212  -4.5172  -4.3168  -4.0941  -4.0360
    -3.7320  -3.6512  -3.4425  -3.3991  -3.2678  -3.2036  -3.0557  -2.9316
    -2.7711  -2.7148  -2.5494  -2.4085  -2.3891  -2.3196  -2.2143  -2.0243
    -1.9169  -1.7840  -1.6946  -1.5554  -1.4215  -1.2732  -1.2069  -1.1602
    -1.0544  -0.9174  -0.8040  -0.7755  -0.7087  -0.5951  -0.5033  -0.3531
    -0.2527  -0.1046   0.0487   0.1259   0.1676   0.2594   0.4564   0.5137
     0.5691   0.6150   0.7187   0.8399   0.9252   0.9694   0.9948   1.1527
     1.1648   1.2940   1.3974   1.4915   1.5510   1.6139   1.6517   1.6875
     1.7757   1.8615   1.9071   2.0205   2.1290   2.1551   2.2039   2.2505
     2.3166   2.4419   2.4868   2.5501   2.5779   2.6482   2.6844   2.7813
     2.8468   2.9580   3.0212   3.0389   3.0447   3.2020   3.2578   3.3688
     3.3871   3.4996   3.5522   3.5920   3.6494   3.7689   3.7819   3.8270
     3.8950   3.9783   4.0604   4.0898   4.0977   4.1706   4.1966   4.2560
     4.3208   4.4009   4.4717   4.4824   4.5780   4.6416   4.7713   4.8290
     4.8421   4.8941   4.9420   4.9749   5.0037   5.0745   5.1690   5.2189
     5.3147   5.3383   5.4584   5.5185   5.5767   5.6391   5.6489   5.7303
     5.8087   5.8163   5.9328   5.9690   6.0478   6.0768   6.0975   6.1590
     6.2526   6.2843

     the Fermi energy is     4.8005 ev

!    total energy              =    -500.26362202 Ry
     estimated scf accuracy    <       0.00000024 Ry
     smearing contrib. (-TS)   =      -0.15313460 Ry
     internal energy E=F+TS    =    -500.11048742 Ry

     The total energy is F=E-TS. E is the sum of the following terms:
     one-electron contribution =      25.34306989 Ry
     hartree contribution      =      83.27909012 Ry
     xc contribution           =    -149.70643203 Ry
     ewald contribution        =    -459.02621540 Ry

     convergence has been achieved in  21 iterations

     Forces acting on atoms (cartesian axes, Ry/au):

     atom    1 type  1   force =     0.01475273    0.03777655   -0.00745101
     atom    2 type  1   force =    -0.00673445   -0.02557061    0.05328744
     atom    3 type  1   force =    -0.05388078    0.03238345   -0.03044474
     atom    4 type  1   force =    -0.10213608   -0.05635176    0.08909279
     atom    5 type  1   force =    -0.01190153    0.05697466    0.10181274
     atom    6 type  1   force =     0.00847751   -0.00723982    0.01033872
     atom    7 type  1   force =     0.01481799    0.00598116   -0.01894184
     atom    8 type  1   force =     0.04175706   -0.03911039    0.04361714
     atom    9 type  1   force =     0.10440667    0.08398608   -0.05862273
     atom   10 type  1   force =     0.06009063   -0.00828177    0.01559410
     atom   11 type  1   force =    -0.06241140   -0.02672273    0.03243943
     atom   12 type  1   force =     0.00372847   -0.02123106    0.01982189
     atom   13 type  1   force =    -0.01685703   -0.02799939    0.03221784
     atom   14 type  1   force =     0.02370601   -0.00519845   -0.01572017
     atom   15 type  1   force =     0.03821986    0.01505493    0.04151138
     atom   16 type  1   force =    -0.01334531   -0.05724406    0.05218847
     atom   17 type  1   force =    -0.00338595   -0.07673676    0.01671561
     atom   18 type  1   force =    -0.00713304    0.00191025    0.02413476
     atom   19 type  1   force =     0.04475503   -0.00369757   -0.04023505
     atom   20 type  1   force =     0.08395057    0.10075540    0.02327270
     atom   21 type  1   force =     0.05577244    0.02139656   -0.14438396
     atom   22 type  1   force =    -0.01226276    0.03667241    0.00871264
     atom   23 type  1   force =    -0.00062949    0.02469438   -0.00807135
     atom   24 type  1   force =    -0.00545117    0.04881891   -0.02505878
     atom   25 type  1   force =    -0.10156111    0.00357404   -0.05732388
     atom   26 type  1   force =     0.00623564   -0.00142917    0.02188002
     atom   27 type  1   force =    -0.01453893    0.01351460   -0.00265805
     atom   28 type  1   force =    -0.01559104   -0.01006628    0.01415443
     atom   29 type  1   force =     0.02420687   -0.01244177   -0.01093597
     atom   30 type  1   force =     0.02643920    0.00189068   -0.05948929
     atom   31 type  1   force =     0.07437670    0.06934932    0.03224693
     atom   32 type  1   force =    -0.01763096   -0.03609157    0.01003156
     atom   33 type  1   force =     0.04632514   -0.01831568   -0.05248302
     atom   34 type  1   force =    -0.06300198    0.01679414   -0.02412537
     atom   35 type  1   force =     0.00714066    0.00058315   -0.01441696
     atom   36 type  1   force =    -0.00265647   -0.02156743    0.00769912
     atom   37 type  1   force =     0.07557746    0.06590603    0.06944826
     atom   38 type  1   force =    -0.01040868    0.00171714   -0.00504356
     atom   39 type  1   force =     0.03292974    0.00625793    0.00368086
     atom   40 type  1   force =     0.00537739    0.00125413    0.01137267
     atom   41 type  1   force =    -0.00528339   -0.02800821    0.00399543
     atom   42 type  1   force =    -0.01571947   -0.00695343   -0.02404789
     atom   43 type  1   force =    -0.00642177    0.01809518    0.02237981
     atom   44 type  1   force =    -0.06459749   -0.02863190   -0.06068608
     atom   45 type  1   force =    -0.01438279   -0.02596665   -0.08496005
     atom   46 type  1   force =    -0.02334232   -0.03747187    0.01891487
     atom   47 type  1   force =     0.01011904    0.01597140   -0.01409747
     atom   48 type  1   force =    -0.05452040   -0.04721166   -0.04719463
     atom   49 type  1   force =    -0.00148356    0.01773736   -0.01680125
     atom   50 type  1   force =    -0.03674050    0.00154112    0.00960360
     atom   51 type  1   force =     0.01231415    0.02317904   -0.05407321
     atom   52 type  1   force =    -0.02057396    0.02667301    0.00965710
     atom   53 type  1   force =    -0.02608932   -0.03811034    0.02086239
     atom   54 type  1   force =    -0.00048360   -0.02997647    0.00544612
     atom   55 type  1   force =     0.01005074   -0.01284104    0.00507532
     atom   56 type  1   force =    -0.13604909   -0.03147909   -0.06414107
     atom   57 type  1   force =    -0.00650756   -0.01723071    0.00084087
     atom   58 type  1   force =     0.09576123    0.06582024    0.09002753
     atom   59 type  1   force =     0.00444300    0.01176563    0.00920131
     atom   60 type  1   force =     0.07278806   -0.02218847    0.04936846
     atom   61 type  1   force =     0.02659965   -0.04780593   -0.01501724
     atom   62 type  1   force =     0.01509314    0.00531318   -0.01860981
     atom   63 type  1   force =    -0.15705599   -0.01375052   -0.03521109
     atom   64 type  1   force =     0.05055655    0.00958049    0.02960120

     Total force =     0.584747     Total SCF correction =     0.000832


     Computing stress (Cartesian axis) and pressure

          total   stress  (Ry/bohr**3)                   (kbar)     P=        1.31
   0.00011958   0.00004228   0.00001630           17.59        6.22        2.40
   0.00004228  -0.00007214  -0.00003657            6.22      -10.61       -5.38
   0.00001630  -0.00003657  -0.00002064            2.40       -5.38       -3.04

 
     init_run     :      0.81s CPU      4.70s WALL (       1 calls)
     electrons    :      2.94s CPU      3.12s WALL (       1 calls)
     forces       :      0.04s CPU      0.04s WALL (       1 calls)
     stress       :      0.18s CPU      0.19s WALL (       1 calls)

     Called by init_run:
     wfcinit      :      0.58s CPU      4.30s WALL (       1 calls)
                                        4.30s GPU  (       1 calls)
     potinit      :      0.05s CPU      0.14s WALL (       1 calls)
     hinit0       :      0.15s CPU      0.17s WALL (       1 calls)

     Called by electrons:
     c_bands      :      1.76s CPU      1.82s WALL (      22 calls)
     sum_band     :      0.59s CPU      0.65s WALL (      22 calls)
     v_of_rho     :      0.26s CPU      0.36s WALL (      22 calls)
     mix_rho      :      0.27s CPU      0.29s WALL (      22 calls)

     Called by c_bands:
     init_us_2    :      0.08s CPU      0.08s WALL (      45 calls)
     init_us_2:gp :      0.08s CPU      0.08s WALL (      45 calls)
     regterg      :      1.54s CPU      1.60s WALL (      22 calls)

     Called by *egterg:
     rdiaghg      :      0.51s CPU      1.27s WALL (     117 calls)
                                        1.25s GPU  (     117 calls)
     h_psi        :      1.36s CPU      4.35s WALL (     119 calls)
                                        4.35s GPU  (     119 calls)
     g_psi        :      0.00s CPU      0.01s WALL (      96 calls)
                                        0.00s GPU  (      96 calls)

     Called by h_psi:
     h_psi:calbec :      0.54s CPU      3.44s WALL (     119 calls)
                                        3.44s GPU  (     119 calls)
     vloc_psi     :      0.74s CPU      0.82s WALL (     119 calls)
                                        0.82s GPU  (     119 calls)
     add_vuspsi   :      0.05s CPU      0.07s WALL (     119 calls)
                                        0.07s GPU  (     119 calls)

     General routines
     calbec       :      0.55s CPU      3.45s WALL (     124 calls)
     fft          :      0.40s CPU      0.54s WALL (     183 calls)
                                        0.13s GPU  (     116 calls)
     ffts         :      0.10s CPU      0.11s WALL (      22 calls)
     fftw         :      0.81s CPU      1.05s WALL (    2344 calls)
                                        0.94s GPU  (    2344 calls)
 
     Parallel routines
 
     PWSCF        :      4.01s CPU      8.14s WALL

 
   This run was terminated on:  14: 4:18  10May2023            

=------------------------------------------------------------------------------=
   JOB DONE.
=------------------------------------------------------------------------------=
