-6842.877649268879
-6836.949476229364
-6836.195281432439
-6827.832492408837
-6832.2305120536275
-6829.743346669532
-6834.1335280752
-6833.98745954352
-6811.109357535734
-6823.438806585097
-6831.729072100534
-6836.556663168263
-6826.997728241765
-6821.7496279582665
-6832.381992657444
-6834.953901637971
-6827.563017802302
-6830.991401280404
-6836.549499771461
-6833.537251687343
-6832.106106912814
-6822.670819154032
-6836.992637701939
-6831.595545703849
-6827.33897926792
-6823.455502129667
-6833.411905712933
-6831.303311359792
-6837.088688716822
-6833.370490394859
-6838.076823318319
-6836.032270004709
-6837.824052147657
-6840.061681114347
-6827.0407917533585
-6832.692185154283
-6837.3815105546555
-6831.472477322268
-6829.120662722088
-6834.313472194711
-6836.16760555025
-6829.384570151598
-6836.032795184417
-6832.210302022774
-6838.848123055086
-6835.7298588752
-6834.294586814023
-6840.45011164602
-6834.456325021102
-6828.7500556468485
-6834.803399011291
-6832.949754916433
-6834.0005308038735
-6829.35399176715
-6835.241684199627
-6835.596005397681
-6839.259854014477
-6822.499362945433
-6831.331705214344
-6823.6483455335865
-6830.361059505313
-6835.244822624586
-6829.4054702631465
-6832.480940188083
-6837.412937117939
-6833.897411495976
-6825.856613825256
-6827.121398539157
-6833.18096024904
-6831.599670541472
-6835.385783579514
-6833.721985962812
-6832.067306336618
-6834.409415996741
-6833.708236186602
-6837.079907875363
-6838.443167049993
-6826.694332332274
-6833.230907288354
-6835.279300264285
-6836.727747805416
-6835.128672193125
-6834.248413177311
-6833.454531801531
-6836.3103083058595
-6836.941186553383
-6831.342881746039
-6836.100428806902
-6836.435719859705
-6842.040980985221
-6830.969742515473
-6833.376997861254
-6836.5403547056285
-6839.740521205299
-6837.118088032007
-6827.374470395611
-6833.107211820431
-6830.02304432087
-6829.556866919844
-6832.775626005711
