-2.2908709144278614 -0.6794718601909265 -0.9365744630100321 0.05391911861595875 0.3979314360444308 -0.6436430234177755 -0.08096995208616377 0.20092142764184753 -1.4645543538348327 -0.7466861532538948 -0.30657782673109785 -2.98504305694344 0.34383851085476913 0.533485651134378 2.584264895478833 2.485066593310101 1.632802459613375 -2.225089754266994 1.5655172041031555 -1.5624588768928058 0.3312390769232037 -1.9290187406044905 -1.5692216495379363 3.1266666181559186 -3.5670006875362765 -2.7699761910391456 -3.264198268687211 2.3914545269798944 1.870780682898204 -2.0280992862484366 0.31254355739622947 2.1550603603527336 0.07004713452607292 -0.08198065273886526 -0.975551358493862 0.9750556498043659 -1.0855130698266853 -0.9754569990078427 0.7388098358296116 0.7969267945770017 2.8650352742285237 0.04198971416822446 2.0806577770714423 -2.5442065940053666 1.317584440708776 -2.5082216912703252 0.7017334998026044 -0.19518786759218 -0.35554037267272964 -2.1071812772832677 0.38069656022338305 0.1654540879731731 -1.0019036232351455 1.1025473996011528 -1.3672715235212582 -1.339142883605842 -1.2637848783898171 -0.44903648225036213 0.6041609061627531 -1.1636622646346024 -1.4764984135705863 -1.7290367940577769 2.7127218374023667 1.6631417340268644 1.2383499832564804 -1.2866913506743451 2.2151596396374753 0.1378916049738722 0.4879141331521661 0.3942591293991662 -0.10383554383042763 -1.0097614287166674 -0.8042567525795117 0.9176313462486262 1.259845948346727 0.46640839786990645 0.7852419020399057 1.379450067865321 -0.8674935490519705 0.43814760325200025 -2.1240279165269613 -0.9769860340578592 0.8178530032067075 -1.168742250260671 0.7188225940744072 -2.094767476999947 0.25371517440411145 1.7062640191376357 -0.4797195131565158 -0.462208757966262 3.037513358928014 3.320462747606894 2.691951951844867 -0.6983728108604875 -1.4809456507086622 0.8617851858132834 -0.5981028728941312 1.1842218339535089 -0.46732551036753706 -0.5789481543425513 -0.06508259143194597 0.2777971550539796 -1.51776693330207 -0.041643643682715385 0.06389705576427704 1.6658704458119376 -0.6647854618233454 -2.143040195963406 -1.4848187605108234 -0.7604695801912322 1.3125435358507591 -3.441795162670505 -2.957791163206022 2.2664703740963095 1.3497898217967268 4.3708800021717105 -0.980286559186002 0.657966639129299 -1.7691596302205919 -0.8000769101702092 0.8401663219919272 -0.37198386294073355 -0.5392930018447744 2.386321833739019 -0.1895882620172154 -2.009881991909461 2.4074958967134727 -0.7973119458305624 0.7971306830576916 0.48752178280975383 0.6597586980327155 -0.4975789099354398 -2.2504883968457565 2.4261394799565896 -1.5328024874789536 -2.341794697860921 2.853347296367634 -2.9031266817836063 1.4945838103173872 -0.535467200340781 2.9121761935803847 -2.1552598779580494 1.339934526269202 -1.518746780716836 -0.2931852074742757 -0.2579893762994331 -1.7044735028961158 1.4566402411940786 -0.7100142517541578 1.4254712717904416 -2.0009324960256576 -1.3636794352946258 1.313212022672693 -1.1477389085361267 -0.17893232496526604 -2.2654722718490987 0.12243413276822139 0.12156150035528095 -1.8332037530856942 -0.03594067976066714 -0.8611316113896846 2.516619428415717 1.111937068346169 0.2215455316501023 1.3857119896146328 0.8182967756123456 0.013494434942009017 -0.06390605462534156 1.7746095975915697 2.5800223181523956 2.1733846125832184 -0.8723861012575815 1.804582489804576 -1.400216610988711 -2.231546051415299 2.104957273048756 1.3898476090495613 0.06219627102308643 -0.3328503872743816 -0.6109077379682833 2.0273019871581215 -1.923769319280093 1.9351171401927447 0.39795380464193403 -1.0548863460797637 0.27457222035877876 2.4286568470618044 -1.9016434339153314 3.3640856265031682 -1.6502682204983063 0.1596989306569508 -0.23271388956209596
-2.543606498527523 -0.6869404006538298 -1.1141284195705328 -3.265348066020938 -2.1001068869349893 -2.0187281294461816 -3.6694069551193453 -4.1658679494002575 -4.3509349265083515 1.0890118270085631 0.023254342542250273 -1.0318217509508165 1.205172468063247 1.259014196474051 1.2295678661884761 -0.15527303367511322 -0.6643632866842623 -1.2578906243925692 0.5702233728750438 -1.4391243437975023 1.7449398384412789 0.624747472064853 -0.023008030859399085 -0.6596787367243994 -0.35283042994073427 -0.46867739640974115 -0.8081715142528856 -0.4101904559174419 -2.9785458792548702 -1.5352931151112914 -1.5507652426049614 -0.7900241539198974 -1.194473079367872 -1.4649824425111866 0.258918830092238 0.5884524942885607 -3.070674933281647 -3.0677832135561487 2.674035219465446 -0.6790576554716434 -0.7393461679490557 -2.5396508563138838 -1.629245595500052 2.734809927550658 1.9512541549639235 1.5392541566415683 -2.1358670752537345 -1.472625046658109 3.611014888333697 1.1135378371743854 1.0376596977888324 -1.5489119914463065 1.4771203634253014 1.1824829968855313 -1.384026374382094 -0.23886499676515632 0.2968922240122177 2.2874909422120346 1.6627177591155686 -4.2295667731107995 1.1304137869941178 2.182506115268512 0.6950514597967384 0.700617126809974 1.9382500293947715 -0.2718977588504092 1.3295680954332136 1.6072883745026707 -0.18189783535149318 0.32686408778395964 -1.3935528258152903 -0.803659485315145 -0.6579833512998474 -1.0711614290907034 -0.8203027502987807 2.1307719201190145 -0.5314573078504394 -0.717786439500409 -3.1206908601884575 0.7758164949609477 0.12861480765763655 3.913424699730035 4.5230152615487915 4.145429221929931 1.3976843314851606 1.2915941872926013 -3.18364586375444 -2.581431539795096 -0.41630839588972174 2.9908246966222234 2.164137125843021 1.77285096302925 2.276215626408532 3.126026156358442 3.065692135355075 -3.128689047902586 0.2653800123365494 2.2778495624675283 -0.4339785594759752 -4.865544566673834 -2.662732135747801 -2.5039690866415585 1.3067441555601624 5.485724216862346 2.527230114052028 1.5841134790481042 0.34746505186376286 0.09034110888841862 0.9012750163777897 -1.3964188345091757 0.542997190169239 -0.07397115217082745 -0.6975513434004567 0.7274982674715342 0.6473464404112915 0.5271823346241694 -0.5197150797128469 -3.0501331045745532 -2.2038131042764046 2.5787953877238294 3.20086197052241 -2.6353342033508227 -2.594329993024319 2.305814937332203 -1.830143368992816 -1.6146949513793871 -1.8511968472290055 1.485615545380506 0.7737030481623707 -0.3948396844929845 0.7693504276206298 1.8458044725688405 -3.2451273680986885 2.3682027555408056 -2.2898417018323984 -3.7494112008581295 -1.7594575724414794 1.9828206169162952 2.5357831458283617 1.3281673584309448 2.0447263532821562 2.8013374789592462 -0.9192480559164427 -1.0808981967624933 -1.4838345422206833 -1.2808354061142004 -0.4868296418387357 1.394071931543554 -1.978105985049445 -0.7387319314038245 -0.3206206779774091 0.15328479960049088 3.255557305182761 1.247680773739103 -0.19468958779952278 -1.0718705393425862 0.3815918183441428 1.2278891929344724 0.7112093005035236 1.465075002224993 0.9279126735699762 0.926054794425631 0.5189360354549772 1.1831396566329235 0.028675256447505452 0.7823303848200656 -1.827578436479117 2.9844326770529506 0.06542506237302925 -1.1505735497714442 -1.5603009500095386 -1.813688565870902 -0.6193144739747398 1.1111184290996152 0.033790980407516 2.148722333949848 1.0767157832500296 0.5936548644251066 0.14836859324579607 0.8405854118072168 -2.782311315565731 -2.3544892626094547 -2.282407614151856 1.3382761647301726 0.6785858580415475 2.2792963222163842 3.187287060051453 1.6952260161559192 -0.7517519978125763 -1.9880952350516727 -2.0177886483510474 1.9811794817684463
-0.8100782443572951 0.2844306012100972 0.6493133343296752 -1.3934425254896712 0.34608308391457177 0.7662633040548739 0.5666600810038176 0.8456234884517565 0.5636873715287389 6.30217545462552 -4.5135188920225815 4.303037331496125 -0.8671510781108873 -0.8566604629922085 0.13708633546375745 -4.07337174184205 5.474381795266334 4.134741917419414 -0.49001858108967866 0.8861101357118932 -0.14445048913831252 -4.131258586856505 -1.3392261873482676 0.27382968576579936 2.4794934700976974 -2.750899634023669 2.3811248629191124 1.311602254983412 4.125036260095876 -1.7787261908631042 -2.400125829501647 -0.7184153313336595 -0.09785104411221858 2.0529975921520127 0.2269224796912995 -0.5079882781942219 -1.4409868509275376 0.8954360410985094 1.648151688375936 -1.990007364472721 -2.3712747095979094 2.1309002181667624 5.101004651522499 -3.2481335019148645 3.2214256536063743 -1.6655241182161125 3.5442621082881796 -2.3823793041515033 1.8676349381803707 0.08004049829335892 0.6734277108793757 1.9567108072031203 -3.027005260307839 2.008331616703206 0.5090295749745426 0.9542117164758211 -2.942315693278242 -0.6215559617107489 0.6569425687401589 0.4212937649194551 0.8925846876926434 -0.1064459848700812 1.4580402068653986 0.7414369890398135 0.486898033182826 -0.7239964249658628 -1.506438138552812 0.5670722288405718 2.0290498230871634 0.4195693260291806 -0.040722417420026635 1.7401408743907387 -0.9835562310762092 0.26661851272934084 1.0686312064696821 0.2606712940069704 0.3826583119354442 -1.2009879976682543 -0.8261682079406224 -2.0573183310145535 0.23209168259706484 -0.7492657410556128 -0.8031288096226554 -1.1027829126507267 1.3964304044734015 0.9300803706452562 0.2824711634908813 -1.2585264582043552 -3.5659388219306654 1.1920405586669793 0.9172474805466461 -1.0063806851698927 -1.1468351657749345 1.1127004288747546 0.9394602691982594 -3.33643392622417 -2.008366069485567 -0.6195533294584233 1.5433640650448839 -2.4975711535350147 -2.7224123252172534 -2.7525546531285885 0.9497847910527191 2.2609954670246677 2.5767073948465495 -0.155202585448494 0.30900931899072587 1.5881953624269616 0.03156954727616499 -1.4699654975480747 0.836115034740689 0.5569719071817762 -0.8039536195167962 0.17336023019412725 0.2009337689370217 0.998059566898707 -1.1547125116404822 -1.062442304050151 -2.319421472372044 0.445183169942543 0.40950165738053346 -1.1362733310986883 2.215198720405527 2.880431039958304 1.2004251831862487 0.974523945670612 -1.2062836988495549 2.730242619894949 -1.0523106149327877 1.4332948815999187 -1.159548242466229 2.1596842322779906 1.0450670459964968 0.5383941441795889 0.18699864691316825 -0.10665475844677762 -2.06525352670123 0.13059892796720088 -0.0009693058918047823 1.8488851683766931 -1.6987563979066809 1.1449436051791766 0.7143403899333375 -1.0383024735791537 -2.14306513566407 0.8738770839808111 1.0480729227023564 -0.8374250118013642 1.7835084427430963 1.03600750689739 -4.933542789090677 -5.0277688348558 3.8339878964589453 3.794634077251671 5.421876526278766 -4.3342834339945995 0.231668221906401 1.484353647948947 0.2162799123757888 2.0789384803874906 -1.9352577795356671 -2.1470606299767088 -4.362585880483719 4.846663927719247 -6.457763191327576 -0.5173008138443994 -0.10488172570675486 1.3987456828701395 -1.044653355497846 -3.0810531911921775 1.6198996355087778 -4.863272739920521 3.861901592150078 -5.422700564841958 2.146889137395851 2.7971504374610925 -1.557406402070563 0.8119626058642017 -1.322207027082452 -1.209065632470066 1.1520061684529126 0.004623100594308167 -0.859596405692081 -0.7038436041670716 -0.47935467361792927 -2.2633436555418696 1.2072026111193983 2.065771089767597 -1.1230843432122402 3.686905883235057 -4.980372347849706 -4.862315003992942
1.8745288370867266 -0.08222567887013581 -0.0011680521661721819 3.357457065443056 0.34213541212073334 -0.25902655931469587 -0.5021973825440577 -0.25976035215692683 -0.9870501031620807 -0.6843284169522795 0.5806782496597805 -1.7786981658386463 -1.1112282152046022 -2.271828038863797 0.7771454981850164 -0.07210684526857905 0.013213927587112725 0.07444346382155566 -0.7917681331941977 -0.3836584710651844 -0.8849595670472178 -0.505093216034614 0.4036847935884403 -1.5314112635583819 -1.5817809742601854 -2.0986930373065986 -0.15547769348675158 -0.7326597570678156 -3.2056010278692924 0.09692236165036211 5.735859130114367 7.849846631686191 -7.100415825807624 -1.6116173408953278 -1.950759988936324 -2.238060969715681 1.3858320601322647 1.0823377574224973 0.6539168945399576 1.7098730766451329 1.7779229782355186 1.4661263263076427 -0.016563817895952116 -0.029367140308207484 -0.9022443222695946 2.517118479539323 -3.2214842747584522 -2.2765449847234924 -5.33879338450434 -6.379307778133149 6.094034626417098 -2.007103914943692 -1.1680951035949754 -2.028698353285016 7.567707140503115 8.088058825358697 -8.133741672107792 -1.5223087870364815 -2.0600673545146004 -2.2598220155418565 1.922841151038869 2.09894063454103 1.1968395227175195 1.1914805723984512 5.914662385700937 -0.743169655460204 -1.0382006578939666 1.0923416627127445 -1.2129120027993496 -1.441137260462473 2.286063979957521 -2.404528329444717 0.5225157823864356 -1.8983282534991697 -0.05728494976439812 0.27436087567892103 -0.7221187483271757 0.1706423170423319 2.200586884029623 -1.6568913822417786 -1.7240771360596565 -0.1300991055126469 0.8576716778655422 0.46485185201606394 0.30997425400715645 -1.0692197319833006 0.29426198547822224 1.6149399775106574 -1.31830075004951 -0.9759293106585709 0.8365117559584755 -1.4547527943633785 0.2420842750334024 -2.7577169140558184 2.311360806851097 2.029128498843899 0.12160829443281637 0.7101687750541511 1.0365523236572665 0.24065911255110167 -2.7153019394247173 -1.2237150069521248 -1.4267599086948783 4.440699336957693 -1.5162628379527179 -0.1267553858513946 -0.5815172006213081 1.248229190043405 -2.8891409090274762 -2.0663670714803835 5.075718880372517 -2.0469912380569326 -0.7517291149944408 0.012054617171688917 0.32818460636759605 -0.30541260277840304 -2.715175184038866 -1.035129218057495 -1.3904721300074376 4.094748664855929 -6.142410960837958 -8.482918821566656 10.201863778606068 -2.74730394625261 2.1999181400973726 -3.3699837371551573 1.108071928963808 2.4069269115838807 1.1068992488119451 0.2012746972162082 -1.4707090605823188 -1.2852785294872189 -2.339890281749357 2.7681216543289104 -1.8172693412436252 1.0829861896397737 1.6717248477101854 0.880621087572864 3.8450546957960676 0.9646344544710419 -1.0669581896426334 -1.30251649063206 2.4599867675233376 -0.7377513126581101 1.938065167077475 -0.7317099915600367 3.1814673680458823 1.1280877099641025 -0.31544710419626965 0.19743578308609222 -2.535938183348988 -3.320548365342165 2.4426529042305805 1.8899816813066868 2.970597313831755 -0.6214037524036008 -4.954471054602912 -4.487129346285459 -3.567064708004992 2.015698341480922 2.786056641540776 4.925892985854904 0.34249896610773917 0.4282701962372883 1.0434410803572998 4.250840851998228 -3.6394518035181513 4.195248202334588 -1.5554793602511792 1.637101601209361 -1.0194208061833026 -1.9675863164650438 -1.1870482476587105 1.64745209120575 -1.900671042699733 0.4581420440960562 0.6231999250720751 -4.637522940381085 -4.920204934331191 5.064974497371819 5.140178750618799 3.7003051873600983 -3.9702082843779816 0.5584099251798834 1.6316086964155898 1.3536680738052105 1.2469081572391363 1.7978526272799102 -1.240763220683663 0.9931754993335281 -0.1346065064646972 -0.08604248151306472
2.195224077055813 -3.0559574245658143 2.1522732845259 2.077850132419318 1.0315430433681332 -0.7488669629552974 1.3460275265408173 -1.5400010621099218 1.8637597714956806 -0.4232213209594711 3.032827266306254 -0.3349944302005779 -2.8728686542300137 -0.39857292628317165 0.6353280757941767 -4.489514301577868 -5.738946767900755 -4.284182660683467 1.7443027190779121 0.7237542270480697 -0.44146201233721394 5.218428218450006 5.344608191413904 4.278207931157271 1.2282509471492653 -0.8114442714668864 1.3783480930503937 -2.5669824542493016 -0.15982208649837637 0.8543325861899803 -4.226018650748225 4.860576681145597 6.060427479885614 -3.144016936508908 0.2991627652139493 -1.303194233425375 -0.4908379916671805 -1.1197781616571423 1.1579161061794445 -0.6899735310531988 -2.9631123183086197 0.24416892547657307 1.326947369980915 2.21947549340401 2.5955486959227687 2.5202228294962596 -2.0038684387255294 -2.763386710747086 0.04693086022358369 1.7426376726706634 1.6287331746400078 0.292217958465 -0.8124452019275751 -1.388689327075402 4.349702596763147 0.3295339213066389 -0.6525284988328633 0.5022454621731737 1.5579651027875105 3.216517674781796 -0.5380372750608025 -0.28784965419397524 0.5168007342795292 -1.971631433068695 3.3805877379232485 1.7785960930431433 -5.0254003346236225 6.03456141075213 6.514679187788329 -2.753255792960671 3.1722589620737365 -3.0746938246330533 -0.7936692068716525 -2.217164585882646 -0.8839342111064971 0.9327985409073677 1.1456547723135884 -0.7046884686658702 2.965043473893061 -3.039464569117114 -2.0909234206635086 -1.696964853223897 -1.7282310103270302 1.3292585346125945 -0.7865747619187163 -2.1010638515316202 -1.0495955299944697 1.3666256624071431 -0.6535574543180098 -1.762715674367461 -0.40757127312704006 -3.5595578581049856 -0.21901659458066153 -1.3847054027269894 2.6266665003734957 1.1636566082076476 2.6091056086715967 -4.670708683104434 -2.3745245839937748 -4.2594604753464385 1.888332061518406 1.511334804523481 1.3478931189946461 2.65834171998959 2.755249169241616 0.627762604742093 -1.35072338935459 0.5907837135248987 1.9840182367688217 2.5076133682623656 3.375604682886361 0.36004545963193474 0.7096103314475198 0.4676345569675237 -3.245262351014656 -1.797000820802576 -1.9564223294284242 1.6626925623045883 1.0921020358981126 2.1660978491138176 -2.2694279140627365 -2.66263391960704 3.112653334595962 -0.17323553169080486 -1.5492431495334802 0.46446567232123875 -0.7853460317179377 3.226585086320127 -0.8855028411451975 1.5114785291901969 -1.800777514236189 0.28315404849051884 -0.3028083323863366 1.0437398425446414 -0.42448784637672055 0.0592839824722979 1.1580932551872571 0.28984714423997826 -0.9936436972191984 -0.5556272202284238 -2.010332963403951 1.5422705748703889 2.5365089682507933 1.7820817375988984 -3.2629417705722905 3.509397949421143 2.198698665867975 0.6275654011296224 -0.3188934108736572 -0.8127228810689939 1.4537865737953672 -1.218588741469153 -1.3858086630934972 -3.4380068992726667 -0.1809678673380561 -0.7783156072337176 0.6592658175566968 -2.6564684142262767 0.07689089692078371 -0.9465930235882988 1.179303570716285 -2.3557581020195495 5.623522233681148 -6.2073392860802254 -4.8121712932590155 0.1164779151847865 -1.0874478249555528 -1.4439713874771583 3.1289127338776175 -1.9056150169685697 -0.6923176058053431 0.7814266420588735 0.39704903343947745 -3.8824210522596685 0.42345991933283844 1.6476775769529945 -1.3555388084653623 4.559470419052032 -7.201429069697908 -4.235258681289254 1.8582686664741221 1.7531167178251164 -1.9896998605346314 -3.1848465689307606 1.9628318324991938 -1.7144776652966796 -0.8335539588817321 0.04730624128513144 -0.31158042215201176 -1.093154645532343 2.5348781175155892 -1.3188630503108836
-2.7870112921445616 -4.1688026065485495 -2.1156710599218336 -0.5564692565137449 -2.1082621690522725 -0.854869946750689 -1.18650368800915 -2.5399221076973997 -1.9548619269198397 -2.149254552304234 -0.7881639607827071 0.6368637957124128 3.0002989546612455 2.59543968114873 4.114372095513811 7.296297634143033 -7.478569565004494 5.439458758136903 -2.4234866157147748 1.0236716110398563 2.1513404882989855 1.1310449928202133 -2.7534761365015936 -0.32629818797816057 -0.6581805549123181 0.08606664988278082 1.613779124433337 0.23146587608760782 0.5119241229135184 4.279790702263358 0.4222029069972858 -1.6017743866629768 3.7137484573491975 0.4103822602132739 0.9128768622827761 -0.6924381905436074 3.6412464335247288 -0.6853928536610518 1.0856549947211882 1.878159234750462 2.2758818972181962 2.6026143445202985 0.2992846355037942 -0.6161813276623969 5.005922685514985 -1.334979753367088 0.41985600403166395 -1.0721675017577146 -1.9263831027538565 -0.9999745245332327 0.3498880594829587 0.27203994085522826 0.03626078210424723 1.3831195462971082 -2.271721080972288 1.745767990769529 2.1247416547645344 1.4886571604203072 -0.5599019363443777 4.884241628862705 0.9047069248774741 0.9417174406635525 0.3492054315936373 -2.1117706964261633 -1.1245354738364697 -3.441853783822582 -1.3243446422507452 1.5586035077024576 3.6959412539644476 1.0170970431461324 -0.19929829021612774 -1.0693578002230615 1.6294057752270001 -1.689684774622716 0.9393291429370338 1.4370476637741314 1.2181673376610183 -3.0939698992538456 -0.7518846667356986 -3.597983766181352 -0.9881513066460593 2.4188177494841954 0.6225980298220181 1.8695396114022513 -2.1830380765125823 -2.433532429986551 -1.9764933891466865 2.391501835278062 0.07073001952571045 1.1397913715542758 -1.2232239262483193 -0.044256398715214106 -0.9671932163371535 -0.509732000358206 -0.7507726646184424 0.6319046519349246 1.3422624030714303 1.1706613216602548 2.167283384781487 3.5096645728189686 3.377861340131021 -3.1884299154066444 0.3753404381177923 -0.9777877040235482 -0.9638633806329723 -1.1541754081900897 1.3837839193539845 -0.7611738053471085 -0.625746859863645 -1.4807098805487726 -1.9025967989675359 0.3415535714753344 0.7042284983103162 1.4255471193336997 1.0241374949326814 -2.5549095822451675 -0.09462019587974672 2.6990677369540417 0.08785613768303578 -0.635510624118628 0.44460390040030523 0.3468950382929058 0.7650075772709019 -2.3244883453719907 -2.0987616857610045 3.763423970197454 -0.42102482752878456 0.9064048814051874 0.9657708820683303 -1.5894181790904691 2.3785840987751294 1.657127923732617 2.781940048269241 3.762316596065888 2.586305580057946 0.04820535606063311 0.8208007729811219 -0.6257183206185546 -1.450348751758412 -1.2645713788468542 -0.6184014752421672 -0.17747785190692658 2.8777411518309663 -0.03940061328480956 -2.867970445597448 2.071504649817265 1.5162247856259305 0.5029699990440241 -3.008725231051728 -0.599396137784258 -5.323004239990885 4.888537428024581 -6.987154360677605 -0.06024403239272206 0.13299056812782903 0.15981874406426672 -0.5372458895077586 -0.4264850793124074 0.18032200622394107 2.962833096505304 -3.44658049987429 -3.880484240248272 2.6862479594815545 -2.688034361958016 -4.245307066664193 -0.17609588395773543 0.19948392386437258 -0.9514166702291871 -1.153064691624414 -0.1497384770101292 -3.518276739968012 -0.28139798503136054 1.1583493370621214 -4.898508166084047 1.7109922778512405 0.9413292040861981 -1.965167936831538 -3.176290708940949 1.8288110233346373 -5.455229647817915 0.4510928505587586 -0.15912557465198401 -0.397911895660405 -3.5297495164943014 5.3628558247701825 -3.170376914559675 -2.2478995530726578 1.4283095125701852 1.3744844963299296 -0.2569416517612091 2.547048691439852 -1.1202928965100318
-1.3690957212141905 -0.40857194647741246 -0.7938106175455232 -2.068863355539676 0.6679312065411788 2.675458325065218 -3.5057079021640654 3.2681821930356234 5.359206143832739 -1.6107094843690775 -0.942476430316764 -0.03206988395135122 2.4194163023001427 -0.5263881208576483 -2.109052269053736 -3.392156673707771 4.648190190286944 3.904433294864702 -0.34022405403063344 -3.340406537718673 -1.1331540687434163 0.693708829725915 -1.916822455648615 -1.1476172953565977 -1.5381953763597511 2.922702804143321 -0.106513604883223 -1.5092439834327234 1.1802934454333802 -0.584198089887581 -2.10963308125787 -0.3885975602380146 -1.2309367215115445 -2.174205822932933 -1.2476424643019997 -1.1661140686092044 2.411726389855053 -1.4963612139327842 -0.48213275058369875 -1.1400492532013526 3.0983526017025738 -2.4427776027339028 -0.25477652578909027 0.501068411145937 -0.19117283289551593 1.1234350416834393 -2.0076482174829358 -4.219839518520706 1.0502321351372041 1.8429199519321937 -0.8189490644843638 1.6919666286783572 -1.7505564132971076 2.6742514492413103 -2.053905962898895 0.6086698497767 2.031154271024676 -1.9506090651807566 -2.2184650498616243 -1.668812816269713 5.1504009425674395 -2.9645225683925847 -2.451611141865133 -3.4245913971977084 3.060593380675929 2.546865886005085 0.222292694228772 -2.72078276003363 -1.7958034580603652 3.860462545710706 -0.06049574339221194 -0.8803626917051548 0.04225170958035949 -0.21607088168877625 1.5774376096898253 -2.8466138342985423 -1.0839938049686815 0.1850536073716555 0.45267587877516235 2.008034397177761 -0.5906248193495311 -0.6031304080157096 -0.8907018688476338 -0.4452063098709946 -6.173502025815807 6.4344437998753445 8.105333039058111 -1.273352467473594 1.5076552987893648 -0.7849004595400869 2.3014237502430426 0.8787053586073899 -1.3868129359882952 -1.6193527618663726 1.1134720169334564 1.438782129966735 2.909464708186493 -1.1566704066978013 -1.7232996344636835 -2.706565330882668 2.6213060073925307 3.2900023742345077 -3.116362922237065 2.08240458455922 -2.3719200564913923 2.90956780942326 3.150253147226607 2.640445556435459 1.0730653309816358 -1.058091997501255 0.12279537276238207 0.43568088687906253 0.39574291303354425 1.7476053010885837 1.5663157887450507 1.3219306334926137 -1.1693690852113925 0.19924095461563107 -1.2539884611246854 0.7029956543444796 0.7260355668830787 0.2338793706251069 -1.3750321413032836 4.589540498964535 -3.435355834803064 -3.3851594164543313 -1.1424210958676388 0.9785731760393213 -2.847505749985193 0.6267477903243336 -0.22246804346437168 2.4740761557368685 4.889073760144025 -7.2229772281823275 -7.098494183304878 1.9236759882353387 -1.6759957071713973 -2.827299964461279 1.2178045550049608 -0.6974366721994633 0.24379714395945107 7.585779424623793 -5.637516748188027 -7.436115766715658 -2.31995369072643 -1.1010055090353297 -0.7210671671342097 -1.5472078642710063 2.8993569303285294 2.0722692958974314 1.2487652650525332 0.013043206337203343 -0.5700410816609086 -0.8005602775645309 -1.6643624938078432 -1.0864366100822194 -5.268177779069308 5.321083368819087 7.944621607976247 2.0017151398279527 -0.9396585012519947 -1.27044917778387 1.1712344205549055 1.0981680395865345 1.871130867148771 2.4093167519722956 -1.3500261061772492 2.5691041285779948 -0.5560707355237456 -0.35140912411317543 3.0100979430295385 -0.16449892314875542 -1.4536940140815608 0.6810908838515883 -1.9470380600000465 4.06323053964299 1.9598938329167925 0.8987674194645876 1.164193197437408 0.2458005475427251 -0.4846151506859202 -1.3620012762612543 0.04037634693451756 -0.5887725966321409 -0.5406523440861463 0.5525789203204032 -1.0481248589862144 -1.4450293964280276 -0.13752702254560187 2.846503019752291 -2.3355358614354036 -2.184467609870257
0.5634428596181006 1.6495989623454237 -0.4899699872399303 -2.805225501159743 -1.1998430854305338 -0.792026786172223 1.4776852347898357 1.7668744337308409 -3.302144666023997 4.356191546921601 -1.2687018560754602 1.317194404359209 -1.1295257279622095 -1.3822834235490582 -0.11870603318435687 -0.061477904799823166 -0.09510202061217168 -0.04949964939202443 -1.2637835928382364 0.12291775727285928 0.05216202671553597 -3.745547089917033 -4.454223339586058 4.613607052995435 1.1776830043937265 5.051012635875089 -1.0883528532683255 6.052302793895951 5.004210330809569 -5.493399474019417 -1.4538369674173284 -2.097166059139111 -1.6322543004193888 -0.18490062673355898 -1.6838013192587453 -1.1061875674569013 0.5046946950446146 2.180852381715173 0.9956908095562141 -4.079048480511853 -3.47138161807837 3.213901577315188 3.2420646700129647 3.458725876987572 -4.093854692286749 2.905710126240067 -2.9017120608242672 -2.124723399932089 -1.25047427732384 -0.21881810541661023 0.8335997245180031 3.143110879754871 2.743562734042623 -2.9551326425372526 1.9316176116799184 -0.9024698080168393 0.9606795835883519 -3.305984094374745 1.0404673424409565 1.1791868426327627 2.562146723423555 -1.2001382480734493 0.16211679606982404 -3.3627715356774344 2.979120777921734 2.2413157292075527 2.127241281257936 -1.5679201571176933 1.1008353020060526 0.32483343050717606 -1.8769078788418643 -3.1051608828736588 0.5839967725100522 0.9852197348215612 0.342148781857172 0.6170909839608598 -1.9225557585879665 0.3080754943225469 1.6284578094914341 0.8764469015905163 -1.116574052897548 2.658528896299731 3.0688851883710764 2.7199250400190254 -2.187077022468646 -0.14752167186446852 -2.4699366796471978 2.044819170106278 1.7953301179683727 1.7185232961209629 -1.0913168209926558 1.449175043165285 -2.1097513520032893 -0.12431232362754076 0.929453792804851 -0.11036563163946154 1.3618215561502804 3.1399854467520116 1.36673544851213 2.128366653111631 -2.2168511684072856 2.306502964538163 -3.8484308113571526 0.4889991386862288 -0.9747178068489728 -2.805718381635762 -2.279026613494765 3.1988328559075234 1.8825578780387902 0.33253568424744023 0.6112800337060376 -4.200708711228527 3.8222991472671075 -2.8761997754857758 0.8119965444259306 -1.0030158824627178 -0.872245204804343 -0.12830241862354033 1.298773221539544 -1.3629091327875043 -1.9499058684661452 0.46292146776257054 -1.474587055480486 1.8154996509377122 -2.256487808962301 -2.594048200117842 -2.8141883667799856 -4.758908577280132 2.285782187051044 1.2380825885277065 2.8082771435018734 -1.1582477784872502 -6.11669247302593 0.252068639939624 -1.2607273225104159 0.7464123307672177 -3.1892886638625138 -1.297825512914294 3.775966582749155 -4.15080745552271 4.810412658696696 -0.4554693823598994 -2.1001688505211766 -2.3159114023362566 -3.113713143319044 -1.3791387072724892 -0.6480732912749871 0.9793769028875391 2.953416174066778 0.1526721057171564 -1.0806205176210746 0.7583913575059648 -0.14123840995891804 2.99337780206138 -2.8690279403276846 2.722923717636033 -1.9504877091115438 2.726494465706427 0.6139323837272201 0.6765310323950477 1.6753393045343212 0.9439782116732711 -0.5113417680474871 4.8674541249917205 -0.8618849446159415 0.9036406883964889 -3.8702782462495477 1.326676118597399 -2.248565983012063 -1.7306858996254257 2.910015952704272 2.4023004685554623 -2.4093792297791152 0.044964994746464496 -0.6742113831229356 2.223061153872739 0.7946773364211926 0.2912206275487372 1.8545356817942515 1.234939929133667 -0.1460196333976453 -3.5779764698214893 0.33702637302894217 -0.23654637593430877 -1.3996977623707638 3.030929535062909 0.7591830001693248 1.0799594869983078 -0.3826837658567409 -2.341747903783386 -0.26508073592857573 -0.0719050136704181