An instance of this daemon is already running

     Program PWSCF v.7.1 starts on 10May2023 at 11:44:11 

     This program is part of the open-source Quantum ESPRESSO suite
     for quantum simulation of materials; please cite
         "P. Giannozzi et al., J. Phys.:Condens. Matter 21 395502 (2009);
         "P. Giannozzi et al., J. Phys.:Condens. Matter 29 465901 (2017);
         "P. Giannozzi et al., J. Chem. Phys. 152 154105 (2020);
          URL http://www.quantum-espresso.org", 
     in publications or presentations arising from this work. More details at
     http://www.quantum-espresso.org/quote

     Parallel version (MPI & OpenMP), running on       4 processor cores
     Number of MPI processes:                 4
     Threads/MPI process:                     1

     MPI processes distributed on     1 nodes
     707031 MiB available memory on the printing compute node when the environment starts
 
     Reading input from pw-si-86.in
Warning: card &CELL ignored
Warning: card / ignored

     Current dimensions of program PWSCF are:
     Max number of different atomic species (ntypx) = 10
     Max number of k-points (npk) =  40000
     Max angular momentum in pseudopotentials (lmaxx) =  4

     IMPORTANT: XC functional enforced from input :
     Exchange-correlation= PBE
                           (   1   4   3   4   0   0   0)
     Any further DFT definition will be discarded
     Please, verify this is what you really want


     gamma-point specific algorithms are used
 
     K-points division:     npool     =       2
     R & G space division:  proc/nbgrp/npool/nimage =       2
     Subspace diagonalization in iterative solution of the eigenvalue problem:
     a serial algorithm will be used

     Message from routine divide_et_impera:
     suboptimal parallelization: some nodes have no k-points
 
     Parallelization info
     --------------------
     sticks:   dense  smooth     PW     G-vecs:    dense   smooth      PW
     Min        1910    1910    507                91850    91850   12519
     Max        1913    1913    512                91853    91853   12520
     Sum        3823    3823   1019               183703   183703   25039
 
     Using Slab Decomposition
 


     bravais-lattice index     =            0
     lattice parameter (alat)  =      19.7240  a.u.
     unit-cell volume          =    8272.8213 (a.u.)^3
     number of atoms/cell      =           64
     number of atomic types    =            1
     number of electrons       =       256.00
     number of Kohn-Sham states=          154
     kinetic-energy cutoff     =      30.0000  Ry
     charge density cutoff     =     120.0000  Ry
     scf convergence threshold =      1.0E-06
     mixing beta               =       0.5000
     number of iterations used =            8  plain     mixing
     Exchange-correlation= PBE
                           (   1   4   3   4   0   0   0)

     GPU acceleration is ACTIVE.
     GPU-aware MPI enabled

     Message from routine print_cuda_info:
     High GPU oversubscription detected. Are you sure this is what you want?

     celldm(1)=  19.724029  celldm(2)=   0.000000  celldm(3)=   0.000000
     celldm(4)=   0.000000  celldm(5)=   0.000000  celldm(6)=   0.000000

     crystal axes: (cart. coord. in units of alat)
               a(1) = (   1.000000   0.000000   0.000000 )  
               a(2) = (   0.000000   1.027794   0.000000 )  
               a(3) = (   0.000000   0.000000   1.048965 )  

     reciprocal axes: (cart. coord. in units 2 pi/alat)
               b(1) = (  1.000000  0.000000  0.000000 )  
               b(2) = (  0.000000  0.972958  0.000000 )  
               b(3) = (  0.000000  0.000000  0.953321 )  


     PseudoPot. # 1 for Si read from file:
     /home/ppiaggi/pseudos/Si_ONCV_PBE_sr.upf
     MD5 check sum: 8553c464762ac42b85b1eed164b4d029
     Pseudo is Norm-conserving, Zval =  4.0
     Generated using ONCVPSP code by D. R. Hamann
     Using radial grid of 1510 points,  4 beta functions with: 
                l(1) =   0
                l(2) =   0
                l(3) =   1
                l(4) =   1

     atomic species   valence    mass     pseudopotential
        Si             4.00    28.08500     Si( 1.00)

     No symmetry found



   Cartesian axes

     site n.     atom                  positions (alat units)
         1           Si  tau(   1) = (  -0.0163470  -0.0028784   0.0031842  )
         2           Si  tau(   2) = (   0.0070653   0.2459196   0.2631881  )
         3           Si  tau(   3) = (   0.2374244   0.0068539   0.2849860  )
         4           Si  tau(   4) = (   0.2550997   0.2383673   0.0128760  )
         5           Si  tau(   5) = (   0.1289447   0.1331598   0.1236185  )
         6           Si  tau(   6) = (   0.5180425  -0.0096534  -0.0087942  )
         7           Si  tau(   7) = (   0.5137545   0.2662167   0.2731989  )
         8           Si  tau(   8) = (   0.6250994   0.1176966   0.1223073  )
         9           Si  tau(   9) = (   0.7389659  -0.0117684   0.2747183  )
        10           Si  tau(  10) = (   0.7473179   0.2678015  -0.0131671  )
        11           Si  tau(  11) = (   0.0031824   0.5159728   0.0195508  )
        12           Si  tau(  12) = (   0.2370430   0.4837992   0.2694463  )
        13           Si  tau(  13) = (   0.1413497   0.6375006   0.1482502  )
        14           Si  tau(  14) = (   0.3721654   0.3756080   0.1250176  )
        15           Si  tau(  15) = (   0.5160039   0.5124000   0.0112677  )
        16           Si  tau(  16) = (   0.6344896   0.6245208   0.1328866  )
        17           Si  tau(  17) = (   0.8778352   0.3917336   0.1356506  )
        18           Si  tau(  18) = (   0.7681050   0.4960114   0.2690926  )
        19           Si  tau(  19) = (   0.0165546   0.7686807   0.2707130  )
        20           Si  tau(  20) = (   0.2471291   0.7470804  -0.0118670  )
        21           Si  tau(  21) = (   0.3820622   0.8643875   0.1178728  )
        22           Si  tau(  22) = (   0.5009433   0.7631265   0.2729861  )
        23           Si  tau(  23) = (   0.7491823   0.7680710   0.0100574  )
        24           Si  tau(  24) = (   0.8838125   0.8650515   0.1264878  )
        25           Si  tau(  25) = (  -0.0017311   0.0101882   0.5437259  )
        26           Si  tau(  26) = (   0.2523157   0.2325139   0.5584905  )
        27           Si  tau(  27) = (   0.1087998   0.1344926   0.6603990  )
        28           Si  tau(  28) = (   0.3940816   0.1222321   0.4099974  )
        29           Si  tau(  29) = (   0.5178794   0.0134194   0.5392798  )
        30           Si  tau(  30) = (   0.6194541   0.1257564   0.6790196  )
        31           Si  tau(  31) = (   0.8667251   0.1364823   0.4085110  )
        32           Si  tau(  32) = (   0.7384700   0.2619487   0.5368698  )
        33           Si  tau(  33) = (   0.1356960   0.3663573   0.3935205  )
        34           Si  tau(  34) = (  -0.0037989   0.5172709   0.5479281  )
        35           Si  tau(  35) = (   0.1314212   0.6352662   0.6604237  )
        36           Si  tau(  36) = (   0.6470985   0.3654307   0.4075213  )
        37           Si  tau(  37) = (   0.3654857   0.6336947   0.4072814  )
        38           Si  tau(  38) = (   0.3879159   0.3728559   0.6569184  )
        39           Si  tau(  39) = (   0.5080528   0.4910951   0.5278837  )
        40           Si  tau(  40) = (   0.6480701   0.6435413   0.6719817  )
        41           Si  tau(  41) = (   0.8725489   0.6329014   0.3855078  )
        42           Si  tau(  42) = (   0.8876152   0.3639567   0.6740488  )
        43           Si  tau(  43) = (   0.1408293   0.8806780   0.3851861  )
        44           Si  tau(  44) = (   0.2436235   0.7624365   0.5574126  )
        45           Si  tau(  45) = (   0.6393958   0.8948742   0.3993751  )
        46           Si  tau(  46) = (   0.3799244   0.8713854   0.6650269  )
        47           Si  tau(  47) = (   0.7462180   0.7429898   0.5510033  )
        48           Si  tau(  48) = (   0.8996149   0.8841741   0.6602967  )
        49           Si  tau(  49) = (   0.0172388   0.2625064   0.8230927  )
        50           Si  tau(  50) = (   0.2424943  -0.0177459   0.8244678  )
        51           Si  tau(  51) = (   0.3707881   0.1370259   0.9390212  )
        52           Si  tau(  52) = (   0.5192035   0.2344672   0.8041011  )
        53           Si  tau(  53) = (   0.7443175  -0.0181452   0.8012058  )
        54           Si  tau(  54) = (   0.8769713   0.1174392   0.9247039  )
        55           Si  tau(  55) = (   0.1401451   0.3696479   0.9638307  )
        56           Si  tau(  56) = (   0.2666368   0.5150791   0.8076838  )
        57           Si  tau(  57) = (   0.6425670   0.3636902   0.9385298  )
        58           Si  tau(  58) = (   0.3917327   0.6378950   0.9582531  )
        59           Si  tau(  59) = (   0.7663595   0.4878493   0.7918665  )
        60           Si  tau(  60) = (   0.8922324   0.6322416   0.9447967  )
        61           Si  tau(  61) = (   0.0004665   0.7530549   0.8217832  )
        62           Si  tau(  62) = (   0.1349484   0.8759181   0.9283757  )
        63           Si  tau(  63) = (   0.4913969   0.7695870   0.8229115  )
        64           Si  tau(  64) = (   0.6259616   0.8710685   0.9491780  )

     number of k points=     1  Fermi-Dirac smearing, width (Ry)=  0.0100
                       cart. coord. in units 2pi/alat
        k(    1) = (   0.0000000   0.0000000   0.0000000), wk =   2.0000000

     Dense  grid:    91852 G-vectors     FFT dimensions: (  72,  72,  75)

     Estimated max dynamical RAM per process >     147.91 MB

     Estimated total dynamical RAM >     569.22 MB

     Initial potential from superposition of free atoms

     starting charge     255.9608, renormalised to     256.0000
     Starting wfcs are  256 randomized atomic wfcs

     total cpu time spent up to now is        5.1 secs

     Self-consistent Calculation

     iteration #  1     ecut=    30.00 Ry     beta= 0.50
     Davidson diagonalization with overlap
     ethr =  1.00E-02,  avg # of iterations =  3.0

     Threshold (ethr) on eigenvalues was too large:
     Diagonalizing with lowered threshold

     Davidson diagonalization with overlap
     ethr =  7.81E-04,  avg # of iterations =  4.0

     total cpu time spent up to now is        5.4 secs

     total energy              =    -501.95350276 Ry
     estimated scf accuracy    <       2.27965391 Ry

     iteration #  2     ecut=    30.00 Ry     beta= 0.50
     Davidson diagonalization with overlap
     ethr =  8.90E-04,  avg # of iterations =  2.0

     total cpu time spent up to now is        5.5 secs

     total energy              =    -501.85087244 Ry
     estimated scf accuracy    <       0.81366934 Ry

     iteration #  3     ecut=    30.00 Ry     beta= 0.50
     Davidson diagonalization with overlap
     ethr =  3.18E-04,  avg # of iterations = 12.0

     total cpu time spent up to now is        5.7 secs

     total energy              =    -501.69480258 Ry
     estimated scf accuracy    <       3.04079997 Ry

     iteration #  4     ecut=    30.00 Ry     beta= 0.50
     Davidson diagonalization with overlap
     ethr =  3.18E-04,  avg # of iterations =  5.0

     total cpu time spent up to now is        5.8 secs

     total energy              =    -502.07466644 Ry
     estimated scf accuracy    <       0.13047795 Ry

     iteration #  5     ecut=    30.00 Ry     beta= 0.50
     Davidson diagonalization with overlap
     ethr =  5.10E-05,  avg # of iterations =  9.0

     total cpu time spent up to now is        5.9 secs

     total energy              =    -502.08722770 Ry
     estimated scf accuracy    <       0.05602611 Ry

     iteration #  6     ecut=    30.00 Ry     beta= 0.50
     Davidson diagonalization with overlap
     ethr =  2.19E-05,  avg # of iterations =  6.0

     total cpu time spent up to now is        6.1 secs

     total energy              =    -502.09126668 Ry
     estimated scf accuracy    <       0.02319657 Ry

     iteration #  7     ecut=    30.00 Ry     beta= 0.50
     Davidson diagonalization with overlap
     ethr =  9.06E-06,  avg # of iterations =  3.0

     total cpu time spent up to now is        6.2 secs

     total energy              =    -502.09400952 Ry
     estimated scf accuracy    <       0.00183699 Ry

     iteration #  8     ecut=    30.00 Ry     beta= 0.50
     Davidson diagonalization with overlap
     ethr =  7.18E-07,  avg # of iterations = 11.0

     total cpu time spent up to now is        6.3 secs

     total energy              =    -502.09439163 Ry
     estimated scf accuracy    <       0.00078090 Ry

     iteration #  9     ecut=    30.00 Ry     beta= 0.50
     Davidson diagonalization with overlap
     ethr =  3.05E-07,  avg # of iterations =  3.0

     total cpu time spent up to now is        6.4 secs

     total energy              =    -502.09442705 Ry
     estimated scf accuracy    <       0.00054161 Ry

     iteration # 10     ecut=    30.00 Ry     beta= 0.50
     Davidson diagonalization with overlap
     ethr =  2.12E-07,  avg # of iterations =  2.0

     total cpu time spent up to now is        6.5 secs

     total energy              =    -502.09447168 Ry
     estimated scf accuracy    <       0.00006527 Ry

     iteration # 11     ecut=    30.00 Ry     beta= 0.50
     Davidson diagonalization with overlap
     ethr =  2.55E-08,  avg # of iterations =  4.0

     total cpu time spent up to now is        6.7 secs

     total energy              =    -502.09448247 Ry
     estimated scf accuracy    <       0.00000703 Ry

     iteration # 12     ecut=    30.00 Ry     beta= 0.50
     Davidson diagonalization with overlap
     ethr =  2.75E-09,  avg # of iterations =  4.0

     total cpu time spent up to now is        6.8 secs

     total energy              =    -502.09448426 Ry
     estimated scf accuracy    <       0.00000771 Ry

     iteration # 13     ecut=    30.00 Ry     beta= 0.50
     Davidson diagonalization with overlap
     ethr =  2.75E-09,  avg # of iterations =  2.0

     total cpu time spent up to now is        6.9 secs

     total energy              =    -502.09448464 Ry
     estimated scf accuracy    <       0.00000281 Ry

     iteration # 14     ecut=    30.00 Ry     beta= 0.50
     Davidson diagonalization with overlap
     ethr =  1.10E-09,  avg # of iterations =  2.0

     total cpu time spent up to now is        7.0 secs

     End of self-consistent calculation

          k = 0.0000 0.0000 0.0000 ( 11507 PWs)   bands (ev):

    -5.8845  -5.1078  -4.9995  -4.8235  -4.6984  -4.5351  -4.4836  -4.1659
    -4.1164  -3.9514  -3.8496  -3.7383  -3.6331  -3.5969  -3.5121  -3.4695
    -3.3979  -3.3284  -3.2620  -3.1344  -3.0073  -2.9517  -2.8088  -2.0615
    -1.9226  -1.6992  -1.6537  -1.5587  -1.4527  -1.3080  -1.2827  -1.2081
    -1.1971  -1.0956  -1.0915  -1.0404  -1.0006  -0.8826  -0.8242  -0.7656
    -0.6782  -0.5111  -0.4246  -0.3773  -0.0900   0.6945   0.7432   0.8152
     0.9313   0.9462   1.0028   1.0570   1.1529   1.2354   1.2529   1.3519
     1.4267   2.1046   2.1560   2.1918   2.2235   2.3170   2.3405   2.3790
     2.4535   2.4853   2.5109   2.5361   2.5901   2.6238   2.6794   2.7112
     2.7556   2.8149   2.8456   2.8871   2.9453   2.9952   3.0529   3.0844
     3.1434   3.1863   3.2374   3.3230   3.3991   3.4421   3.5413   3.5966
     3.6721   3.7444   3.7634   3.8584   3.8619   4.2160   4.2841   4.3502
     4.5149   4.5797   4.6091   4.6995   4.7104   4.7671   4.8540   4.8762
     4.9278   4.9921   5.1072   5.1340   5.1554   5.2041   5.2567   5.3152
     5.3738   5.4043   5.4687   5.5691   5.5855   5.6304   5.7149   5.7581
     5.8123   5.9625   6.0643   6.1705   6.4780   6.6154   6.6469   6.7360
     6.9362   7.0263   7.1054   7.2550   7.2823   7.3919   7.4622   7.4986
     7.5496   7.6889   7.8902   7.9760   8.0581   8.0859   8.1269   8.1905
     8.3552   8.5119   8.6129   8.6862   8.7196   8.7925   8.8067   8.9346
     9.0126   9.0525

     the Fermi energy is     6.8365 ev

!    total energy              =    -502.09448483 Ry
     estimated scf accuracy    <       0.00000020 Ry
     smearing contrib. (-TS)   =      -0.07984921 Ry
     internal energy E=F+TS    =    -502.01463562 Ry

     The total energy is F=E-TS. E is the sum of the following terms:
     one-electron contribution =     153.03087632 Ry
     hartree contribution      =      38.78172448 Ry
     xc contribution           =    -155.72237635 Ry
     ewald contribution        =    -538.10486007 Ry

     convergence has been achieved in  14 iterations

     Forces acting on atoms (cartesian axes, Ry/au):

     atom    1 type  1   force =     0.09838394   -0.07085667    0.05858047
     atom    2 type  1   force =    -0.05340588    0.02377439    0.01418186
     atom    3 type  1   force =     0.08158516    0.02919037   -0.06949162
     atom    4 type  1   force =     0.05272950    0.05956080    0.05894151
     atom    5 type  1   force =    -0.09744796   -0.14297257    0.09319585
     atom    6 type  1   force =    -0.12925541    0.03485489    0.05726941
     atom    7 type  1   force =    -0.04652801   -0.06654933   -0.04727184
     atom    8 type  1   force =     0.03623856    0.05883708    0.06136012
     atom    9 type  1   force =     0.10656110    0.07427871   -0.09542838
     atom   10 type  1   force =     0.33589838   -0.33327666    0.35748988
     atom   11 type  1   force =     0.09408749   -0.03918394    0.04519502
     atom   12 type  1   force =     0.11632917    0.10604092   -0.05621542
     atom   13 type  1   force =    -0.02191439   -0.01264159   -0.01687451
     atom   14 type  1   force =     0.06693830    0.03335509    0.06678070
     atom   15 type  1   force =    -0.01276286   -0.13653693   -0.00699166
     atom   16 type  1   force =     0.03631687    0.05982500    0.11158665
     atom   17 type  1   force =     0.04256954   -0.12721999   -0.04645515
     atom   18 type  1   force =    -0.11168145    0.02993737    0.03014653
     atom   19 type  1   force =    -0.08364154   -0.07448231   -0.03093892
     atom   20 type  1   force =    -0.03677717    0.01968342    0.15038772
     atom   21 type  1   force =     0.00399425    0.08510103    0.02194301
     atom   22 type  1   force =     0.00720650   -0.03313105    0.00590394
     atom   23 type  1   force =     0.06036999   -0.16808165    0.04316174
     atom   24 type  1   force =     0.03063161    0.13001183    0.08152519
     atom   25 type  1   force =    -0.03040038   -0.07308610   -0.10822979
     atom   26 type  1   force =     0.07117829    0.07318709   -0.12228416
     atom   27 type  1   force =     0.01962823   -0.03074630    0.16090658
     atom   28 type  1   force =    -0.06681821    0.04084676   -0.04510911
     atom   29 type  1   force =    -0.03732792   -0.14493234   -0.02160720
     atom   30 type  1   force =     0.15653540   -0.07237770   -0.08030047
     atom   31 type  1   force =     0.01208445   -0.04827056   -0.03600794
     atom   32 type  1   force =     0.13087327   -0.15043456    0.18671371
     atom   33 type  1   force =    -0.07879349   -0.06316349    0.15618204
     atom   34 type  1   force =    -0.00754051   -0.05795667   -0.08940974
     atom   35 type  1   force =    -0.06215813   -0.06510471    0.14798786
     atom   36 type  1   force =    -0.10730960    0.16895851   -0.14734689
     atom   37 type  1   force =     0.01904583   -0.02625901   -0.00068778
     atom   38 type  1   force =    -0.01033752   -0.01649795    0.09254381
     atom   39 type  1   force =     0.02131100    0.09015121   -0.01300729
     atom   40 type  1   force =    -0.21745261   -0.19170816    0.20204725
     atom   41 type  1   force =     0.05706414    0.04978623    0.09716587
     atom   42 type  1   force =     0.02921096   -0.00134699   -0.05122616
     atom   43 type  1   force =     0.01227708    0.05085543    0.15294399
     atom   44 type  1   force =     0.02990085    0.03820273   -0.16913117
     atom   45 type  1   force =    -0.07966304   -0.08366874    0.10988235
     atom   46 type  1   force =     0.05653729    0.13348183    0.05265123
     atom   47 type  1   force =     0.18652019    0.20482124   -0.23907930
     atom   48 type  1   force =    -0.06633028   -0.02554855    0.04547548
     atom   49 type  1   force =    -0.02714265   -0.04856885   -0.03275770
     atom   50 type  1   force =     0.07744179    0.09722786   -0.13470244
     atom   51 type  1   force =     0.10420888   -0.14212615   -0.12319683
     atom   52 type  1   force =    -0.14556501    0.14781078    0.09776258
     atom   53 type  1   force =     0.03756279   -0.01785749   -0.01725257
     atom   54 type  1   force =    -0.05044617    0.05849429   -0.05823672
     atom   55 type  1   force =    -0.04975840    0.13938325   -0.10602604
     atom   56 type  1   force =    -0.00460212   -0.04322221   -0.00767248
     atom   57 type  1   force =    -0.33546285    0.32410731   -0.32508020
     atom   58 type  1   force =     0.01368467   -0.05367009   -0.13745593
     atom   59 type  1   force =    -0.03347306    0.07977691    0.06606287
     atom   60 type  1   force =    -0.14404784   -0.01627464   -0.05030188
     atom   61 type  1   force =     0.04081970    0.03836543   -0.14147821
     atom   62 type  1   force =    -0.12188047    0.05313466    0.04603516
     atom   63 type  1   force =     0.03544219   -0.04821393   -0.08724496
     atom   64 type  1   force =    -0.01124244    0.09292548   -0.15750997

     Total force =     1.463121     Total SCF correction =     0.000813


     Computing stress (Cartesian axis) and pressure

          total   stress  (Ry/bohr**3)                   (kbar)     P=      117.78
   0.00087531   0.00006632   0.00010365          128.76        9.76       15.25
   0.00006632   0.00081359  -0.00022124            9.76      119.68      -32.55
   0.00010365  -0.00022124   0.00071315           15.25      -32.55      104.91

 
     init_run     :      1.20s CPU      5.07s WALL (       1 calls)
     electrons    :      1.68s CPU      1.82s WALL (       1 calls)
     forces       :      0.04s CPU      0.04s WALL (       1 calls)
     stress       :      0.15s CPU      0.16s WALL (       1 calls)

     Called by init_run:
     wfcinit      :      0.56s CPU      4.25s WALL (       1 calls)
                                        4.25s GPU  (       1 calls)
     potinit      :      0.19s CPU      0.29s WALL (       1 calls)
     hinit0       :      0.42s CPU      0.46s WALL (       1 calls)

     Called by electrons:
     c_bands      :      1.06s CPU      1.13s WALL (      15 calls)
     sum_band     :      0.32s CPU      0.36s WALL (      15 calls)
     v_of_rho     :      0.15s CPU      0.26s WALL (      15 calls)
     mix_rho      :      0.13s CPU      0.15s WALL (      15 calls)

     Called by c_bands:
     init_us_2    :      0.05s CPU      0.06s WALL (      31 calls)
     init_us_2:gp :      0.05s CPU      0.06s WALL (      31 calls)
     regterg      :      0.93s CPU      0.99s WALL (      15 calls)

     Called by *egterg:
     rdiaghg      :      0.41s CPU      1.17s WALL (      86 calls)
                                        1.16s GPU  (      86 calls)
     h_psi        :      0.92s CPU      3.88s WALL (      88 calls)
                                        3.88s GPU  (      88 calls)
     g_psi        :      0.00s CPU      0.00s WALL (      72 calls)
                                        0.00s GPU  (      72 calls)

     Called by h_psi:
     h_psi:calbec :      0.51s CPU      3.40s WALL (      88 calls)
                                        3.40s GPU  (      88 calls)
     vloc_psi     :      0.35s CPU      0.42s WALL (      88 calls)
                                        0.42s GPU  (      88 calls)
     add_vuspsi   :      0.04s CPU      0.05s WALL (      88 calls)
                                        0.05s GPU  (      88 calls)

     General routines
     calbec       :      0.52s CPU      3.40s WALL (      93 calls)
     fft          :      0.51s CPU      0.65s WALL (     127 calls)
                                        0.13s GPU  (      81 calls)
     ffts         :      0.04s CPU      0.05s WALL (      15 calls)
     fftw         :      0.41s CPU      0.55s WALL (    1629 calls)
                                        0.49s GPU  (    1629 calls)
 
     Parallel routines
 
     PWSCF        :      3.11s CPU      7.18s WALL

 
   This run was terminated on:  11:44:18  10May2023            

=------------------------------------------------------------------------------=
   JOB DONE.
=------------------------------------------------------------------------------=
