An instance of this daemon is already running

     Program PWSCF v.7.1 starts on 10May2023 at 11:31:17 

     This program is part of the open-source Quantum ESPRESSO suite
     for quantum simulation of materials; please cite
         "P. Giannozzi et al., J. Phys.:Condens. Matter 21 395502 (2009);
         "P. Giannozzi et al., J. Phys.:Condens. Matter 29 465901 (2017);
         "P. Giannozzi et al., J. Chem. Phys. 152 154105 (2020);
          URL http://www.quantum-espresso.org", 
     in publications or presentations arising from this work. More details at
     http://www.quantum-espresso.org/quote

     Parallel version (MPI & OpenMP), running on       4 processor cores
     Number of MPI processes:                 4
     Threads/MPI process:                     1

     MPI processes distributed on     1 nodes
     706989 MiB available memory on the printing compute node when the environment starts
 
     Reading input from pw-si-6.in
Warning: card &CELL ignored
Warning: card / ignored

     Current dimensions of program PWSCF are:
     Max number of different atomic species (ntypx) = 10
     Max number of k-points (npk) =  40000
     Max angular momentum in pseudopotentials (lmaxx) =  4

     IMPORTANT: XC functional enforced from input :
     Exchange-correlation= PBE
                           (   1   4   3   4   0   0   0)
     Any further DFT definition will be discarded
     Please, verify this is what you really want


     gamma-point specific algorithms are used
 
     K-points division:     npool     =       2
     R & G space division:  proc/nbgrp/npool/nimage =       2
     Subspace diagonalization in iterative solution of the eigenvalue problem:
     a serial algorithm will be used

     Message from routine divide_et_impera:
     suboptimal parallelization: some nodes have no k-points
 
     Parallelization info
     --------------------
     sticks:   dense  smooth     PW     G-vecs:    dense   smooth      PW
     Min        1998    1998    523                97211    97211   13211
     Max        1999    1999    524                97214    97214   13216
     Sum        3997    3997   1047               194425   194425   26427
 
     Using Slab Decomposition
 


     bravais-lattice index     =            0
     lattice parameter (alat)  =      20.8850  a.u.
     unit-cell volume          =    8757.5927 (a.u.)^3
     number of atoms/cell      =           64
     number of atomic types    =            1
     number of electrons       =       256.00
     number of Kohn-Sham states=          154
     kinetic-energy cutoff     =      30.0000  Ry
     charge density cutoff     =     120.0000  Ry
     scf convergence threshold =      1.0E-06
     mixing beta               =       0.5000
     number of iterations used =            8  plain     mixing
     Exchange-correlation= PBE
                           (   1   4   3   4   0   0   0)

     GPU acceleration is ACTIVE.
     GPU-aware MPI enabled

     Message from routine print_cuda_info:
     High GPU oversubscription detected. Are you sure this is what you want?

     celldm(1)=  20.885048  celldm(2)=   0.000000  celldm(3)=   0.000000
     celldm(4)=   0.000000  celldm(5)=   0.000000  celldm(6)=   0.000000

     crystal axes: (cart. coord. in units of alat)
               a(1) = (   1.000000   0.000000   0.000000 )  
               a(2) = (   0.000000   0.960079   0.000000 )  
               a(3) = (   0.000000   0.000000   1.001316 )  

     reciprocal axes: (cart. coord. in units 2 pi/alat)
               b(1) = (  1.000000  0.000000  0.000000 )  
               b(2) = (  0.000000  1.041581  0.000000 )  
               b(3) = (  0.000000  0.000000  0.998685 )  


     PseudoPot. # 1 for Si read from file:
     /home/ppiaggi/pseudos/Si_ONCV_PBE_sr.upf
     MD5 check sum: 8553c464762ac42b85b1eed164b4d029
     Pseudo is Norm-conserving, Zval =  4.0
     Generated using ONCVPSP code by D. R. Hamann
     Using radial grid of 1510 points,  4 beta functions with: 
                l(1) =   0
                l(2) =   0
                l(3) =   1
                l(4) =   1

     atomic species   valence    mass     pseudopotential
        Si             4.00    28.08500     Si( 1.00)

     No symmetry found



   Cartesian axes

     site n.     atom                  positions (alat units)
         1           Si  tau(   1) = (   0.0044074   0.0171405   0.0059965  )
         2           Si  tau(   2) = (  -0.0106370   0.2442841   0.2295985  )
         3           Si  tau(   3) = (   0.2559912   0.0119331   0.2332461  )
         4           Si  tau(   4) = (   0.2561473   0.2643065  -0.0058677  )
         5           Si  tau(   5) = (   0.1165352   0.1363101   0.1326166  )
         6           Si  tau(   6) = (   0.5036491  -0.0072280  -0.0170572  )
         7           Si  tau(   7) = (   0.4844635   0.2619760   0.2513339  )
         8           Si  tau(   8) = (   0.6075474   0.1392211   0.1353953  )
         9           Si  tau(   9) = (   0.7367967  -0.0173723   0.2527214  )
        10           Si  tau(  10) = (   0.7418788   0.2358321   0.0019092  )
        11           Si  tau(  11) = (   0.0152206   0.4830670   0.0137069  )
        12           Si  tau(  12) = (   0.2610812   0.5138631   0.2503890  )
        13           Si  tau(  13) = (   0.1185348   0.6363774   0.1100943  )
        14           Si  tau(  14) = (   0.3713321   0.3659703   0.1357148  )
        15           Si  tau(  15) = (   0.5045688   0.4931969  -0.0081692  )
        16           Si  tau(  16) = (   0.6148382   0.6373251   0.1364896  )
        17           Si  tau(  17) = (   0.8483834   0.3571868   0.1297274  )
        18           Si  tau(  18) = (   0.7204725   0.4995532   0.2285250  )
        19           Si  tau(  19) = (   0.0087202   0.7461267   0.2302908  )
        20           Si  tau(  20) = (   0.2611107   0.7555202  -0.0088901  )
        21           Si  tau(  21) = (   0.3497432   0.8783878   0.1122250  )
        22           Si  tau(  22) = (   0.4951424   0.7442546   0.2296018  )
        23           Si  tau(  23) = (   0.7229450   0.7618423   0.0051127  )
        24           Si  tau(  24) = (   0.8485900   0.8554578   0.1230038  )
        25           Si  tau(  25) = (  -0.0114670   0.0134505   0.4749819  )
        26           Si  tau(  26) = (   0.2600829   0.2530688   0.4788127  )
        27           Si  tau(  27) = (   0.1158657   0.1073174   0.6163370  )
        28           Si  tau(  28) = (   0.3820102   0.1298319   0.3703431  )
        29           Si  tau(  29) = (   0.5059008   0.0017038   0.4853100  )
        30           Si  tau(  30) = (   0.6271283   0.1197204   0.6258329  )
        31           Si  tau(  31) = (   0.8404017   0.1106066   0.3714080  )
        32           Si  tau(  32) = (   0.7444103   0.2440203   0.4835161  )
        33           Si  tau(  33) = (   0.1070053   0.3654881   0.3597468  )
        34           Si  tau(  34) = (   0.0087511   0.4805345   0.4757124  )
        35           Si  tau(  35) = (   0.1314349   0.6131995   0.6216574  )
        36           Si  tau(  36) = (   0.6000379   0.3593589   0.3614179  )
        37           Si  tau(  37) = (   0.3767845   0.6325053   0.3673758  )
        38           Si  tau(  38) = (   0.3561005   0.3656319   0.6139348  )
        39           Si  tau(  39) = (   0.4764988   0.4823755   0.4988004  )
        40           Si  tau(  40) = (   0.6089823   0.6252233   0.6024221  )
        41           Si  tau(  41) = (   0.8514171   0.6088363   0.3835557  )
        42           Si  tau(  42) = (   0.8407480   0.3812878   0.6199701  )
        43           Si  tau(  43) = (   0.1297028   0.8538806   0.3812760  )
        44           Si  tau(  44) = (   0.2445708   0.7312351   0.4827832  )
        45           Si  tau(  45) = (   0.5947276   0.8732680   0.3741885  )
        46           Si  tau(  46) = (   0.3616296   0.8594893   0.6179899  )
        47           Si  tau(  47) = (   0.7250350   0.7559004   0.4885749  )
        48           Si  tau(  48) = (   0.8468124   0.8867032   0.6185224  )
        49           Si  tau(  49) = (   0.0047139   0.2512782   0.7382583  )
        50           Si  tau(  50) = (   0.2476720  -0.0067192   0.7368020  )
        51           Si  tau(  51) = (   0.3591726   0.1246959   0.8756680  )
        52           Si  tau(  52) = (   0.4912827   0.2572296   0.7503711  )
        53           Si  tau(  53) = (   0.7405589  -0.0119804   0.7331608  )
        54           Si  tau(  54) = (   0.8545218   0.1280219   0.8773555  )
        55           Si  tau(  55) = (   0.1157363   0.3697031   0.8571896  )
        56           Si  tau(  56) = (   0.2339795   0.4958787   0.7302314  )
        57           Si  tau(  57) = (   0.6279640   0.3735936   0.8450624  )
        58           Si  tau(  58) = (   0.3774708   0.6370922   0.8541791  )
        59           Si  tau(  59) = (   0.7438968   0.4923597   0.7307541  )
        60           Si  tau(  60) = (   0.8569687   0.6049453   0.8785415  )
        61           Si  tau(  61) = (  -0.0107740   0.7518902   0.7395024  )
        62           Si  tau(  62) = (   0.1201787   0.8608691   0.8692678  )
        63           Si  tau(  63) = (   0.5051482   0.7560923   0.7284727  )
        64           Si  tau(  64) = (   0.6086695   0.8635889   0.8649367  )

     number of k points=     1  Fermi-Dirac smearing, width (Ry)=  0.0100
                       cart. coord. in units 2pi/alat
        k(    1) = (   0.0000000   0.0000000   0.0000000), wk =   2.0000000

     Dense  grid:    97213 G-vectors     FFT dimensions: (  75,  72,  75)

     Estimated max dynamical RAM per process >     156.16 MB

     Estimated total dynamical RAM >     600.92 MB

     Initial potential from superposition of free atoms

     starting charge     255.9608, renormalised to     256.0000
     Starting wfcs are  256 randomized atomic wfcs

     total cpu time spent up to now is        5.2 secs

     Self-consistent Calculation

     iteration #  1     ecut=    30.00 Ry     beta= 0.50
     Davidson diagonalization with overlap
     ethr =  1.00E-02,  avg # of iterations =  3.0

     Threshold (ethr) on eigenvalues was too large:
     Diagonalizing with lowered threshold

     Davidson diagonalization with overlap
     ethr =  7.42E-04,  avg # of iterations =  4.0

     total cpu time spent up to now is        5.5 secs

     total energy              =    -502.10589337 Ry
     estimated scf accuracy    <       2.16867345 Ry

     iteration #  2     ecut=    30.00 Ry     beta= 0.50
     Davidson diagonalization with overlap
     ethr =  8.47E-04,  avg # of iterations =  3.0

     total cpu time spent up to now is        5.6 secs

     total energy              =    -501.87030770 Ry
     estimated scf accuracy    <       1.67131551 Ry

     iteration #  3     ecut=    30.00 Ry     beta= 0.50
     Davidson diagonalization with overlap
     ethr =  6.53E-04,  avg # of iterations =  4.0

     total cpu time spent up to now is        5.7 secs

     total energy              =    -502.04801264 Ry
     estimated scf accuracy    <       2.01930345 Ry

     iteration #  4     ecut=    30.00 Ry     beta= 0.50
     Davidson diagonalization with overlap
     ethr =  6.53E-04,  avg # of iterations =  3.0

     total cpu time spent up to now is        5.8 secs

     total energy              =    -502.26622627 Ry
     estimated scf accuracy    <       0.13308066 Ry

     iteration #  5     ecut=    30.00 Ry     beta= 0.50
     Davidson diagonalization with overlap
     ethr =  5.20E-05,  avg # of iterations = 20.0

     total cpu time spent up to now is        6.1 secs

     total energy              =    -502.28884453 Ry
     estimated scf accuracy    <       0.06917983 Ry

     iteration #  6     ecut=    30.00 Ry     beta= 0.50
     Davidson diagonalization with overlap
     ethr =  2.70E-05,  avg # of iterations =  3.0

     total cpu time spent up to now is        6.2 secs

     total energy              =    -502.29694372 Ry
     estimated scf accuracy    <       0.02104009 Ry

     iteration #  7     ecut=    30.00 Ry     beta= 0.50
     Davidson diagonalization with overlap
     ethr =  8.22E-06,  avg # of iterations =  2.0

     total cpu time spent up to now is        6.3 secs

     total energy              =    -502.29905870 Ry
     estimated scf accuracy    <       0.00159402 Ry

     iteration #  8     ecut=    30.00 Ry     beta= 0.50
     Davidson diagonalization with overlap
     ethr =  6.23E-07,  avg # of iterations = 12.0

     total cpu time spent up to now is        6.5 secs

     total energy              =    -502.29941249 Ry
     estimated scf accuracy    <       0.00154674 Ry

     iteration #  9     ecut=    30.00 Ry     beta= 0.50
     Davidson diagonalization with overlap
     ethr =  6.04E-07,  avg # of iterations =  3.0

     total cpu time spent up to now is        6.6 secs

     total energy              =    -502.29953666 Ry
     estimated scf accuracy    <       0.00060190 Ry

     iteration # 10     ecut=    30.00 Ry     beta= 0.50
     Davidson diagonalization with overlap
     ethr =  2.35E-07,  avg # of iterations =  2.0

     total cpu time spent up to now is        6.7 secs

     total energy              =    -502.29957703 Ry
     estimated scf accuracy    <       0.00005895 Ry

     iteration # 11     ecut=    30.00 Ry     beta= 0.50
     Davidson diagonalization with overlap
     ethr =  2.30E-08,  avg # of iterations =  5.0

     total cpu time spent up to now is        6.8 secs

     total energy              =    -502.29959080 Ry
     estimated scf accuracy    <       0.00001897 Ry

     iteration # 12     ecut=    30.00 Ry     beta= 0.50
     Davidson diagonalization with overlap
     ethr =  7.41E-09,  avg # of iterations =  3.0

     total cpu time spent up to now is        7.0 secs

     total energy              =    -502.29959272 Ry
     estimated scf accuracy    <       0.00001174 Ry

     iteration # 13     ecut=    30.00 Ry     beta= 0.50
     Davidson diagonalization with overlap
     ethr =  4.59E-09,  avg # of iterations =  2.0

     total cpu time spent up to now is        7.1 secs

     total energy              =    -502.29959328 Ry
     estimated scf accuracy    <       0.00000188 Ry

     iteration # 14     ecut=    30.00 Ry     beta= 0.50
     Davidson diagonalization with overlap
     ethr =  7.32E-10,  avg # of iterations =  5.0

     total cpu time spent up to now is        7.2 secs

     End of self-consistent calculation

          k = 0.0000 0.0000 0.0000 ( 12182 PWs)   bands (ev):

    -6.1674  -5.3316  -5.2126  -5.1008  -5.0247  -4.9004  -4.7914  -4.4696
    -4.3874  -4.2253  -4.1671  -4.1327  -3.9824  -3.9250  -3.8162  -3.7811
    -3.7316  -3.6697  -3.5567  -3.4560  -3.3770  -3.2505  -2.8942  -2.6685
    -2.2281  -2.1191  -2.0454  -1.9978  -1.9372  -1.8083  -1.7294  -1.6327
    -1.5350  -1.5101  -1.4194  -1.3757  -1.3057  -1.2887  -1.1717  -1.1293
    -1.0841  -1.0484  -0.8113  -0.6389  -0.5350   0.0644   0.1530   0.2939
     0.3663   0.4140   0.5035   0.6402   0.7122   0.7791   0.8068   0.9259
     0.9921   1.7326   1.7661   1.7940   1.8517   1.9283   1.9971   2.0236
     2.0318   2.1073   2.1154   2.1631   2.2083   2.2682   2.3151   2.3467
     2.3677   2.4037   2.4327   2.4755   2.5070   2.5253   2.5803   2.6033
     2.6326   2.6988   2.7539   2.8015   2.8761   2.9086   2.9854   3.0549
     3.1519   3.2416   3.3240   3.4939   3.5795   3.7025   3.8292   3.8846
     3.9601   4.0890   4.1480   4.1927   4.2247   4.3085   4.3931   4.4251
     4.5032   4.5388   4.5959   4.6285   4.6646   4.6773   4.7768   4.8176
     4.8556   4.9528   4.9634   4.9956   5.0956   5.1393   5.1803   5.2490
     5.3418   5.3766   5.4871   5.6163   5.7747   5.9273   6.1056   6.1439
     6.3402   6.4610   6.6053   6.7446   6.8074   6.8793   6.9460   7.0058
     7.0262   7.1126   7.2054   7.2389   7.2790   7.3775   7.4077   7.4651
     7.8152   7.8772   7.9463   8.0540   8.0917   8.1485   8.2186   8.2592
     8.2829   8.3729

     the Fermi energy is     6.2568 ev

!    total energy              =    -502.29959357 Ry
     estimated scf accuracy    <       0.00000021 Ry
     smearing contrib. (-TS)   =      -0.06940586 Ry
     internal energy E=F+TS    =    -502.23018771 Ry

     The total energy is F=E-TS. E is the sum of the following terms:
     one-electron contribution =     135.75490057 Ry
     hartree contribution      =      42.07958146 Ry
     xc contribution           =    -153.77582790 Ry
     ewald contribution        =    -526.28884183 Ry

     convergence has been achieved in  14 iterations

     Forces acting on atoms (cartesian axes, Ry/au):

     atom    1 type  1   force =    -0.05324935   -0.01589092   -0.03087432
     atom    2 type  1   force =    -0.08046598    0.02597839    0.10405877
     atom    3 type  1   force =    -0.13635034    0.12711206    0.20843995
     atom    4 type  1   force =    -0.06264663   -0.03665650   -0.00124732
     atom    5 type  1   force =     0.09410032   -0.02047324   -0.08202908
     atom    6 type  1   force =    -0.13193390    0.18078583    0.15185829
     atom    7 type  1   force =    -0.01323261   -0.12992114   -0.04407268
     atom    8 type  1   force =     0.02698098   -0.07455253   -0.04463521
     atom    9 type  1   force =    -0.05982628    0.11367505   -0.00414272
     atom   10 type  1   force =    -0.05870025    0.04590611   -0.02272169
     atom   11 type  1   force =    -0.08205167   -0.01511404   -0.04787582
     atom   12 type  1   force =    -0.08456315   -0.04852557   -0.04535462
     atom   13 type  1   force =     0.09380123   -0.05819919   -0.01875198
     atom   14 type  1   force =    -0.04434086    0.12050674   -0.09500893
     atom   15 type  1   force =    -0.00990923    0.01948846   -0.00743544
     atom   16 type  1   force =     0.04369467   -0.07808509   -0.16412564
     atom   17 type  1   force =     0.04084753    0.07167818   -0.03185205
     atom   18 type  1   force =     0.06580703   -0.06808581    0.10401183
     atom   19 type  1   force =    -0.07988423    0.02367349    0.07899933
     atom   20 type  1   force =    -0.07586662   -0.08628456   -0.06490649
     atom   21 type  1   force =     0.20031872   -0.11530158   -0.09535250
     atom   22 type  1   force =    -0.13319541    0.11903814    0.09905732
     atom   23 type  1   force =     0.00864581   -0.10582161   -0.06984564
     atom   24 type  1   force =     0.15014810   -0.00235291   -0.03424066
     atom   25 type  1   force =     0.00164333   -0.00840382    0.06135256
     atom   26 type  1   force =    -0.11071566   -0.04216065    0.00719744
     atom   27 type  1   force =     0.01760629    0.07810011   -0.02297165
     atom   28 type  1   force =    -0.02345804   -0.03464279   -0.01731577
     atom   29 type  1   force =    -0.24011102    0.25026004    0.31524729
     atom   30 type  1   force =    -0.04952553    0.05863846   -0.03052777
     atom   31 type  1   force =     0.08951114    0.03417620   -0.05393844
     atom   32 type  1   force =    -0.06298280    0.04330717    0.05595972
     atom   33 type  1   force =     0.11316017   -0.04498732   -0.06702569
     atom   34 type  1   force =    -0.10526864    0.10195258    0.12796073
     atom   35 type  1   force =    -0.12120723    0.08099265   -0.09225301
     atom   36 type  1   force =     0.11316418    0.12252535    0.10269699
     atom   37 type  1   force =     0.04173560   -0.04115323    0.00477598
     atom   38 type  1   force =     0.01694529    0.01539195    0.06797103
     atom   39 type  1   force =     0.06091999    0.05141492   -0.04548122
     atom   40 type  1   force =     0.00774924   -0.04877239    0.02734218
     atom   41 type  1   force =     0.02823829    0.00909646   -0.05348024
     atom   42 type  1   force =     0.17850472   -0.13361408   -0.13166175
     atom   43 type  1   force =    -0.04443311    0.03806044   -0.11075035
     atom   44 type  1   force =     0.02437661   -0.00865263    0.09622625
     atom   45 type  1   force =     0.19015471   -0.28092911   -0.27608749
     atom   46 type  1   force =     0.07481909   -0.06518586   -0.10996447
     atom   47 type  1   force =     0.04736506   -0.02712597    0.00948220
     atom   48 type  1   force =     0.29503987   -0.21926451   -0.28921888
     atom   49 type  1   force =    -0.09023184   -0.04282230   -0.02804505
     atom   50 type  1   force =    -0.06017681    0.11276704    0.08059845
     atom   51 type  1   force =     0.04856924    0.00050730   -0.02217107
     atom   52 type  1   force =    -0.03113684   -0.06473340   -0.04225566
     atom   53 type  1   force =    -0.20489951    0.20695721    0.30899661
     atom   54 type  1   force =     0.07785433   -0.03654690   -0.04941261
     atom   55 type  1   force =     0.04555377    0.04271194    0.07277541
     atom   56 type  1   force =     0.09370751   -0.05250766    0.09992225
     atom   57 type  1   force =    -0.02162771   -0.01366764    0.11707418
     atom   58 type  1   force =    -0.00639799   -0.05653970    0.02649022
     atom   59 type  1   force =    -0.07572773    0.15803452    0.07622774
     atom   60 type  1   force =     0.03495649    0.04527991    0.00956012
     atom   61 type  1   force =    -0.01884853   -0.05297342    0.00157039
     atom   62 type  1   force =    -0.02289961   -0.02102803    0.02149190
     atom   63 type  1   force =    -0.04076557   -0.05620270   -0.00534895
     atom   64 type  1   force =     0.11071135   -0.09083789   -0.08496227

     Total force =     1.360964     Total SCF correction =     0.000812


     Computing stress (Cartesian axis) and pressure

          total   stress  (Ry/bohr**3)                   (kbar)     P=       54.03
   0.00034506  -0.00025926  -0.00026020           50.76      -38.14      -38.28
  -0.00025926   0.00036861   0.00038226          -38.14       54.22       56.23
  -0.00026020   0.00038226   0.00038823          -38.28       56.23       57.11

 
     init_run     :      1.20s CPU      5.09s WALL (       1 calls)
     electrons    :      1.89s CPU      2.03s WALL (       1 calls)
     forces       :      0.04s CPU      0.05s WALL (       1 calls)
     stress       :      0.16s CPU      0.17s WALL (       1 calls)

     Called by init_run:
     wfcinit      :      0.56s CPU      4.25s WALL (       1 calls)
                                        4.25s GPU  (       1 calls)
     potinit      :      0.20s CPU      0.31s WALL (       1 calls)
     hinit0       :      0.42s CPU      0.45s WALL (       1 calls)

     Called by electrons:
     c_bands      :      1.20s CPU      1.27s WALL (      15 calls)
     sum_band     :      0.36s CPU      0.40s WALL (      15 calls)
     v_of_rho     :      0.17s CPU      0.28s WALL (      15 calls)
     mix_rho      :      0.14s CPU      0.15s WALL (      15 calls)

     Called by c_bands:
     init_us_2    :      0.05s CPU      0.06s WALL (      31 calls)
     init_us_2:gp :      0.05s CPU      0.06s WALL (      31 calls)
     regterg      :      1.06s CPU      1.12s WALL (      15 calls)

     Called by *egterg:
     rdiaghg      :      0.43s CPU      1.19s WALL (      88 calls)
                                        1.17s GPU  (      88 calls)
     h_psi        :      1.01s CPU      3.98s WALL (      90 calls)
                                        3.98s GPU  (      90 calls)
     g_psi        :      0.00s CPU      0.00s WALL (      74 calls)
                                        0.00s GPU  (      74 calls)

     Called by h_psi:
     h_psi:calbec :      0.50s CPU      3.39s WALL (      90 calls)
                                        3.39s GPU  (      90 calls)
     vloc_psi     :      0.46s CPU      0.53s WALL (      90 calls)
                                        0.52s GPU  (      90 calls)
     add_vuspsi   :      0.04s CPU      0.06s WALL (      90 calls)
                                        0.06s GPU  (      90 calls)

     General routines
     calbec       :      0.50s CPU      3.39s WALL (      95 calls)
     fft          :      0.53s CPU      0.67s WALL (     127 calls)
                                        0.14s GPU  (      81 calls)
     ffts         :      0.05s CPU      0.05s WALL (      15 calls)
     fftw         :      0.51s CPU      0.67s WALL (    1625 calls)
                                        0.60s GPU  (    1625 calls)
 
     Parallel routines
 
     PWSCF        :      3.34s CPU      7.42s WALL

 
   This run was terminated on:  11:31:24  10May2023            

=------------------------------------------------------------------------------=
   JOB DONE.
=------------------------------------------------------------------------------=
