An instance of this daemon is already running
An instance of this daemon is already running

     Program PWSCF v.7.1 starts on 10May2023 at 11:32:34 

     This program is part of the open-source Quantum ESPRESSO suite
     for quantum simulation of materials; please cite
         "P. Giannozzi et al., J. Phys.:Condens. Matter 21 395502 (2009);
         "P. Giannozzi et al., J. Phys.:Condens. Matter 29 465901 (2017);
         "P. Giannozzi et al., J. Chem. Phys. 152 154105 (2020);
          URL http://www.quantum-espresso.org", 
     in publications or presentations arising from this work. More details at
     http://www.quantum-espresso.org/quote

     Parallel version (MPI & OpenMP), running on       4 processor cores
     Number of MPI processes:                 4
     Threads/MPI process:                     1

     MPI processes distributed on     1 nodes
     706984 MiB available memory on the printing compute node when the environment starts
 
     Reading input from pw-si-14.in
Warning: card &CELL ignored
Warning: card / ignored

     Current dimensions of program PWSCF are:
     Max number of different atomic species (ntypx) = 10
     Max number of k-points (npk) =  40000
     Max angular momentum in pseudopotentials (lmaxx) =  4

     IMPORTANT: XC functional enforced from input :
     Exchange-correlation= PBE
                           (   1   4   3   4   0   0   0)
     Any further DFT definition will be discarded
     Please, verify this is what you really want


     gamma-point specific algorithms are used
 
     K-points division:     npool     =       2
     R & G space division:  proc/nbgrp/npool/nimage =       2
     Subspace diagonalization in iterative solution of the eigenvalue problem:
     a serial algorithm will be used

     Message from routine divide_et_impera:
     suboptimal parallelization: some nodes have no k-points
 
     Parallelization info
     --------------------
     sticks:   dense  smooth     PW     G-vecs:    dense   smooth      PW
     Min        2184    2184    579               103901   103901   14115
     Max        2187    2187    580               103904   103904   14116
     Sum        4371    4371   1159               207805   207805   28231
 
     Using Slab Decomposition
 


     bravais-lattice index     =            0
     lattice parameter (alat)  =      21.6640  a.u.
     unit-cell volume          =    9361.0223 (a.u.)^3
     number of atoms/cell      =           64
     number of atomic types    =            1
     number of electrons       =       256.00
     number of Kohn-Sham states=          154
     kinetic-energy cutoff     =      30.0000  Ry
     charge density cutoff     =     120.0000  Ry
     scf convergence threshold =      1.0E-06
     mixing beta               =       0.5000
     number of iterations used =            8  plain     mixing
     Exchange-correlation= PBE
                           (   1   4   3   4   0   0   0)

     GPU acceleration is ACTIVE.
     GPU-aware MPI enabled

     Message from routine print_cuda_info:
     High GPU oversubscription detected. Are you sure this is what you want?

     celldm(1)=  21.664008  celldm(2)=   0.000000  celldm(3)=   0.000000
     celldm(4)=   0.000000  celldm(5)=   0.000000  celldm(6)=   0.000000

     crystal axes: (cart. coord. in units of alat)
               a(1) = (   1.000000   0.000000   0.000000 )  
               a(2) = (   0.000000   0.977729   0.000000 )  
               a(3) = (   0.000000   0.000000   0.941647 )  

     reciprocal axes: (cart. coord. in units 2 pi/alat)
               b(1) = (  1.000000  0.000000  0.000000 )  
               b(2) = (  0.000000  1.022778  0.000000 )  
               b(3) = (  0.000000  0.000000  1.061969 )  


     PseudoPot. # 1 for Si read from file:
     /home/ppiaggi/pseudos/Si_ONCV_PBE_sr.upf
     MD5 check sum: 8553c464762ac42b85b1eed164b4d029
     Pseudo is Norm-conserving, Zval =  4.0
     Generated using ONCVPSP code by D. R. Hamann
     Using radial grid of 1510 points,  4 beta functions with: 
                l(1) =   0
                l(2) =   0
                l(3) =   1
                l(4) =   1

     atomic species   valence    mass     pseudopotential
        Si             4.00    28.08500     Si( 1.00)

     No symmetry found



   Cartesian axes

     site n.     atom                  positions (alat units)
         1           Si  tau(   1) = (   0.0075956  -0.0023333   0.0025787  )
         2           Si  tau(   2) = (  -0.0102808   0.2463363   0.2453311  )
         3           Si  tau(   3) = (   0.2484409  -0.0121237   0.2490401  )
         4           Si  tau(   4) = (   0.2398368   0.2311139   0.0054041  )
         5           Si  tau(   5) = (   0.1122112   0.1086297   0.1278307  )
         6           Si  tau(   6) = (   0.4802884   0.0095825  -0.0159846  )
         7           Si  tau(   7) = (   0.5048707   0.2205110   0.2598084  )
         8           Si  tau(   8) = (   0.6212510   0.1143313   0.1291316  )
         9           Si  tau(   9) = (   0.7283303  -0.0011174   0.2609811  )
        10           Si  tau(  10) = (   0.7266302   0.2224703  -0.0168708  )
        11           Si  tau(  11) = (   0.0116154   0.4743113  -0.0098751  )
        12           Si  tau(  12) = (   0.2566065   0.4715429   0.2375768  )
        13           Si  tau(  13) = (   0.1321662   0.5779906   0.1077441  )
        14           Si  tau(  14) = (   0.3632019   0.3639477   0.1283356  )
        15           Si  tau(  15) = (   0.4743204   0.4724322   0.0042159  )
        16           Si  tau(  16) = (   0.6060386   0.5826316   0.1186644  )
        17           Si  tau(  17) = (   0.8396019   0.3483534   0.1218166  )
        18           Si  tau(  18) = (   0.7308941   0.4798164   0.2285400  )
        19           Si  tau(  19) = (   0.0003385   0.7204164   0.2315463  )
        20           Si  tau(  20) = (   0.2543137   0.7264730  -0.0138765  )
        21           Si  tau(  21) = (   0.3628785   0.8161433   0.1119796  )
        22           Si  tau(  22) = (   0.4775071   0.7027951   0.2499689  )
        23           Si  tau(  23) = (   0.7248532   0.7273885   0.0039113  )
        24           Si  tau(  24) = (   0.8491493   0.8406138   0.1334839  )
        25           Si  tau(  25) = (   0.0070148  -0.0146284   0.4868577  )
        26           Si  tau(  26) = (   0.2527306   0.2490832   0.4980196  )
        27           Si  tau(  27) = (   0.1242889   0.1285486   0.6174632  )
        28           Si  tau(  28) = (   0.3805970   0.1158101   0.3672647  )
        29           Si  tau(  29) = (   0.5042164  -0.0059625   0.5007777  )
        30           Si  tau(  30) = (   0.5996318   0.1133274   0.6077813  )
        31           Si  tau(  31) = (   0.8506440   0.1071302   0.3576182  )
        32           Si  tau(  32) = (   0.7231550   0.2453846   0.4832694  )
        33           Si  tau(  33) = (   0.1051419   0.3677304   0.3856447  )
        34           Si  tau(  34) = (  -0.0015813   0.4889731   0.4792327  )
        35           Si  tau(  35) = (   0.1195081   0.5999053   0.6315585  )
        36           Si  tau(  36) = (   0.6161786   0.3581821   0.3720398  )
        37           Si  tau(  37) = (   0.3517220   0.6102285   0.3567280  )
        38           Si  tau(  38) = (   0.3523705   0.3720536   0.6173544  )
        39           Si  tau(  39) = (   0.4795845   0.4615259   0.4914688  )
        40           Si  tau(  40) = (   0.6156346   0.5858636   0.6267815  )
        41           Si  tau(  41) = (   0.8381580   0.6014510   0.3751030  )
        42           Si  tau(  42) = (   0.8630103   0.3659950   0.6244563  )
        43           Si  tau(  43) = (   0.1152909   0.8208704   0.3800532  )
        44           Si  tau(  44) = (   0.2504930   0.7278972   0.4801201  )
        45           Si  tau(  45) = (   0.6126868   0.8459767   0.3580237  )
        46           Si  tau(  46) = (   0.3808913   0.8455828   0.6290084  )
        47           Si  tau(  47) = (   0.7146665   0.7254045   0.4786560  )
        48           Si  tau(  48) = (   0.8482455   0.8485220   0.6078171  )
        49           Si  tau(  49) = (  -0.0166512   0.2406460   0.7379401  )
        50           Si  tau(  50) = (   0.2572228  -0.0164641   0.7418887  )
        51           Si  tau(  51) = (   0.3664280   0.1172089   0.8616344  )
        52           Si  tau(  52) = (   0.4907384   0.2545382   0.7456181  )
        53           Si  tau(  53) = (   0.7238805   0.0075237   0.7255018  )
        54           Si  tau(  54) = (   0.8399978   0.1089819   0.8532793  )
        55           Si  tau(  55) = (   0.1149224   0.3704924   0.8703957  )
        56           Si  tau(  56) = (   0.2387693   0.4767911   0.7493376  )
        57           Si  tau(  57) = (   0.6202093   0.3483146   0.8664038  )
        58           Si  tau(  58) = (   0.3762847   0.5810331   0.8513277  )
        59           Si  tau(  59) = (   0.7342952   0.4639503   0.7382897  )
        60           Si  tau(  60) = (   0.8684720   0.5941845   0.8550132  )
        61           Si  tau(  61) = (  -0.0135683   0.6972620   0.7293190  )
        62           Si  tau(  62) = (   0.1209995   0.8458910   0.8633849  )
        63           Si  tau(  63) = (   0.5049646   0.7185411   0.7397172  )
        64           Si  tau(  64) = (   0.6128770   0.8409620   0.8760307  )

     number of k points=     1  Fermi-Dirac smearing, width (Ry)=  0.0100
                       cart. coord. in units 2pi/alat
        k(    1) = (   0.0000000   0.0000000   0.0000000), wk =   2.0000000

     Dense  grid:   103903 G-vectors     FFT dimensions: (  75,  75,  72)

     Estimated max dynamical RAM per process >     165.55 MB

     Estimated total dynamical RAM >     636.81 MB

     Initial potential from superposition of free atoms

     starting charge     255.9608, renormalised to     256.0000
     Starting wfcs are  256 randomized atomic wfcs

     total cpu time spent up to now is        5.0 secs

     Self-consistent Calculation

     iteration #  1     ecut=    30.00 Ry     beta= 0.50
     Davidson diagonalization with overlap
     ethr =  1.00E-02,  avg # of iterations =  3.0

     Threshold (ethr) on eigenvalues was too large:
     Diagonalizing with lowered threshold

     Davidson diagonalization with overlap
     ethr =  7.22E-04,  avg # of iterations =  4.0

     total cpu time spent up to now is        5.3 secs

     total energy              =    -501.90258391 Ry
     estimated scf accuracy    <       2.12806093 Ry

     iteration #  2     ecut=    30.00 Ry     beta= 0.50
     Davidson diagonalization with overlap
     ethr =  8.31E-04,  avg # of iterations =  4.0

     total cpu time spent up to now is        5.5 secs

     total energy              =    -501.58029014 Ry
     estimated scf accuracy    <       2.80227264 Ry

     iteration #  3     ecut=    30.00 Ry     beta= 0.50
     Davidson diagonalization with overlap
     ethr =  8.31E-04,  avg # of iterations =  4.0

     total cpu time spent up to now is        5.6 secs

     total energy              =    -502.00448036 Ry
     estimated scf accuracy    <       1.39330130 Ry

     iteration #  4     ecut=    30.00 Ry     beta= 0.50
     Davidson diagonalization with overlap
     ethr =  5.44E-04,  avg # of iterations =  2.0

     total cpu time spent up to now is        5.7 secs

     total energy              =    -502.12326094 Ry
     estimated scf accuracy    <       0.21746370 Ry

     iteration #  5     ecut=    30.00 Ry     beta= 0.50
     Davidson diagonalization with overlap
     ethr =  8.49E-05,  avg # of iterations =  7.0

     total cpu time spent up to now is        5.8 secs

     total energy              =    -502.15574307 Ry
     estimated scf accuracy    <       0.07651245 Ry

     iteration #  6     ecut=    30.00 Ry     beta= 0.50
     Davidson diagonalization with overlap
     ethr =  2.99E-05,  avg # of iterations =  8.0

     total cpu time spent up to now is        6.0 secs

     total energy              =    -502.16780694 Ry
     estimated scf accuracy    <       0.02278620 Ry

     iteration #  7     ecut=    30.00 Ry     beta= 0.50
     Davidson diagonalization with overlap
     ethr =  8.90E-06,  avg # of iterations =  9.0

     total cpu time spent up to now is        6.1 secs

     total energy              =    -502.17028933 Ry
     estimated scf accuracy    <       0.00189940 Ry

     iteration #  8     ecut=    30.00 Ry     beta= 0.50
     Davidson diagonalization with overlap
     ethr =  7.42E-07,  avg # of iterations =  5.0

     total cpu time spent up to now is        6.3 secs

     total energy              =    -502.17047353 Ry
     estimated scf accuracy    <       0.00253004 Ry

     iteration #  9     ecut=    30.00 Ry     beta= 0.50
     Davidson diagonalization with overlap
     ethr =  7.42E-07,  avg # of iterations =  4.0

     total cpu time spent up to now is        6.4 secs

     total energy              =    -502.17080288 Ry
     estimated scf accuracy    <       0.00041399 Ry

     iteration # 10     ecut=    30.00 Ry     beta= 0.50
     Davidson diagonalization with overlap
     ethr =  1.62E-07,  avg # of iterations =  3.0

     total cpu time spent up to now is        6.5 secs

     total energy              =    -502.17084016 Ry
     estimated scf accuracy    <       0.00008186 Ry

     iteration # 11     ecut=    30.00 Ry     beta= 0.50
     Davidson diagonalization with overlap
     ethr =  3.20E-08,  avg # of iterations =  4.0

     total cpu time spent up to now is        6.7 secs

     total energy              =    -502.17085352 Ry
     estimated scf accuracy    <       0.00002812 Ry

     iteration # 12     ecut=    30.00 Ry     beta= 0.50
     Davidson diagonalization with overlap
     ethr =  1.10E-08,  avg # of iterations =  3.0

     total cpu time spent up to now is        6.8 secs

     total energy              =    -502.17085714 Ry
     estimated scf accuracy    <       0.00000775 Ry

     iteration # 13     ecut=    30.00 Ry     beta= 0.50
     Davidson diagonalization with overlap
     ethr =  3.03E-09,  avg # of iterations =  3.0

     total cpu time spent up to now is        6.9 secs

     total energy              =    -502.17085804 Ry
     estimated scf accuracy    <       0.00000128 Ry

     iteration # 14     ecut=    30.00 Ry     beta= 0.50
     Davidson diagonalization with overlap
     ethr =  5.01E-10,  avg # of iterations =  5.0

     total cpu time spent up to now is        7.0 secs

     End of self-consistent calculation

          k = 0.0000 0.0000 0.0000 ( 12982 PWs)   bands (ev):

    -6.4930  -5.8312  -5.5316  -5.4397  -5.3825  -5.2032  -4.9800  -4.9340
    -4.7779  -4.6540  -4.5138  -4.4739  -4.3599  -4.2386  -4.2015  -4.1770
    -4.0347  -3.9955  -3.9031  -3.8288  -3.7492  -3.6786  -3.3804  -3.0371
    -2.9234  -2.6755  -2.5323  -2.4267  -2.4147  -2.2590  -2.2400  -2.1386
    -2.0754  -1.9911  -1.9218  -1.8807  -1.8549  -1.7860  -1.6685  -1.5734
    -1.4987  -1.3807  -1.2786  -1.2116  -0.7656  -0.4413  -0.2988  -0.2596
    -0.1490  -0.0846  -0.0772  -0.0376  -0.0093   0.1584   0.2327   0.4437
     0.5545   1.1258   1.1841   1.2778   1.3594   1.4113   1.4618   1.5410
     1.6047   1.6638   1.7269   1.7496   1.8049   1.8475   1.8632   1.9062
     1.9372   1.9516   1.9909   2.0190   2.0506   2.0954   2.1512   2.1624
     2.1891   2.2516   2.3137   2.3340   2.4012   2.4264   2.5154   2.5834
     2.6431   2.6989   2.8048   2.8634   2.9640   3.0077   3.2479   3.3496
     3.5313   3.5648   3.6174   3.6370   3.7147   3.7515   3.7676   3.8353
     3.8696   3.9274   3.9962   4.0535   4.0894   4.1414   4.1818   4.2538
     4.2877   4.3102   4.3162   4.4322   4.4731   4.5976   4.6217   4.7103
     4.7405   4.7827   4.9410   5.0030   5.1826   5.2804   5.3859   5.5409
     5.7869   5.8701   5.9797   6.0299   6.0988   6.1480   6.2253   6.3094
     6.3639   6.4130   6.4811   6.5436   6.5656   6.6774   6.7379   6.8669
     7.0491   7.1073   7.1602   7.2134   7.3057   7.3920   7.4531   7.5141
     7.5735   7.6020

     the Fermi energy is     5.6331 ev

!    total energy              =    -502.17085808 Ry
     estimated scf accuracy    <       0.00000048 Ry
     smearing contrib. (-TS)   =      -0.06954433 Ry
     internal energy E=F+TS    =    -502.10131375 Ry

     The total energy is F=E-TS. E is the sum of the following terms:
     one-electron contribution =     115.10732203 Ry
     hartree contribution      =      46.37942885 Ry
     xc contribution           =    -151.67895335 Ry
     ewald contribution        =    -511.90911127 Ry

     convergence has been achieved in  14 iterations

     Forces acting on atoms (cartesian axes, Ry/au):

     atom    1 type  1   force =    -0.11833987    0.00986350    0.04319148
     atom    2 type  1   force =    -0.03105870   -0.02923681    0.00315297
     atom    3 type  1   force =    -0.01275197   -0.02872067   -0.01335101
     atom    4 type  1   force =    -0.04053887    0.03984742    0.09619949
     atom    5 type  1   force =     0.03982835    0.03771220    0.04916853
     atom    6 type  1   force =     0.20423288   -0.20202240    0.20359961
     atom    7 type  1   force =     0.00090524    0.07549221   -0.05986524
     atom    8 type  1   force =    -0.03287858   -0.01137853   -0.02687155
     atom    9 type  1   force =    -0.00136638   -0.06833236   -0.09517236
     atom   10 type  1   force =     0.01923555   -0.00978362    0.23324760
     atom   11 type  1   force =    -0.35408682    0.28048218    0.23235024
     atom   12 type  1   force =    -0.11184089    0.05656141    0.07653224
     atom   13 type  1   force =     0.00709647    0.07558202    0.04206836
     atom   14 type  1   force =     0.05481829   -0.12897445   -0.01594188
     atom   15 type  1   force =     0.15279465   -0.11682639    0.13542279
     atom   16 type  1   force =    -0.03553860    0.07519265   -0.00224547
     atom   17 type  1   force =     0.06898398   -0.01664475   -0.02055256
     atom   18 type  1   force =     0.01765938   -0.01927543    0.08183888
     atom   19 type  1   force =    -0.02446308   -0.02542450    0.01250924
     atom   20 type  1   force =    -0.02069764   -0.10305718    0.03593698
     atom   21 type  1   force =     0.04273481    0.11070539    0.08416741
     atom   22 type  1   force =     0.09328821    0.07065990   -0.07973289
     atom   23 type  1   force =     0.16130214   -0.16291504    0.13251151
     atom   24 type  1   force =     0.04237409    0.02214743    0.00667406
     atom   25 type  1   force =    -0.05483619    0.02091936    0.01574675
     atom   26 type  1   force =    -0.04499050   -0.04216295   -0.04117958
     atom   27 type  1   force =    -0.00170803   -0.04749141   -0.00274251
     atom   28 type  1   force =    -0.05952130   -0.03982187    0.06028458
     atom   29 type  1   force =    -0.08807842   -0.08002927   -0.08554007
     atom   30 type  1   force =     0.05067165    0.12269239    0.06329798
     atom   31 type  1   force =     0.09610450    0.07935992    0.08269298
     atom   32 type  1   force =     0.08759093   -0.06646466    0.06154065
     atom   33 type  1   force =     0.09631922   -0.08372882   -0.09904446
     atom   34 type  1   force =    -0.09302679    0.07563156    0.10317011
     atom   35 type  1   force =     0.04295131   -0.02588083   -0.09641515
     atom   36 type  1   force =    -0.04420080    0.03578535   -0.05481083
     atom   37 type  1   force =     0.00436075   -0.09996727    0.06513372
     atom   38 type  1   force =     0.03829474   -0.03170215    0.04147557
     atom   39 type  1   force =     0.02037619    0.08387635   -0.01329053
     atom   40 type  1   force =    -0.02644018    0.02428093   -0.06535916
     atom   41 type  1   force =     0.06447909   -0.01574929   -0.05527246
     atom   42 type  1   force =     0.01971964   -0.03641782   -0.07091406
     atom   43 type  1   force =    -0.02994209    0.07568643   -0.06754914
     atom   44 type  1   force =     0.01255731   -0.01994549    0.11654361
     atom   45 type  1   force =    -0.07454719   -0.00697809    0.02191055
     atom   46 type  1   force =    -0.00010491   -0.01213075   -0.05636078
     atom   47 type  1   force =     0.04624052   -0.02095258    0.07297066
     atom   48 type  1   force =     0.02506247   -0.01051470   -0.00630505
     atom   49 type  1   force =     0.01027061   -0.00962854    0.00833234
     atom   50 type  1   force =    -0.05875035    0.03289816   -0.01234273
     atom   51 type  1   force =    -0.13568366    0.14401218   -0.17802466
     atom   52 type  1   force =    -0.03528281   -0.05484191   -0.06830731
     atom   53 type  1   force =     0.02229439   -0.08001701    0.00831607
     atom   54 type  1   force =     0.19400388   -0.11243527   -0.11079300
     atom   55 type  1   force =     0.27422716   -0.35506568   -0.24152304
     atom   56 type  1   force =    -0.01490523    0.01035188   -0.04260663
     atom   57 type  1   force =    -0.12849530    0.15996868   -0.10194631
     atom   58 type  1   force =    -0.10300984    0.17343730   -0.14752750
     atom   59 type  1   force =     0.02004780    0.04162447    0.03125639
     atom   60 type  1   force =    -0.04731645   -0.00391846   -0.02758880
     atom   61 type  1   force =    -0.04142541    0.11904461    0.02330253
     atom   62 type  1   force =    -0.01605428   -0.01716670   -0.12079870
     atom   63 type  1   force =    -0.01379161   -0.01586998    0.01097023
     atom   64 type  1   force =    -0.13515347    0.15765773   -0.17554070

     Total force =     1.285819     Total SCF correction =     0.001254


     Computing stress (Cartesian axis) and pressure

          total   stress  (Ry/bohr**3)                   (kbar)     P=        2.92
   0.00001488  -0.00037999   0.00002395            2.19      -55.90        3.52
  -0.00037999   0.00009906   0.00005714          -55.90       14.57        8.41
   0.00002395   0.00005714  -0.00005443            3.52        8.41       -8.01

 
     init_run     :      1.08s CPU      4.98s WALL (       1 calls)
     electrons    :      1.85s CPU      1.98s WALL (       1 calls)
     forces       :      0.04s CPU      0.05s WALL (       1 calls)
     stress       :      0.17s CPU      0.17s WALL (       1 calls)

     Called by init_run:
     wfcinit      :      0.56s CPU      4.27s WALL (       1 calls)
                                        4.27s GPU  (       1 calls)
     potinit      :      0.21s CPU      0.31s WALL (       1 calls)
     hinit0       :      0.28s CPU      0.31s WALL (       1 calls)

     Called by electrons:
     c_bands      :      1.16s CPU      1.21s WALL (      15 calls)
     sum_band     :      0.35s CPU      0.39s WALL (      15 calls)
     v_of_rho     :      0.16s CPU      0.28s WALL (      15 calls)
     mix_rho      :      0.15s CPU      0.16s WALL (      15 calls)

     Called by c_bands:
     init_us_2    :      0.05s CPU      0.06s WALL (      31 calls)
     init_us_2:gp :      0.05s CPU      0.06s WALL (      31 calls)
     regterg      :      1.03s CPU      1.08s WALL (      15 calls)

     Called by *egterg:
     rdiaghg      :      0.37s CPU      1.13s WALL (      82 calls)
                                        1.12s GPU  (      82 calls)
     h_psi        :      1.04s CPU      4.02s WALL (      84 calls)
                                        4.02s GPU  (      84 calls)
     g_psi        :      0.00s CPU      0.00s WALL (      68 calls)
                                        0.00s GPU  (      68 calls)

     Called by h_psi:
     h_psi:calbec :      0.51s CPU      3.41s WALL (      84 calls)
                                        3.41s GPU  (      84 calls)
     vloc_psi     :      0.49s CPU      0.55s WALL (      84 calls)
                                        0.55s GPU  (      84 calls)
     add_vuspsi   :      0.03s CPU      0.05s WALL (      84 calls)
                                        0.05s GPU  (      84 calls)

     General routines
     calbec       :      0.51s CPU      3.42s WALL (      89 calls)
     fft          :      0.39s CPU      0.53s WALL (     127 calls)
                                        0.13s GPU  (      81 calls)
     ffts         :      0.05s CPU      0.06s WALL (      15 calls)
     fftw         :      0.52s CPU      0.69s WALL (    1619 calls)
                                        0.63s GPU  (    1619 calls)
 
     Parallel routines
 
     PWSCF        :      3.19s CPU      7.26s WALL

 
   This run was terminated on:  11:32:42  10May2023            

=------------------------------------------------------------------------------=
   JOB DONE.
=------------------------------------------------------------------------------=
