An instance of this daemon is already running
An instance of this daemon is already running

     Program PWSCF v.7.1 starts on 10May2023 at 11:34:11 

     This program is part of the open-source Quantum ESPRESSO suite
     for quantum simulation of materials; please cite
         "P. Giannozzi et al., J. Phys.:Condens. Matter 21 395502 (2009);
         "P. Giannozzi et al., J. Phys.:Condens. Matter 29 465901 (2017);
         "P. Giannozzi et al., J. Chem. Phys. 152 154105 (2020);
          URL http://www.quantum-espresso.org", 
     in publications or presentations arising from this work. More details at
     http://www.quantum-espresso.org/quote

     Parallel version (MPI & OpenMP), running on       4 processor cores
     Number of MPI processes:                 4
     Threads/MPI process:                     1

     MPI processes distributed on     1 nodes
     706975 MiB available memory on the printing compute node when the environment starts
 
     Reading input from pw-si-24.in
Warning: card &CELL ignored
Warning: card / ignored

     Current dimensions of program PWSCF are:
     Max number of different atomic species (ntypx) = 10
     Max number of k-points (npk) =  40000
     Max angular momentum in pseudopotentials (lmaxx) =  4

     IMPORTANT: XC functional enforced from input :
     Exchange-correlation= PBE
                           (   1   4   3   4   0   0   0)
     Any further DFT definition will be discarded
     Please, verify this is what you really want


     gamma-point specific algorithms are used
 
     K-points division:     npool     =       2
     R & G space division:  proc/nbgrp/npool/nimage =       2
     Subspace diagonalization in iterative solution of the eigenvalue problem:
     a serial algorithm will be used

     Message from routine divide_et_impera:
     suboptimal parallelization: some nodes have no k-points
 
     Parallelization info
     --------------------
     sticks:   dense  smooth     PW     G-vecs:    dense   smooth      PW
     Min        2005    2005    530                92169    92169   12525
     Max        2010    2010    531                92170    92170   12526
     Sum        4015    4015   1061               184339   184339   25051
 
     Using Slab Decomposition
 


     bravais-lattice index     =            0
     lattice parameter (alat)  =      21.2260  a.u.
     unit-cell volume          =    8301.7245 (a.u.)^3
     number of atoms/cell      =           64
     number of atomic types    =            1
     number of electrons       =       256.00
     number of Kohn-Sham states=          154
     kinetic-energy cutoff     =      30.0000  Ry
     charge density cutoff     =     120.0000  Ry
     scf convergence threshold =      1.0E-06
     mixing beta               =       0.5000
     number of iterations used =            8  plain     mixing
     Exchange-correlation= PBE
                           (   1   4   3   4   0   0   0)

     GPU acceleration is ACTIVE.
     GPU-aware MPI enabled

     Message from routine print_cuda_info:
     High GPU oversubscription detected. Are you sure this is what you want?

     celldm(1)=  21.226013  celldm(2)=   0.000000  celldm(3)=   0.000000
     celldm(4)=   0.000000  celldm(5)=   0.000000  celldm(6)=   0.000000

     crystal axes: (cart. coord. in units of alat)
               a(1) = (   1.000000   0.000000   0.000000 )  
               a(2) = (   0.000000   0.933552   0.000000 )  
               a(3) = (   0.000000   0.000000   0.929875 )  

     reciprocal axes: (cart. coord. in units 2 pi/alat)
               b(1) = (  1.000000  0.000000  0.000000 )  
               b(2) = (  0.000000  1.071178  0.000000 )  
               b(3) = (  0.000000  0.000000  1.075413 )  


     PseudoPot. # 1 for Si read from file:
     /home/ppiaggi/pseudos/Si_ONCV_PBE_sr.upf
     MD5 check sum: 8553c464762ac42b85b1eed164b4d029
     Pseudo is Norm-conserving, Zval =  4.0
     Generated using ONCVPSP code by D. R. Hamann
     Using radial grid of 1510 points,  4 beta functions with: 
                l(1) =   0
                l(2) =   0
                l(3) =   1
                l(4) =   1

     atomic species   valence    mass     pseudopotential
        Si             4.00    28.08500     Si( 1.00)

     No symmetry found



   Cartesian axes

     site n.     atom                  positions (alat units)
         1           Si  tau(   1) = (   0.0067256   0.0002969   0.0154575  )
         2           Si  tau(   2) = (  -0.0063112   0.2114719   0.2505377  )
         3           Si  tau(   3) = (   0.2421576  -0.0071224   0.2571026  )
         4           Si  tau(   4) = (   0.2492340   0.2155420   0.0068499  )
         5           Si  tau(   5) = (   0.1343966   0.1008208   0.1270662  )
         6           Si  tau(   6) = (   0.4965775  -0.0122333  -0.0170582  )
         7           Si  tau(   7) = (   0.5020906   0.2158937   0.2522234  )
         8           Si  tau(   8) = (   0.5906876   0.0971014   0.1160598  )
         9           Si  tau(   9) = (   0.7355842   0.0131142   0.2466263  )
        10           Si  tau(  10) = (   0.7270140   0.2127361   0.0157686  )
        11           Si  tau(  11) = (  -0.0115288   0.4636216   0.0000456  )
        12           Si  tau(  12) = (   0.2352236   0.4485740   0.2529507  )
        13           Si  tau(  13) = (   0.1289114   0.5700196   0.1276033  )
        14           Si  tau(  14) = (   0.3480275   0.3355555   0.1249720  )
        15           Si  tau(  15) = (   0.4788396   0.4414326  -0.0148746  )
        16           Si  tau(  16) = (   0.5990531   0.5489105   0.1077058  )
        17           Si  tau(  17) = (   0.8400860   0.3511175   0.1285127  )
        18           Si  tau(  18) = (   0.7269218   0.4595170   0.2250614  )
        19           Si  tau(  19) = (   0.0092524   0.6789384   0.2567431  )
        20           Si  tau(  20) = (   0.2364103   0.6653768  -0.0131104  )
        21           Si  tau(  21) = (   0.3730115   0.7842296   0.1230691  )
        22           Si  tau(  22) = (   0.4865112   0.6565813   0.2318465  )
        23           Si  tau(  23) = (   0.7417655   0.6831898   0.0032051  )
        24           Si  tau(  24) = (   0.8663963   0.7956093   0.1048057  )
        25           Si  tau(  25) = (   0.0027454  -0.0103835   0.4899062  )
        26           Si  tau(  26) = (   0.2461308   0.2102325   0.4966361  )
        27           Si  tau(  27) = (   0.1236426   0.1264104   0.5914041  )
        28           Si  tau(  28) = (   0.3725766   0.1209721   0.3619381  )
        29           Si  tau(  29) = (   0.4830535  -0.0074525   0.4872751  )
        30           Si  tau(  30) = (   0.6128970   0.1142862   0.6141146  )
        31           Si  tau(  31) = (   0.8332373   0.1260675   0.3655022  )
        32           Si  tau(  32) = (   0.7129977   0.2299547   0.4882770  )
        33           Si  tau(  33) = (   0.1384163   0.3316158   0.3686294  )
        34           Si  tau(  34) = (   0.0047214   0.4427783   0.4871952  )
        35           Si  tau(  35) = (   0.1123376   0.5552542   0.5881595  )
        36           Si  tau(  36) = (   0.5992149   0.3432753   0.3740036  )
        37           Si  tau(  37) = (   0.3801139   0.5605690   0.3475667  )
        38           Si  tau(  38) = (   0.3501970   0.3279093   0.5929715  )
        39           Si  tau(  39) = (   0.4919405   0.4457504   0.4764484  )
        40           Si  tau(  40) = (   0.5933592   0.5698511   0.6130862  )
        41           Si  tau(  41) = (   0.8374562   0.5562910   0.3590594  )
        42           Si  tau(  42) = (   0.8481345   0.3336222   0.6111208  )
        43           Si  tau(  43) = (   0.1328597   0.7862672   0.3476475  )
        44           Si  tau(  44) = (   0.2359534   0.6830311   0.4704160  )
        45           Si  tau(  45) = (   0.5996045   0.7733213   0.3775521  )
        46           Si  tau(  46) = (   0.3520446   0.7942825   0.6173549  )
        47           Si  tau(  47) = (   0.7132420   0.6688365   0.4863987  )
        48           Si  tau(  48) = (   0.8338077   0.7677766   0.5899757  )
        49           Si  tau(  49) = (   0.0034585   0.2363348   0.7091404  )
        50           Si  tau(  50) = (   0.2415585   0.0102890   0.7089958  )
        51           Si  tau(  51) = (   0.3604707   0.0995445   0.8577132  )
        52           Si  tau(  52) = (   0.4934930   0.2368382   0.7234069  )
        53           Si  tau(  53) = (   0.7204230  -0.0105766   0.7214305  )
        54           Si  tau(  54) = (   0.8483467   0.1023203   0.8347923  )
        55           Si  tau(  55) = (   0.1207037   0.3486159   0.8556902  )
        56           Si  tau(  56) = (   0.2299738   0.4438359   0.7267922  )
        57           Si  tau(  57) = (   0.5994397   0.3448032   0.8393747  )
        58           Si  tau(  58) = (   0.3712322   0.5572491   0.8361334  )
        59           Si  tau(  59) = (   0.7202791   0.4460761   0.7330733  )
        60           Si  tau(  60) = (   0.8541947   0.5750723   0.8466761  )
        61           Si  tau(  61) = (   0.0136843   0.6861490   0.7272165  )
        62           Si  tau(  62) = (   0.1313598   0.7818195   0.8576228  )
        63           Si  tau(  63) = (   0.4879363   0.6756428   0.7037638  )
        64           Si  tau(  64) = (   0.6053231   0.7718384   0.8341081  )

     number of k points=     1  Fermi-Dirac smearing, width (Ry)=  0.0100
                       cart. coord. in units 2pi/alat
        k(    1) = (   0.0000000   0.0000000   0.0000000), wk =   2.0000000

     Dense  grid:    92170 G-vectors     FFT dimensions: (  75,  72,  72)

     Estimated max dynamical RAM per process >     148.19 MB

     Estimated total dynamical RAM >     570.26 MB

     Initial potential from superposition of free atoms

     starting charge     255.9608, renormalised to     256.0000
     Starting wfcs are  256 randomized atomic wfcs

     total cpu time spent up to now is        5.2 secs

     Self-consistent Calculation

     iteration #  1     ecut=    30.00 Ry     beta= 0.50
     Davidson diagonalization with overlap
     ethr =  1.00E-02,  avg # of iterations =  3.0

     Threshold (ethr) on eigenvalues was too large:
     Diagonalizing with lowered threshold

     Davidson diagonalization with overlap
     ethr =  9.10E-04,  avg # of iterations =  4.0

     total cpu time spent up to now is        5.5 secs

     total energy              =    -501.37652558 Ry
     estimated scf accuracy    <       2.65907638 Ry

     iteration #  2     ecut=    30.00 Ry     beta= 0.50
     Davidson diagonalization with overlap
     ethr =  1.04E-03,  avg # of iterations =  5.0

     total cpu time spent up to now is        5.7 secs

     total energy              =    -500.57777168 Ry
     estimated scf accuracy    <       7.39430376 Ry

     iteration #  3     ecut=    30.00 Ry     beta= 0.50
     Davidson diagonalization with overlap
     ethr =  1.04E-03,  avg # of iterations =  4.0

     total cpu time spent up to now is        5.8 secs

     total energy              =    -501.64565538 Ry
     estimated scf accuracy    <       1.79407824 Ry

     iteration #  4     ecut=    30.00 Ry     beta= 0.50
     Davidson diagonalization with overlap
     ethr =  7.01E-04,  avg # of iterations =  2.0

     total cpu time spent up to now is        5.9 secs

     total energy              =    -501.71651455 Ry
     estimated scf accuracy    <       0.41443731 Ry

     iteration #  5     ecut=    30.00 Ry     beta= 0.50
     Davidson diagonalization with overlap
     ethr =  1.62E-04,  avg # of iterations =  4.0

     total cpu time spent up to now is        6.0 secs

     total energy              =    -501.77410751 Ry
     estimated scf accuracy    <       0.18595671 Ry

     iteration #  6     ecut=    30.00 Ry     beta= 0.50
     Davidson diagonalization with overlap
     ethr =  7.26E-05,  avg # of iterations =  3.0

     total cpu time spent up to now is        6.1 secs

     total energy              =    -501.79605549 Ry
     estimated scf accuracy    <       0.01602899 Ry

     iteration #  7     ecut=    30.00 Ry     beta= 0.50
     Davidson diagonalization with overlap
     c_bands:  1 eigenvalues not converged
     ethr =  6.26E-06,  avg # of iterations = 20.0

     total cpu time spent up to now is        6.3 secs

     total energy              =    -501.79937777 Ry
     estimated scf accuracy    <       0.00488052 Ry

     iteration #  8     ecut=    30.00 Ry     beta= 0.50
     Davidson diagonalization with overlap
     ethr =  1.91E-06,  avg # of iterations =  6.0

     total cpu time spent up to now is        6.5 secs

     total energy              =    -501.79965610 Ry
     estimated scf accuracy    <       0.00355079 Ry

     iteration #  9     ecut=    30.00 Ry     beta= 0.50
     Davidson diagonalization with overlap
     ethr =  1.39E-06,  avg # of iterations =  3.0

     total cpu time spent up to now is        6.6 secs

     total energy              =    -501.80008169 Ry
     estimated scf accuracy    <       0.00075990 Ry

     iteration # 10     ecut=    30.00 Ry     beta= 0.50
     Davidson diagonalization with overlap
     ethr =  2.97E-07,  avg # of iterations =  3.0

     total cpu time spent up to now is        6.7 secs

     total energy              =    -501.80017804 Ry
     estimated scf accuracy    <       0.00009898 Ry

     iteration # 11     ecut=    30.00 Ry     beta= 0.50
     Davidson diagonalization with overlap
     ethr =  3.87E-08,  avg # of iterations =  5.0

     total cpu time spent up to now is        6.8 secs

     total energy              =    -501.80019158 Ry
     estimated scf accuracy    <       0.00008432 Ry

     iteration # 12     ecut=    30.00 Ry     beta= 0.50
     Davidson diagonalization with overlap
     ethr =  3.29E-08,  avg # of iterations =  3.0

     total cpu time spent up to now is        6.9 secs

     total energy              =    -501.80020082 Ry
     estimated scf accuracy    <       0.00001720 Ry

     iteration # 13     ecut=    30.00 Ry     beta= 0.50
     Davidson diagonalization with overlap
     ethr =  6.72E-09,  avg # of iterations =  3.0

     total cpu time spent up to now is        7.0 secs

     total energy              =    -501.80020357 Ry
     estimated scf accuracy    <       0.00000144 Ry

     iteration # 14     ecut=    30.00 Ry     beta= 0.50
     Davidson diagonalization with overlap
     ethr =  5.61E-10,  avg # of iterations =  5.0

     total cpu time spent up to now is        7.2 secs

     total energy              =    -501.80020373 Ry
     estimated scf accuracy    <       0.00000158 Ry

     iteration # 15     ecut=    30.00 Ry     beta= 0.50
     Davidson diagonalization with overlap
     ethr =  5.61E-10,  avg # of iterations =  3.0

     total cpu time spent up to now is        7.3 secs

     End of self-consistent calculation

          k = 0.0000 0.0000 0.0000 ( 11539 PWs)   bands (ev):

    -6.0180  -5.2159  -5.0353  -4.8876  -4.7310  -4.6634  -4.6019  -4.3237
    -4.2330  -4.1019  -3.8935  -3.8267  -3.7036  -3.6234  -3.6117  -3.4812
    -3.4459  -3.3859  -3.2787  -3.1392  -3.0230  -2.9918  -2.4919  -2.0864
    -2.0112  -1.7977  -1.5982  -1.5767  -1.4903  -1.3913  -1.3569  -1.2441
    -1.2208  -1.1828  -1.1314  -1.0411  -0.9311  -0.8869  -0.8263  -0.7508
    -0.6733  -0.6008  -0.4870  -0.3571  -0.2439   0.5005   0.6463   0.7404
     0.8230   0.9235   0.9350   1.0178   1.0299   1.1162   1.2579   1.2703
     1.3927   1.9649   2.0618   2.0836   2.1025   2.2214   2.2503   2.3007
     2.3736   2.4113   2.4537   2.5031   2.5314   2.5649   2.6281   2.6916
     2.7026   2.7403   2.7998   2.8565   2.8733   2.9727   3.0356   3.0657
     3.1954   3.2479   3.3378   3.3760   3.4130   3.4286   3.5458   3.6100
     3.6353   3.7033   3.7299   3.9530   3.9641   4.0685   4.2198   4.2883
     4.3644   4.4354   4.5384   4.5978   4.6366   4.7125   4.8251   4.8430
     4.9619   4.9754   5.0423   5.1039   5.1375   5.1931   5.2965   5.3552
     5.3717   5.4102   5.4709   5.5298   5.6274   5.6742   5.8214   5.8779
     5.9466   6.0054   6.0709   6.3508   6.4364   6.5932   6.6109   6.8146
     6.8625   6.9067   6.9908   7.2067   7.2916   7.3569   7.4060   7.5142
     7.5555   7.6345   7.6721   7.7110   7.7570   7.7917   8.0065   8.0292
     8.3074   8.3343   8.4175   8.5097   8.5546   8.6150   8.6955   8.8016
     8.8326   8.9460

     the Fermi energy is     6.8002 ev

!    total energy              =    -501.80020340 Ry
     estimated scf accuracy    <       0.00000073 Ry
     smearing contrib. (-TS)   =      -0.08995900 Ry
     internal energy E=F+TS    =    -501.71024440 Ry

     The total energy is F=E-TS. E is the sum of the following terms:
     one-electron contribution =     142.68094372 Ry
     hartree contribution      =      43.45637611 Ry
     xc contribution           =    -155.44871451 Ry
     ewald contribution        =    -532.39884973 Ry

     convergence has been achieved in  15 iterations

     Forces acting on atoms (cartesian axes, Ry/au):

     atom    1 type  1   force =    -0.04898544   -0.06176203   -0.04169988
     atom    2 type  1   force =     0.00056067    0.04159604   -0.00124876
     atom    3 type  1   force =     0.06892912   -0.02257940   -0.04147301
     atom    4 type  1   force =    -0.12646562    0.08992306    0.08190029
     atom    5 type  1   force =    -0.03891161    0.03155183    0.04465657
     atom    6 type  1   force =     0.02759622   -0.12495950    0.08828978
     atom    7 type  1   force =    -0.03872472    0.06039612   -0.06673798
     atom    8 type  1   force =     0.07298747    0.00283094    0.05484274
     atom    9 type  1   force =    -0.05904361   -0.14067350   -0.07164299
     atom   10 type  1   force =    -0.00851901    0.05318328    0.02657729
     atom   11 type  1   force =    -0.01754047    0.01011920    0.13059824
     atom   12 type  1   force =     0.05167990    0.04817553   -0.05559127
     atom   13 type  1   force =    -0.05952384   -0.02316550    0.00360332
     atom   14 type  1   force =     0.08799264    0.00846506    0.04502931
     atom   15 type  1   force =    -0.09156123    0.00841785    0.27543004
     atom   16 type  1   force =     0.02677287    0.05344228   -0.03465910
     atom   17 type  1   force =     0.14171371   -0.12945000   -0.07892240
     atom   18 type  1   force =    -0.08063540    0.01319276    0.12276373
     atom   19 type  1   force =    -0.14410183   -0.05864218   -0.08666336
     atom   20 type  1   force =     0.21025173   -0.15451937    0.20610786
     atom   21 type  1   force =    -0.04259148    0.06184647   -0.02680676
     atom   22 type  1   force =     0.08919754    0.12186346   -0.03498164
     atom   23 type  1   force =    -0.11536316    0.03892055    0.14669514
     atom   24 type  1   force =     0.04293944    0.07629812    0.11610962
     atom   25 type  1   force =    -0.05341032   -0.03917967   -0.04617366
     atom   26 type  1   force =     0.08535234    0.04426341   -0.21490525
     atom   27 type  1   force =    -0.16836765   -0.14474942    0.10819999
     atom   28 type  1   force =    -0.04047053   -0.08656649    0.04046542
     atom   29 type  1   force =     0.00995065   -0.03803670    0.01453888
     atom   30 type  1   force =    -0.06308224   -0.03446651   -0.03598225
     atom   31 type  1   force =     0.11637785   -0.00233712    0.03828749
     atom   32 type  1   force =     0.06445533    0.00982377    0.02049862
     atom   33 type  1   force =    -0.10443531   -0.06400387    0.03740700
     atom   34 type  1   force =    -0.13673686   -0.07362134   -0.08302066
     atom   35 type  1   force =     0.08057985    0.10833229    0.09814373
     atom   36 type  1   force =     0.13214126   -0.05126935   -0.14633285
     atom   37 type  1   force =    -0.12422493   -0.05036376    0.12167863
     atom   38 type  1   force =     0.10666300    0.10673572    0.10509602
     atom   39 type  1   force =    -0.13610812    0.10279286    0.12474427
     atom   40 type  1   force =     0.15507557   -0.20769927   -0.12756429
     atom   41 type  1   force =     0.08407205    0.02884694    0.03233906
     atom   42 type  1   force =     0.01792314    0.01897800   -0.02242317
     atom   43 type  1   force =    -0.02596577    0.13534482    0.06752859
     atom   44 type  1   force =     0.08695454   -0.06748032    0.07472104
     atom   45 type  1   force =    -0.05348573    0.12562315   -0.09448906
     atom   46 type  1   force =    -0.01964482    0.05067868   -0.08461096
     atom   47 type  1   force =     0.02681274   -0.10035825   -0.03855436
     atom   48 type  1   force =     0.13462231    0.14373747    0.11655987
     atom   49 type  1   force =    -0.03881284    0.00350800    0.06305049
     atom   50 type  1   force =     0.00856597   -0.05794680    0.07050855
     atom   51 type  1   force =     0.03081231   -0.02236941   -0.20589547
     atom   52 type  1   force =    -0.09868842   -0.07357924   -0.04279507
     atom   53 type  1   force =     0.04621070   -0.09913956   -0.00267039
     atom   54 type  1   force =     0.07834526   -0.01238920   -0.03448725
     atom   55 type  1   force =    -0.01814784   -0.09919072   -0.06167447
     atom   56 type  1   force =     0.04958041    0.04065390   -0.08227122
     atom   57 type  1   force =     0.20719895   -0.19022360   -0.04242603
     atom   58 type  1   force =    -0.08080783    0.09868856   -0.17999795
     atom   59 type  1   force =     0.07727085    0.08721441   -0.06114188
     atom   60 type  1   force =     0.09078518   -0.09055217   -0.18450023
     atom   61 type  1   force =    -0.08283746   -0.03714193   -0.05903396
     atom   62 type  1   force =    -0.22184515    0.32605289   -0.16402658
     atom   63 type  1   force =    -0.16279677    0.11768436    0.15219279
     atom   64 type  1   force =    -0.00853557    0.08923438   -0.07316020

     Total force =     1.328127     Total SCF correction =     0.001776


     Computing stress (Cartesian axis) and pressure

          total   stress  (Ry/bohr**3)                   (kbar)     P=      115.66
   0.00076900  -0.00028684   0.00002416          113.12      -42.20        3.55
  -0.00028684   0.00088224   0.00018131          -42.20      129.78       26.67
   0.00002416   0.00018131   0.00070757            3.55       26.67      104.09

 
     init_run     :      1.23s CPU      5.16s WALL (       1 calls)
     electrons    :      1.87s CPU      2.01s WALL (       1 calls)
     forces       :      0.04s CPU      0.05s WALL (       1 calls)
     stress       :      0.15s CPU      0.16s WALL (       1 calls)

     Called by init_run:
     wfcinit      :      0.52s CPU      4.27s WALL (       1 calls)
                                        4.27s GPU  (       1 calls)
     potinit      :      0.19s CPU      0.29s WALL (       1 calls)
     hinit0       :      0.50s CPU      0.53s WALL (       1 calls)

     Called by electrons:
     c_bands      :      1.18s CPU      1.24s WALL (      16 calls)
     sum_band     :      0.37s CPU      0.41s WALL (      16 calls)
     v_of_rho     :      0.16s CPU      0.27s WALL (      16 calls)
     mix_rho      :      0.14s CPU      0.16s WALL (      16 calls)

     Called by c_bands:
     init_us_2    :      0.06s CPU      0.06s WALL (      33 calls)
     init_us_2:gp :      0.06s CPU      0.06s WALL (      33 calls)
     regterg      :      1.05s CPU      1.09s WALL (      16 calls)

     Called by *egterg:
     rdiaghg      :      0.41s CPU      1.18s WALL (      91 calls)
                                        1.16s GPU  (      91 calls)
     h_psi        :      0.97s CPU      3.98s WALL (      93 calls)
                                        3.98s GPU  (      93 calls)
     g_psi        :      0.00s CPU      0.00s WALL (      76 calls)
                                        0.00s GPU  (      76 calls)

     Called by h_psi:
     h_psi:calbec :      0.48s CPU      3.41s WALL (      93 calls)
                                        3.41s GPU  (      93 calls)
     vloc_psi     :      0.43s CPU      0.50s WALL (      93 calls)
                                        0.50s GPU  (      93 calls)
     add_vuspsi   :      0.04s CPU      0.05s WALL (      93 calls)
                                        0.05s GPU  (      93 calls)

     General routines
     calbec       :      0.48s CPU      3.42s WALL (      98 calls)
     fft          :      0.61s CPU      0.75s WALL (     135 calls)
                                        0.14s GPU  (      86 calls)
     ffts         :      0.05s CPU      0.05s WALL (      16 calls)
     fftw         :      0.50s CPU      0.66s WALL (    1734 calls)
                                        0.58s GPU  (    1734 calls)
 
     Parallel routines
 
     PWSCF        :      3.34s CPU      7.48s WALL

 
   This run was terminated on:  11:34:18  10May2023            

=------------------------------------------------------------------------------=
   JOB DONE.
=------------------------------------------------------------------------------=
