An instance of this daemon is already running

     Program PWSCF v.7.1 starts on 10May2023 at 11:33:42 

     This program is part of the open-source Quantum ESPRESSO suite
     for quantum simulation of materials; please cite
         "P. Giannozzi et al., J. Phys.:Condens. Matter 21 395502 (2009);
         "P. Giannozzi et al., J. Phys.:Condens. Matter 29 465901 (2017);
         "P. Giannozzi et al., J. Chem. Phys. 152 154105 (2020);
          URL http://www.quantum-espresso.org", 
     in publications or presentations arising from this work. More details at
     http://www.quantum-espresso.org/quote

     Parallel version (MPI & OpenMP), running on       4 processor cores
     Number of MPI processes:                 4
     Threads/MPI process:                     1

     MPI processes distributed on     1 nodes
     706979 MiB available memory on the printing compute node when the environment starts
 
     Reading input from pw-si-21.in
Warning: card &CELL ignored
Warning: card / ignored

     Current dimensions of program PWSCF are:
     Max number of different atomic species (ntypx) = 10
     Max number of k-points (npk) =  40000
     Max angular momentum in pseudopotentials (lmaxx) =  4

     IMPORTANT: XC functional enforced from input :
     Exchange-correlation= PBE
                           (   1   4   3   4   0   0   0)
     Any further DFT definition will be discarded
     Please, verify this is what you really want


     gamma-point specific algorithms are used
 
     K-points division:     npool     =       2
     R & G space division:  proc/nbgrp/npool/nimage =       2
     Subspace diagonalization in iterative solution of the eigenvalue problem:
     a serial algorithm will be used

     Message from routine divide_et_impera:
     suboptimal parallelization: some nodes have no k-points
 
     Parallelization info
     --------------------
     sticks:   dense  smooth     PW     G-vecs:    dense   smooth      PW
     Min        2037    2037    542                96139    96139   13059
     Max        2038    2038    543                96146    96146   13062
     Sum        4075    4075   1085               192285   192285   26121
 
     Using Slab Decomposition
 


     bravais-lattice index     =            0
     lattice parameter (alat)  =      20.3487  a.u.
     unit-cell volume          =    8662.3610 (a.u.)^3
     number of atoms/cell      =           64
     number of atomic types    =            1
     number of electrons       =       256.00
     number of Kohn-Sham states=          154
     kinetic-energy cutoff     =      30.0000  Ry
     charge density cutoff     =     120.0000  Ry
     scf convergence threshold =      1.0E-06
     mixing beta               =       0.5000
     number of iterations used =            8  plain     mixing
     Exchange-correlation= PBE
                           (   1   4   3   4   0   0   0)

     GPU acceleration is ACTIVE.
     GPU-aware MPI enabled

     Message from routine print_cuda_info:
     High GPU oversubscription detected. Are you sure this is what you want?

     celldm(1)=  20.348673  celldm(2)=   0.000000  celldm(3)=   0.000000
     celldm(4)=   0.000000  celldm(5)=   0.000000  celldm(6)=   0.000000

     crystal axes: (cart. coord. in units of alat)
               a(1) = (   1.000000   0.000000   0.000000 )  
               a(2) = (   0.000000   1.031924   0.000000 )  
               a(3) = (   0.000000   0.000000   0.996277 )  

     reciprocal axes: (cart. coord. in units 2 pi/alat)
               b(1) = (  1.000000  0.000000  0.000000 )  
               b(2) = (  0.000000  0.969063  0.000000 )  
               b(3) = (  0.000000  0.000000  1.003737 )  


     PseudoPot. # 1 for Si read from file:
     /home/ppiaggi/pseudos/Si_ONCV_PBE_sr.upf
     MD5 check sum: 8553c464762ac42b85b1eed164b4d029
     Pseudo is Norm-conserving, Zval =  4.0
     Generated using ONCVPSP code by D. R. Hamann
     Using radial grid of 1510 points,  4 beta functions with: 
                l(1) =   0
                l(2) =   0
                l(3) =   1
                l(4) =   1

     atomic species   valence    mass     pseudopotential
        Si             4.00    28.08500     Si( 1.00)

     No symmetry found



   Cartesian axes

     site n.     atom                  positions (alat units)
         1           Si  tau(   1) = (   0.0148754   0.0146728  -0.0098680  )
         2           Si  tau(   2) = (  -0.0092013   0.2349979   0.2754552  )
         3           Si  tau(   3) = (   0.2662536  -0.0129172   0.2691112  )
         4           Si  tau(   4) = (   0.2676102   0.2462500   0.0185628  )
         5           Si  tau(   5) = (   0.1153505   0.1159091   0.1480451  )
         6           Si  tau(   6) = (   0.5137882   0.0142451  -0.0156949  )
         7           Si  tau(   7) = (   0.5310106   0.2489596   0.2570802  )
         8           Si  tau(   8) = (   0.6537781   0.1397194   0.1405469  )
         9           Si  tau(   9) = (   0.7869690   0.0104519   0.2604074  )
        10           Si  tau(  10) = (   0.7678544   0.2367662  -0.0067117  )
        11           Si  tau(  11) = (  -0.0134754   0.5019114   0.0009551  )
        12           Si  tau(  12) = (   0.2477573   0.5084655   0.2741247  )
        13           Si  tau(  13) = (   0.1217681   0.6223256   0.1222933  )
        14           Si  tau(  14) = (   0.3699476   0.3810164   0.1372835  )
        15           Si  tau(  15) = (   0.5344950   0.4789722   0.0037478  )
        16           Si  tau(  16) = (   0.6493958   0.6344995   0.1254139  )
        17           Si  tau(  17) = (   0.9002057   0.3795233   0.1321802  )
        18           Si  tau(  18) = (   0.7792099   0.4924992   0.2635020  )
        19           Si  tau(  19) = (  -0.0108614   0.7536286   0.2673704  )
        20           Si  tau(  20) = (   0.2775884   0.7616428  -0.0034683  )
        21           Si  tau(  21) = (   0.3984232   0.8612491   0.1325091  )
        22           Si  tau(  22) = (   0.5103087   0.7447806   0.2685256  )
        23           Si  tau(  23) = (   0.7955928   0.7392389  -0.0020124  )
        24           Si  tau(  24) = (   0.8985127   0.8543411   0.1271829  )
        25           Si  tau(  25) = (  -0.0069478  -0.0030624   0.5268792  )
        26           Si  tau(  26) = (   0.2415128   0.2580350   0.5122958  )
        27           Si  tau(  27) = (   0.1418350   0.1337225   0.6625870  )
        28           Si  tau(  28) = (   0.3962375   0.1062510   0.3998659  )
        29           Si  tau(  29) = (   0.5218994  -0.0061899   0.5413111  )
        30           Si  tau(  30) = (   0.6413828   0.1128333   0.6720577  )
        31           Si  tau(  31) = (   0.9121478   0.1197419   0.4057047  )
        32           Si  tau(  32) = (   0.7614260   0.2662942   0.5235579  )
        33           Si  tau(  33) = (   0.1130228   0.3795187   0.4047653  )
        34           Si  tau(  34) = (   0.0005429   0.4938383   0.5387216  )
        35           Si  tau(  35) = (   0.1205190   0.6278938   0.6542851  )
        36           Si  tau(  36) = (   0.6348273   0.3855311   0.4061700  )
        37           Si  tau(  37) = (   0.3854854   0.6268789   0.3932256  )
        38           Si  tau(  38) = (   0.3735545   0.3695643   0.6528958  )
        39           Si  tau(  39) = (   0.5053339   0.4890517   0.5068679  )
        40           Si  tau(  40) = (   0.6346706   0.6177137   0.6698248  )
        41           Si  tau(  41) = (   0.9199188   0.6101897   0.3969062  )
        42           Si  tau(  42) = (   0.9058563   0.3776853   0.6412029  )
        43           Si  tau(  43) = (   0.1141186   0.8726551   0.3864651  )
        44           Si  tau(  44) = (   0.2506941   0.7366387   0.5101749  )
        45           Si  tau(  45) = (   0.6539274   0.8853603   0.4061519  )
        46           Si  tau(  46) = (   0.3860986   0.8567174   0.6702451  )
        47           Si  tau(  47) = (   0.7654083   0.7562802   0.5256219  )
        48           Si  tau(  48) = (   0.8916056   0.8730407   0.6467153  )
        49           Si  tau(  49) = (  -0.0006990   0.2475479   0.7916569  )
        50           Si  tau(  50) = (   0.2652036  -0.0107862   0.7671928  )
        51           Si  tau(  51) = (   0.4017002   0.1111606   0.9280382  )
        52           Si  tau(  52) = (   0.4993469   0.2420835   0.7707216  )
        53           Si  tau(  53) = (   0.7688906   0.0000420   0.7701801  )
        54           Si  tau(  54) = (   0.9103022   0.1226697   0.9117609  )
        55           Si  tau(  55) = (   0.1476242   0.3873371   0.9060091  )
        56           Si  tau(  56) = (   0.2768399   0.5054112   0.8021124  )
        57           Si  tau(  57) = (   0.6559087   0.3587096   0.9232006  )
        58           Si  tau(  58) = (   0.3930286   0.6232618   0.9258142  )
        59           Si  tau(  59) = (   0.7832434   0.5014460   0.7747894  )
        60           Si  tau(  60) = (   0.9149949   0.6241543   0.9077643  )
        61           Si  tau(  61) = (   0.0166118   0.7568401   0.7670926  )
        62           Si  tau(  62) = (   0.1349554   0.8758984   0.9096636  )
        63           Si  tau(  63) = (   0.5229747   0.7561399   0.7821633  )
        64           Si  tau(  64) = (   0.6519661   0.8518142   0.9260427  )

     number of k points=     1  Fermi-Dirac smearing, width (Ry)=  0.0100
                       cart. coord. in units 2pi/alat
        k(    1) = (   0.0000000   0.0000000   0.0000000), wk =   2.0000000

     Dense  grid:    96143 G-vectors     FFT dimensions: (  72,  75,  72)

     Estimated max dynamical RAM per process >     153.91 MB

     Estimated total dynamical RAM >     592.16 MB

     Initial potential from superposition of free atoms

     starting charge     255.9608, renormalised to     256.0000
     Starting wfcs are  256 randomized atomic wfcs

     total cpu time spent up to now is        5.1 secs

     Self-consistent Calculation

     iteration #  1     ecut=    30.00 Ry     beta= 0.50
     Davidson diagonalization with overlap
     ethr =  1.00E-02,  avg # of iterations =  3.0

     Threshold (ethr) on eigenvalues was too large:
     Diagonalizing with lowered threshold

     Davidson diagonalization with overlap
     ethr =  8.55E-04,  avg # of iterations =  4.0

     total cpu time spent up to now is        5.4 secs

     total energy              =    -501.08962189 Ry
     estimated scf accuracy    <       2.55101693 Ry

     iteration #  2     ecut=    30.00 Ry     beta= 0.50
     Davidson diagonalization with overlap
     ethr =  9.96E-04,  avg # of iterations =  4.0

     total cpu time spent up to now is        5.6 secs

     total energy              =    -500.75660042 Ry
     estimated scf accuracy    <       3.21005791 Ry

     iteration #  3     ecut=    30.00 Ry     beta= 0.50
     Davidson diagonalization with overlap
     ethr =  9.96E-04,  avg # of iterations =  4.0

     total cpu time spent up to now is        5.7 secs

     total energy              =    -501.22813647 Ry
     estimated scf accuracy    <       1.86596947 Ry

     iteration #  4     ecut=    30.00 Ry     beta= 0.50
     Davidson diagonalization with overlap
     ethr =  7.29E-04,  avg # of iterations =  2.0

     total cpu time spent up to now is        5.8 secs

     total energy              =    -501.38035671 Ry
     estimated scf accuracy    <       0.33759985 Ry

     iteration #  5     ecut=    30.00 Ry     beta= 0.50
     Davidson diagonalization with overlap
     ethr =  1.32E-04,  avg # of iterations = 11.0

     total cpu time spent up to now is        5.9 secs

     total energy              =    -501.42378187 Ry
     estimated scf accuracy    <       0.25223089 Ry

     iteration #  6     ecut=    30.00 Ry     beta= 0.50
     Davidson diagonalization with overlap
     ethr =  9.85E-05,  avg # of iterations =  3.0

     total cpu time spent up to now is        6.0 secs

     total energy              =    -501.45205176 Ry
     estimated scf accuracy    <       0.02222258 Ry

     iteration #  7     ecut=    30.00 Ry     beta= 0.50
     Davidson diagonalization with overlap
     ethr =  8.68E-06,  avg # of iterations = 12.0

     total cpu time spent up to now is        6.2 secs

     total energy              =    -501.45556012 Ry
     estimated scf accuracy    <       0.00804368 Ry

     iteration #  8     ecut=    30.00 Ry     beta= 0.50
     Davidson diagonalization with overlap
     ethr =  3.14E-06,  avg # of iterations =  3.0

     total cpu time spent up to now is        6.3 secs

     total energy              =    -501.45638604 Ry
     estimated scf accuracy    <       0.00515502 Ry

     iteration #  9     ecut=    30.00 Ry     beta= 0.50
     Davidson diagonalization with overlap
     ethr =  2.01E-06,  avg # of iterations =  2.0

     total cpu time spent up to now is        6.4 secs

     total energy              =    -501.45696715 Ry
     estimated scf accuracy    <       0.00052477 Ry

     iteration # 10     ecut=    30.00 Ry     beta= 0.50
     Davidson diagonalization with overlap
     ethr =  2.05E-07,  avg # of iterations =  4.0

     total cpu time spent up to now is        6.5 secs

     total energy              =    -501.45705291 Ry
     estimated scf accuracy    <       0.00027468 Ry

     iteration # 11     ecut=    30.00 Ry     beta= 0.50
     Davidson diagonalization with overlap
     ethr =  1.07E-07,  avg # of iterations =  3.0

     total cpu time spent up to now is        6.7 secs

     total energy              =    -501.45708713 Ry
     estimated scf accuracy    <       0.00007401 Ry

     iteration # 12     ecut=    30.00 Ry     beta= 0.50
     Davidson diagonalization with overlap
     ethr =  2.89E-08,  avg # of iterations =  3.0

     total cpu time spent up to now is        6.8 secs

     total energy              =    -501.45709762 Ry
     estimated scf accuracy    <       0.00001570 Ry

     iteration # 13     ecut=    30.00 Ry     beta= 0.50
     Davidson diagonalization with overlap
     ethr =  6.13E-09,  avg # of iterations =  4.0

     total cpu time spent up to now is        6.9 secs

     total energy              =    -501.45709953 Ry
     estimated scf accuracy    <       0.00000637 Ry

     iteration # 14     ecut=    30.00 Ry     beta= 0.50
     Davidson diagonalization with overlap
     ethr =  2.49E-09,  avg # of iterations =  3.0

     total cpu time spent up to now is        7.0 secs

     End of self-consistent calculation

          k = 0.0000 0.0000 0.0000 ( 12023 PWs)   bands (ev):

    -6.3132  -5.6123  -5.3778  -5.2513  -4.9713  -4.8383  -4.7228  -4.6993
    -4.4533  -4.3871  -4.2663  -4.0424  -3.9556  -3.8629  -3.7877  -3.6892
    -3.5852  -3.4865  -3.4506  -3.4003  -3.2440  -3.2134  -2.8868  -2.6396
    -2.1702  -2.1223  -2.0595  -1.9806  -1.8516  -1.8049  -1.6995  -1.6704
    -1.6174  -1.5139  -1.3329  -1.2880  -1.2436  -1.1954  -1.1313  -1.0862
    -1.0634  -0.8503  -0.7597  -0.6083  -0.3993   0.1068   0.1935   0.2747
     0.3872   0.5003   0.5761   0.6467   0.7101   0.7923   0.9093   0.9943
     1.0847   1.5957   1.6801   1.7982   1.8643   1.9005   2.0006   2.0200
     2.0364   2.0965   2.2045   2.2239   2.3003   2.3440   2.3729   2.4192
     2.4375   2.5130   2.5510   2.5814   2.6154   2.6568   2.6775   2.7045
     2.7542   2.7990   2.8697   2.9648   3.0102   3.0662   3.1313   3.1874
     3.2264   3.2960   3.3756   3.5098   3.5304   3.5969   3.8245   3.9691
     4.0965   4.2242   4.2544   4.3108   4.3788   4.4293   4.4538   4.5133
     4.5674   4.6091   4.6663   4.6893   4.8166   4.9158   4.9336   4.9785
     5.0047   5.0931   5.1431   5.1592   5.2323   5.2990   5.3381   5.3891
     5.4466   5.5123   5.6509   5.7365   5.9311   5.9804   6.1499   6.3336
     6.4913   6.5852   6.6376   6.7774   6.8576   6.9390   6.9875   7.0482
     7.1073   7.1120   7.1955   7.3169   7.3250   7.3854   7.4908   7.5456
     7.7225   7.9401   7.9846   8.0634   8.0960   8.1739   8.2170   8.3323
     8.4130   8.4523

     the Fermi energy is     6.3708 ev

!    total energy              =    -501.45709993 Ry
     estimated scf accuracy    <       0.00000099 Ry
     smearing contrib. (-TS)   =      -0.07315805 Ry
     internal energy E=F+TS    =    -501.38394188 Ry

     The total energy is F=E-TS. E is the sum of the following terms:
     one-electron contribution =     132.04394116 Ry
     hartree contribution      =      44.75147952 Ry
     xc contribution           =    -154.15570163 Ry
     ewald contribution        =    -524.02366094 Ry

     convergence has been achieved in  14 iterations

     Forces acting on atoms (cartesian axes, Ry/au):

     atom    1 type  1   force =     0.31568466   -0.37635649    0.27168936
     atom    2 type  1   force =     0.09961271    0.13480375   -0.09855396
     atom    3 type  1   force =    -0.02933620   -0.04708294   -0.02477718
     atom    4 type  1   force =    -0.08691367   -0.01725621    0.03896657
     atom    5 type  1   force =     0.09113657    0.00104645    0.00038278
     atom    6 type  1   force =     0.60923097   -0.53731469    0.34539464
     atom    7 type  1   force =    -0.11062280    0.05186900    0.07508569
     atom    8 type  1   force =     0.01634103   -0.09398984   -0.04194091
     atom    9 type  1   force =    -0.02596407   -0.07994457    0.00150265
     atom   10 type  1   force =     0.14447986   -0.12215964    0.19291283
     atom   11 type  1   force =     0.29963752   -0.32882173    0.24613665
     atom   12 type  1   force =    -0.02443152   -0.01734816   -0.03478935
     atom   13 type  1   force =     0.03801409    0.04059316    0.04629866
     atom   14 type  1   force =     0.09306982   -0.00129126    0.05270253
     atom   15 type  1   force =    -0.13987466    0.14363853    0.14911220
     atom   16 type  1   force =     0.00224762   -0.04826513    0.04449175
     atom   17 type  1   force =    -0.07032808   -0.10534366    0.05187615
     atom   18 type  1   force =    -0.04149872    0.05366391    0.02277921
     atom   19 type  1   force =     0.09115156   -0.05618139    0.01282370
     atom   20 type  1   force =    -0.07771598    0.01108589    0.11103027
     atom   21 type  1   force =    -0.00910670    0.11346590    0.02725469
     atom   22 type  1   force =     0.07704933    0.02951280   -0.00288447
     atom   23 type  1   force =    -0.10267174    0.02481631    0.11935959
     atom   24 type  1   force =    -0.02332527    0.17509247   -0.01639388
     atom   25 type  1   force =     0.13186612   -0.12316572    0.11026018
     atom   26 type  1   force =     0.07033790   -0.06245707    0.02826675
     atom   27 type  1   force =    -0.04456682   -0.02843991   -0.02970371
     atom   28 type  1   force =    -0.00656536    0.05481481   -0.00637978
     atom   29 type  1   force =    -0.02057500   -0.06818742   -0.02306804
     atom   30 type  1   force =    -0.04072064    0.09831027   -0.09187079
     atom   31 type  1   force =    -0.19586785    0.03368740    0.00971806
     atom   32 type  1   force =     0.02086609   -0.07794617    0.02872998
     atom   33 type  1   force =     0.02207982   -0.00841268   -0.07654437
     atom   34 type  1   force =     0.16441946    0.13836187   -0.09086055
     atom   35 type  1   force =     0.12046284   -0.05549252   -0.02317093
     atom   36 type  1   force =     0.08478280   -0.07369702   -0.12871473
     atom   37 type  1   force =     0.00132938   -0.02717935   -0.01053455
     atom   38 type  1   force =     0.00668745    0.03067271   -0.03083198
     atom   39 type  1   force =    -0.07168985    0.08385549    0.14246994
     atom   40 type  1   force =     0.01535600   -0.00295364   -0.09076207
     atom   41 type  1   force =    -0.13311109    0.03711366   -0.01670070
     atom   42 type  1   force =    -0.17557128   -0.17862180    0.16813698
     atom   43 type  1   force =     0.06700901    0.06606617    0.03789902
     atom   44 type  1   force =    -0.02401317    0.05741925    0.05506548
     atom   45 type  1   force =    -0.04632318    0.04639818   -0.05487906
     atom   46 type  1   force =    -0.04730725    0.08007123   -0.09161092
     atom   47 type  1   force =     0.00435730   -0.08746184    0.00312589
     atom   48 type  1   force =    -0.02996418    0.07969000    0.00669187
     atom   49 type  1   force =     0.12277452    0.09154838   -0.10117861
     atom   50 type  1   force =     0.01700436   -0.02985490    0.04424992
     atom   51 type  1   force =    -0.56477931    0.45999057   -0.34607949
     atom   52 type  1   force =     0.03254253   -0.00447066    0.05036247
     atom   53 type  1   force =     0.08528670   -0.10238532    0.08757589
     atom   54 type  1   force =    -0.34184500    0.17010129   -0.23522069
     atom   55 type  1   force =    -0.06024011   -0.07182056    0.00346140
     atom   56 type  1   force =    -0.02943070    0.01905228   -0.12662567
     atom   57 type  1   force =    -0.08140110    0.10861478   -0.28626196
     atom   58 type  1   force =     0.12896684   -0.06025127   -0.08823814
     atom   59 type  1   force =    -0.03045118   -0.01771623    0.02768457
     atom   60 type  1   force =    -0.12940977    0.24851328   -0.40491607
     atom   61 type  1   force =    -0.01160686    0.03961171    0.06960937
     atom   62 type  1   force =    -0.04265726    0.08660434   -0.08358359
     atom   63 type  1   force =     0.00037968   -0.04474880    0.05985518
     atom   64 type  1   force =    -0.10427816    0.14653277   -0.08588671

     Total force =     1.891302     Total SCF correction =     0.001843


     Computing stress (Cartesian axis) and pressure

          total   stress  (Ry/bohr**3)                   (kbar)     P=       84.53
   0.00062416  -0.00058141   0.00021444           91.82      -85.53       31.55
  -0.00058141   0.00069292  -0.00033386          -85.53      101.93      -49.11
   0.00021444  -0.00033386   0.00040674           31.55      -49.11       59.83

 
     init_run     :      1.19s CPU      5.07s WALL (       1 calls)
     electrons    :      1.71s CPU      1.84s WALL (       1 calls)
     forces       :      0.04s CPU      0.05s WALL (       1 calls)
     stress       :      0.16s CPU      0.16s WALL (       1 calls)

     Called by init_run:
     wfcinit      :      0.56s CPU      4.26s WALL (       1 calls)
                                        4.26s GPU  (       1 calls)
     potinit      :      0.20s CPU      0.30s WALL (       1 calls)
     hinit0       :      0.41s CPU      0.44s WALL (       1 calls)

     Called by electrons:
     c_bands      :      1.07s CPU      1.13s WALL (      15 calls)
     sum_band     :      0.33s CPU      0.37s WALL (      15 calls)
     v_of_rho     :      0.16s CPU      0.26s WALL (      15 calls)
     mix_rho      :      0.14s CPU      0.15s WALL (      15 calls)

     Called by c_bands:
     init_us_2    :      0.05s CPU      0.06s WALL (      31 calls)
     init_us_2:gp :      0.05s CPU      0.06s WALL (      31 calls)
     regterg      :      0.94s CPU      0.99s WALL (      15 calls)

     Called by *egterg:
     rdiaghg      :      0.39s CPU      1.16s WALL (      79 calls)
                                        1.14s GPU  (      79 calls)
     h_psi        :      0.94s CPU      3.91s WALL (      81 calls)
                                        3.91s GPU  (      81 calls)
     g_psi        :      0.00s CPU      0.00s WALL (      65 calls)
                                        0.00s GPU  (      65 calls)

     Called by h_psi:
     h_psi:calbec :      0.51s CPU      3.40s WALL (      81 calls)
                                        3.40s GPU  (      81 calls)
     vloc_psi     :      0.39s CPU      0.45s WALL (      81 calls)
                                        0.45s GPU  (      81 calls)
     add_vuspsi   :      0.03s CPU      0.05s WALL (      81 calls)
                                        0.05s GPU  (      81 calls)

     General routines
     calbec       :      0.51s CPU      3.41s WALL (      86 calls)
     fft          :      0.51s CPU      0.64s WALL (     127 calls)
                                        0.13s GPU  (      81 calls)
     ffts         :      0.04s CPU      0.05s WALL (      15 calls)
     fftw         :      0.45s CPU      0.60s WALL (    1611 calls)
                                        0.53s GPU  (    1611 calls)
 
     Parallel routines
 
     PWSCF        :      3.15s CPU      7.21s WALL

 
   This run was terminated on:  11:33:49  10May2023            

=------------------------------------------------------------------------------=
   JOB DONE.
=------------------------------------------------------------------------------=
