An instance of this daemon is already running

     Program PWSCF v.7.1 starts on 10May2023 at 11:38:23 

     This program is part of the open-source Quantum ESPRESSO suite
     for quantum simulation of materials; please cite
         "P. Giannozzi et al., J. Phys.:Condens. Matter 21 395502 (2009);
         "P. Giannozzi et al., J. Phys.:Condens. Matter 29 465901 (2017);
         "P. Giannozzi et al., J. Chem. Phys. 152 154105 (2020);
          URL http://www.quantum-espresso.org", 
     in publications or presentations arising from this work. More details at
     http://www.quantum-espresso.org/quote

     Parallel version (MPI & OpenMP), running on       4 processor cores
     Number of MPI processes:                 4
     Threads/MPI process:                     1

     MPI processes distributed on     1 nodes
     706972 MiB available memory on the printing compute node when the environment starts
 
     Reading input from pw-si-50.in
Warning: card &CELL ignored
Warning: card / ignored

     Current dimensions of program PWSCF are:
     Max number of different atomic species (ntypx) = 10
     Max number of k-points (npk) =  40000
     Max angular momentum in pseudopotentials (lmaxx) =  4

     IMPORTANT: XC functional enforced from input :
     Exchange-correlation= PBE
                           (   1   4   3   4   0   0   0)
     Any further DFT definition will be discarded
     Please, verify this is what you really want


     gamma-point specific algorithms are used
 
     K-points division:     npool     =       2
     R & G space division:  proc/nbgrp/npool/nimage =       2
     Subspace diagonalization in iterative solution of the eigenvalue problem:
     a serial algorithm will be used

     Message from routine divide_et_impera:
     suboptimal parallelization: some nodes have no k-points
 
     Parallelization info
     --------------------
     sticks:   dense  smooth     PW     G-vecs:    dense   smooth      PW
     Min        2145    2145    563               106386   106386   14373
     Max        2146    2146    564               106387   106387   14376
     Sum        4291    4291   1127               212773   212773   28749
 
     Using Slab Decomposition
 


     bravais-lattice index     =            0
     lattice parameter (alat)  =      21.1723  a.u.
     unit-cell volume          =    9585.5144 (a.u.)^3
     number of atoms/cell      =           64
     number of atomic types    =            1
     number of electrons       =       256.00
     number of Kohn-Sham states=          154
     kinetic-energy cutoff     =      30.0000  Ry
     charge density cutoff     =     120.0000  Ry
     scf convergence threshold =      1.0E-06
     mixing beta               =       0.5000
     number of iterations used =            8  plain     mixing
     Exchange-correlation= PBE
                           (   1   4   3   4   0   0   0)

     GPU acceleration is ACTIVE.
     GPU-aware MPI enabled

     Message from routine print_cuda_info:
     High GPU oversubscription detected. Are you sure this is what you want?

     celldm(1)=  21.172255  celldm(2)=   0.000000  celldm(3)=   0.000000
     celldm(4)=   0.000000  celldm(5)=   0.000000  celldm(6)=   0.000000

     crystal axes: (cart. coord. in units of alat)
               a(1) = (   1.000000   0.000000   0.000000 )  
               a(2) = (   0.000000   1.003790   0.000000 )  
               a(3) = (   0.000000   0.000000   1.006170 )  

     reciprocal axes: (cart. coord. in units 2 pi/alat)
               b(1) = (  1.000000  0.000000  0.000000 )  
               b(2) = (  0.000000  0.996225  0.000000 )  
               b(3) = (  0.000000  0.000000  0.993868 )  


     PseudoPot. # 1 for Si read from file:
     /home/ppiaggi/pseudos/Si_ONCV_PBE_sr.upf
     MD5 check sum: 8553c464762ac42b85b1eed164b4d029
     Pseudo is Norm-conserving, Zval =  4.0
     Generated using ONCVPSP code by D. R. Hamann
     Using radial grid of 1510 points,  4 beta functions with: 
                l(1) =   0
                l(2) =   0
                l(3) =   1
                l(4) =   1

     atomic species   valence    mass     pseudopotential
        Si             4.00    28.08500     Si( 1.00)

     No symmetry found



   Cartesian axes

     site n.     atom                  positions (alat units)
         1           Si  tau(   1) = (  -0.0083087   0.0031041   0.0072678  )
         2           Si  tau(   2) = (  -0.0012894   0.2632535   0.2332914  )
         3           Si  tau(   3) = (   0.2698749  -0.0171142   0.2367842  )
         4           Si  tau(   4) = (   0.2585882   0.2544639  -0.0015233  )
         5           Si  tau(   5) = (   0.1342194   0.1380215   0.1122056  )
         6           Si  tau(   6) = (   0.5259265  -0.0046925   0.0058268  )
         7           Si  tau(   7) = (   0.5102647   0.2724821   0.2427802  )
         8           Si  tau(   8) = (   0.6501393   0.1221538   0.1171646  )
         9           Si  tau(   9) = (   0.7676536   0.0083278   0.2438764  )
        10           Si  tau(  10) = (   0.7826320   0.2471841   0.0064457  )
        11           Si  tau(  11) = (   0.0000231   0.5221208  -0.0132653  )
        12           Si  tau(  12) = (   0.2683421   0.5312610   0.2373935  )
        13           Si  tau(  13) = (   0.1239389   0.6577562   0.1284980  )
        14           Si  tau(  14) = (   0.3837867   0.3899911   0.1150513  )
        15           Si  tau(  15) = (   0.5029769   0.5363608  -0.0030990  )
        16           Si  tau(  16) = (   0.6631161   0.6530802   0.1191304  )
        17           Si  tau(  17) = (   0.9151678   0.3910919   0.1288493  )
        18           Si  tau(  18) = (   0.7830731   0.5168849   0.2422395  )
        19           Si  tau(  19) = (  -0.0057516   0.7680364   0.2253286  )
        20           Si  tau(  20) = (   0.2555648   0.7762961   0.0005963  )
        21           Si  tau(  21) = (   0.3820660   0.8920304   0.1089602  )
        22           Si  tau(  22) = (   0.5372520   0.7665562   0.2431420  )
        23           Si  tau(  23) = (   0.7767640   0.7689353  -0.0125010  )
        24           Si  tau(  24) = (   0.8993957   0.9093901   0.1189379  )
        25           Si  tau(  25) = (  -0.0013182  -0.0169591   0.4695532  )
        26           Si  tau(  26) = (   0.2604129   0.2689029   0.4895696  )
        27           Si  tau(  27) = (   0.1461551   0.1311134   0.5986979  )
        28           Si  tau(  28) = (   0.3711643   0.1405861   0.3489286  )
        29           Si  tau(  29) = (   0.5330885   0.0126911   0.4755527  )
        30           Si  tau(  30) = (   0.6590783   0.1425558   0.5937894  )
        31           Si  tau(  31) = (   0.8961456   0.1287297   0.3722195  )
        32           Si  tau(  32) = (   0.7753962   0.2618841   0.4850709  )
        33           Si  tau(  33) = (   0.1305311   0.3799719   0.3736875  )
        34           Si  tau(  34) = (  -0.0047403   0.5149444   0.4779303  )
        35           Si  tau(  35) = (   0.1459384   0.6652524   0.5945270  )
        36           Si  tau(  36) = (   0.6321680   0.4042625   0.3759974  )
        37           Si  tau(  37) = (   0.3857944   0.6424621   0.3626248  )
        38           Si  tau(  38) = (   0.3898455   0.3890591   0.6056723  )
        39           Si  tau(  39) = (   0.5051484   0.5354188   0.4678245  )
        40           Si  tau(  40) = (   0.6481452   0.6595693   0.6211786  )
        41           Si  tau(  41) = (   0.8914633   0.6460922   0.3508749  )
        42           Si  tau(  42) = (   0.8920757   0.3948516   0.5966612  )
        43           Si  tau(  43) = (   0.1460206   0.9273153   0.3571853  )
        44           Si  tau(  44) = (   0.2437371   0.7875648   0.5007523  )
        45           Si  tau(  45) = (   0.6515956   0.8992168   0.3628322  )
        46           Si  tau(  46) = (   0.4065656   0.9102702   0.6188468  )
        47           Si  tau(  47) = (   0.7762143   0.7806413   0.4800411  )
        48           Si  tau(  48) = (   0.9149706   0.9064747   0.6045755  )
        49           Si  tau(  49) = (  -0.0045157   0.2708036   0.7180200  )
        50           Si  tau(  50) = (   0.2447375   0.0136359   0.7417422  )
        51           Si  tau(  51) = (   0.3900897   0.1336236   0.8409222  )
        52           Si  tau(  52) = (   0.5215369   0.2612450   0.7389134  )
        53           Si  tau(  53) = (   0.7843799  -0.0038068   0.7330476  )
        54           Si  tau(  54) = (   0.8990294   0.1353506   0.8476273  )
        55           Si  tau(  55) = (   0.1447956   0.3994803   0.8485958  )
        56           Si  tau(  56) = (   0.2496045   0.5163302   0.7281215  )
        57           Si  tau(  57) = (   0.6393324   0.3786066   0.8640232  )
        58           Si  tau(  58) = (   0.3891162   0.6580644   0.8324318  )
        59           Si  tau(  59) = (   0.7813648   0.5270779   0.7414615  )
        60           Si  tau(  60) = (   0.9001548   0.6500677   0.8568568  )
        61           Si  tau(  61) = (   0.0056055   0.7954684   0.7281702  )
        62           Si  tau(  62) = (   0.1437055   0.9101815   0.8433580  )
        63           Si  tau(  63) = (   0.5229358   0.7682327   0.7175909  )
        64           Si  tau(  64) = (   0.6319221   0.9257178   0.8540217  )

     number of k points=     1  Fermi-Dirac smearing, width (Ry)=  0.0100
                       cart. coord. in units 2pi/alat
        k(    1) = (   0.0000000   0.0000000   0.0000000), wk =   2.0000000

     Dense  grid:   106387 G-vectors     FFT dimensions: (  75,  75,  75)

     Estimated max dynamical RAM per process >     169.89 MB

     Estimated total dynamical RAM >     653.57 MB

     Initial potential from superposition of free atoms

     starting charge     255.9608, renormalised to     256.0000
     Starting wfcs are  256 randomized atomic wfcs

     total cpu time spent up to now is        4.9 secs

     Self-consistent Calculation

     iteration #  1     ecut=    30.00 Ry     beta= 0.50
     Davidson diagonalization with overlap
     ethr =  1.00E-02,  avg # of iterations =  3.0

     Threshold (ethr) on eigenvalues was too large:
     Diagonalizing with lowered threshold

     Davidson diagonalization with overlap
     ethr =  6.14E-04,  avg # of iterations =  4.0

     total cpu time spent up to now is        5.3 secs

     total energy              =    -502.20520394 Ry
     estimated scf accuracy    <       1.80828114 Ry

     iteration #  2     ecut=    30.00 Ry     beta= 0.50
     Davidson diagonalization with overlap
     ethr =  7.06E-04,  avg # of iterations =  4.0

     total cpu time spent up to now is        5.4 secs

     total energy              =    -501.97346756 Ry
     estimated scf accuracy    <       1.52151085 Ry

     iteration #  3     ecut=    30.00 Ry     beta= 0.50
     Davidson diagonalization with overlap
     ethr =  5.94E-04,  avg # of iterations =  5.0

     total cpu time spent up to now is        5.5 secs

     total energy              =    -502.08843914 Ry
     estimated scf accuracy    <       2.13462282 Ry

     iteration #  4     ecut=    30.00 Ry     beta= 0.50
     Davidson diagonalization with overlap
     ethr =  5.94E-04,  avg # of iterations =  3.0

     total cpu time spent up to now is        5.7 secs

     total energy              =    -502.32186698 Ry
     estimated scf accuracy    <       0.11532271 Ry

     iteration #  5     ecut=    30.00 Ry     beta= 0.50
     Davidson diagonalization with overlap
     ethr =  4.50E-05,  avg # of iterations =  8.0

     total cpu time spent up to now is        5.8 secs

     total energy              =    -502.34173684 Ry
     estimated scf accuracy    <       0.05598138 Ry

     iteration #  6     ecut=    30.00 Ry     beta= 0.50
     Davidson diagonalization with overlap
     ethr =  2.19E-05,  avg # of iterations =  3.0

     total cpu time spent up to now is        6.0 secs

     total energy              =    -502.34596695 Ry
     estimated scf accuracy    <       0.02229504 Ry

     iteration #  7     ecut=    30.00 Ry     beta= 0.50
     Davidson diagonalization with overlap
     ethr =  8.71E-06,  avg # of iterations =  3.0

     total cpu time spent up to now is        6.1 secs

     total energy              =    -502.34793433 Ry
     estimated scf accuracy    <       0.00408541 Ry

     iteration #  8     ecut=    30.00 Ry     beta= 0.50
     Davidson diagonalization with overlap
     ethr =  1.60E-06,  avg # of iterations = 18.0

     total cpu time spent up to now is        6.3 secs

     total energy              =    -502.34858479 Ry
     estimated scf accuracy    <       0.00148112 Ry

     iteration #  9     ecut=    30.00 Ry     beta= 0.50
     Davidson diagonalization with overlap
     ethr =  5.79E-07,  avg # of iterations =  3.0

     total cpu time spent up to now is        6.4 secs

     total energy              =    -502.34875697 Ry
     estimated scf accuracy    <       0.00073469 Ry

     iteration # 10     ecut=    30.00 Ry     beta= 0.50
     Davidson diagonalization with overlap
     ethr =  2.87E-07,  avg # of iterations =  2.0

     total cpu time spent up to now is        6.6 secs

     total energy              =    -502.34880228 Ry
     estimated scf accuracy    <       0.00016394 Ry

     iteration # 11     ecut=    30.00 Ry     beta= 0.50
     Davidson diagonalization with overlap
     ethr =  6.40E-08,  avg # of iterations =  4.0

     total cpu time spent up to now is        6.7 secs

     total energy              =    -502.34882136 Ry
     estimated scf accuracy    <       0.00002016 Ry

     iteration # 12     ecut=    30.00 Ry     beta= 0.50
     Davidson diagonalization with overlap
     ethr =  7.88E-09,  avg # of iterations =  5.0

     total cpu time spent up to now is        6.8 secs

     total energy              =    -502.34882566 Ry
     estimated scf accuracy    <       0.00002556 Ry

     iteration # 13     ecut=    30.00 Ry     beta= 0.50
     Davidson diagonalization with overlap
     ethr =  7.88E-09,  avg # of iterations =  3.0

     total cpu time spent up to now is        7.0 secs

     total energy              =    -502.34882811 Ry
     estimated scf accuracy    <       0.00000546 Ry

     iteration # 14     ecut=    30.00 Ry     beta= 0.50
     Davidson diagonalization with overlap
     ethr =  2.13E-09,  avg # of iterations =  3.0

     total cpu time spent up to now is        7.1 secs

     End of self-consistent calculation

          k = 0.0000 0.0000 0.0000 ( 13349 PWs)   bands (ev):

    -6.5234  -5.7607  -5.5510  -5.5102  -5.3695  -5.3141  -5.2525  -4.9116
    -4.8700  -4.7490  -4.6936  -4.5056  -4.4356  -4.3988  -4.3382  -4.2831
    -4.2403  -4.1555  -4.1180  -4.0293  -3.9651  -3.8870  -3.5842  -3.0814
    -2.9575  -2.7795  -2.6825  -2.6313  -2.5837  -2.5147  -2.3486  -2.2980
    -2.2233  -2.1920  -2.1400  -2.0849  -2.0268  -1.9396  -1.8478  -1.7843
    -1.7545  -1.7230  -1.3468  -1.2966  -1.0508  -0.5813  -0.5355  -0.4752
    -0.3643  -0.2912  -0.1805  -0.1327  -0.0987  -0.0197   0.0951   0.1642
     0.3025   0.9020   1.0474   1.1224   1.2038   1.2845   1.3308   1.3771
     1.4014   1.4557   1.5107   1.5722   1.5992   1.6536   1.6709   1.6985
     1.7430   1.7691   1.8674   1.9104   1.9526   1.9714   1.9985   2.0350
     2.0701   2.1044   2.1529   2.1840   2.2436   2.2586   2.2858   2.4102
     2.4807   2.5643   2.5750   2.6381   2.7239   2.9404   3.1472   3.2054
     3.2571   3.2820   3.3518   3.4416   3.4467   3.4965   3.5136   3.6299
     3.6410   3.6571   3.7474   3.8419   3.8689   3.9271   3.9551   4.0347
     4.1051   4.1155   4.1826   4.2345   4.2892   4.3841   4.3929   4.4371
     4.4902   4.5792   4.6178   4.7549   5.0656   5.1463   5.3505   5.4117
     5.6060   5.6240   5.7189   5.8381   5.8955   5.9870   6.0256   6.0635
     6.1030   6.1653   6.2256   6.2574   6.3153   6.4071   6.4246   6.5844
     6.7778   6.8580   6.9098   6.9594   7.0916   7.1471   7.2533   7.2877
     7.3069   7.3966

     the Fermi energy is     5.4699 ev

!    total energy              =    -502.34882818 Ry
     estimated scf accuracy    <       0.00000068 Ry
     smearing contrib. (-TS)   =      -0.08430693 Ry
     internal energy E=F+TS    =    -502.26452124 Ry

     The total energy is F=E-TS. E is the sum of the following terms:
     one-electron contribution =     113.49516459 Ry
     hartree contribution      =      45.06674196 Ry
     xc contribution           =    -150.90913052 Ry
     ewald contribution        =    -509.91729727 Ry

     convergence has been achieved in  14 iterations

     Forces acting on atoms (cartesian axes, Ry/au):

     atom    1 type  1   force =     0.20010651    0.19749988   -0.22347733
     atom    2 type  1   force =     0.12705487   -0.11333013    0.11620676
     atom    3 type  1   force =     0.05000478    0.17082995   -0.07395027
     atom    4 type  1   force =     0.03428905    0.03463637   -0.08061535
     atom    5 type  1   force =    -0.02614616   -0.04356024    0.02605554
     atom    6 type  1   force =    -0.03217494    0.05059218   -0.04368838
     atom    7 type  1   force =     0.01233104   -0.02476184   -0.00848982
     atom    8 type  1   force =    -0.02293451    0.05574499    0.01865156
     atom    9 type  1   force =     0.02321054    0.03612660    0.00358075
     atom   10 type  1   force =    -0.01305800    0.02805596   -0.05927608
     atom   11 type  1   force =     0.07717541   -0.00134567   -0.01254084
     atom   12 type  1   force =    -0.05795535   -0.05861975    0.00381979
     atom   13 type  1   force =     0.06336871   -0.06549817   -0.07617969
     atom   14 type  1   force =     0.00606617    0.03231760   -0.01170003
     atom   15 type  1   force =     0.02111321   -0.02367261   -0.04111108
     atom   16 type  1   force =    -0.02926900   -0.04300462   -0.01983011
     atom   17 type  1   force =    -0.12045240    0.07990054   -0.10933928
     atom   18 type  1   force =    -0.07426506   -0.03597509   -0.01506032
     atom   19 type  1   force =     0.03665811    0.04541950    0.05946849
     atom   20 type  1   force =    -0.02132925   -0.02117373   -0.09165138
     atom   21 type  1   force =     0.08947532   -0.05375987    0.00364870
     atom   22 type  1   force =    -0.06258362    0.00350007   -0.00034122
     atom   23 type  1   force =    -0.00411308    0.03864700   -0.02376235
     atom   24 type  1   force =    -0.17802814   -0.16160875    0.11662710
     atom   25 type  1   force =     0.11404952    0.16905221   -0.09004212
     atom   26 type  1   force =     0.01749577   -0.03541151   -0.01146088
     atom   27 type  1   force =    -0.06401779    0.01319572    0.01261465
     atom   28 type  1   force =     0.05711020   -0.00467458    0.02121645
     atom   29 type  1   force =    -0.06793492    0.05955387    0.03005951
     atom   30 type  1   force =    -0.04255951   -0.04250791    0.07650287
     atom   31 type  1   force =    -0.03751064    0.03691597   -0.06005984
     atom   32 type  1   force =    -0.01575760    0.04589598   -0.03387639
     atom   33 type  1   force =    -0.00655894    0.05406857   -0.05724994
     atom   34 type  1   force =     0.09404248    0.04505050   -0.01605963
     atom   35 type  1   force =    -0.14479855   -0.14695456    0.11944844
     atom   36 type  1   force =     0.05572320   -0.03818582   -0.06075448
     atom   37 type  1   force =    -0.03153186    0.11238225   -0.04019462
     atom   38 type  1   force =     0.01401711    0.03476351    0.01114739
     atom   39 type  1   force =     0.05203132   -0.06163104    0.13866931
     atom   40 type  1   force =     0.07178583   -0.07405129   -0.09297639
     atom   41 type  1   force =    -0.01179260    0.02244118    0.05502477
     atom   42 type  1   force =    -0.05907000    0.01890618    0.04516042
     atom   43 type  1   force =    -0.08092354   -0.16133745    0.07812900
     atom   44 type  1   force =     0.14924290    0.11611083   -0.11821170
     atom   45 type  1   force =    -0.00949229   -0.04796710   -0.00898607
     atom   46 type  1   force =    -0.04324379   -0.00789217   -0.03214259
     atom   47 type  1   force =     0.00224719   -0.03167976    0.04114288
     atom   48 type  1   force =    -0.18143930   -0.08026805    0.07037201
     atom   49 type  1   force =     0.10175167   -0.03010396    0.03295549
     atom   50 type  1   force =     0.16266752    0.12324829   -0.13511729
     atom   51 type  1   force =    -0.00932134   -0.00158399    0.08617967
     atom   52 type  1   force =    -0.00076332   -0.00497108   -0.05877243
     atom   53 type  1   force =    -0.03804116    0.07637416   -0.01093268
     atom   54 type  1   force =    -0.02422933   -0.00596402    0.05965186
     atom   55 type  1   force =    -0.07932095   -0.05386478    0.07806201
     atom   56 type  1   force =     0.07380258    0.05555887   -0.05239689
     atom   57 type  1   force =     0.04044082    0.05234173    0.04889106
     atom   58 type  1   force =    -0.02767262   -0.03985062    0.08539973
     atom   59 type  1   force =    -0.06362609   -0.05064013   -0.02279107
     atom   60 type  1   force =    -0.00611784    0.03011344    0.02155449
     atom   61 type  1   force =     0.10511606   -0.11264867    0.07049937
     atom   62 type  1   force =    -0.13788930   -0.15395169    0.18326092
     atom   63 type  1   force =    -0.04625387    0.08650876    0.08520813
     atom   64 type  1   force =     0.01979878   -0.09330200   -0.00617055

     Total force =     1.037272     Total SCF correction =     0.001547


     Computing stress (Cartesian axis) and pressure

          total   stress  (Ry/bohr**3)                   (kbar)     P=      -18.73
  -0.00013532   0.00008843  -0.00020746          -19.91       13.01      -30.52
   0.00008843  -0.00016586  -0.00022897           13.01      -24.40      -33.68
  -0.00020746  -0.00022897  -0.00008084          -30.52      -33.68      -11.89

 
     init_run     :      0.96s CPU      4.86s WALL (       1 calls)
     electrons    :      1.99s CPU      2.15s WALL (       1 calls)
     forces       :      0.04s CPU      0.05s WALL (       1 calls)
     stress       :      0.18s CPU      0.18s WALL (       1 calls)

     Called by init_run:
     wfcinit      :      0.53s CPU      4.25s WALL (       1 calls)
                                        4.25s GPU  (       1 calls)
     potinit      :      0.21s CPU      0.30s WALL (       1 calls)
     hinit0       :      0.19s CPU      0.22s WALL (       1 calls)

     Called by electrons:
     c_bands      :      1.26s CPU      1.33s WALL (      15 calls)
     sum_band     :      0.38s CPU      0.43s WALL (      15 calls)
     v_of_rho     :      0.18s CPU      0.27s WALL (      15 calls)
     mix_rho      :      0.16s CPU      0.17s WALL (      15 calls)

     Called by c_bands:
     init_us_2    :      0.06s CPU      0.06s WALL (      31 calls)
     init_us_2:gp :      0.05s CPU      0.06s WALL (      31 calls)
     regterg      :      1.13s CPU      1.19s WALL (      15 calls)

     Called by *egterg:
     rdiaghg      :      0.42s CPU      1.18s WALL (      85 calls)
                                        1.16s GPU  (      85 calls)
     h_psi        :      1.06s CPU      4.07s WALL (      87 calls)
                                        4.07s GPU  (      87 calls)
     g_psi        :      0.00s CPU      0.00s WALL (      71 calls)
                                        0.00s GPU  (      71 calls)

     Called by h_psi:
     h_psi:calbec :      0.47s CPU      3.39s WALL (      87 calls)
                                        3.39s GPU  (      87 calls)
     vloc_psi     :      0.53s CPU      0.61s WALL (      87 calls)
                                        0.61s GPU  (      87 calls)
     add_vuspsi   :      0.04s CPU      0.05s WALL (      87 calls)
                                        0.05s GPU  (      87 calls)

     General routines
     calbec       :      0.48s CPU      3.39s WALL (      92 calls)
     fft          :      0.32s CPU      0.44s WALL (     127 calls)
                                        0.12s GPU  (      81 calls)
     ffts         :      0.05s CPU      0.06s WALL (      15 calls)
     fftw         :      0.57s CPU      0.76s WALL (    1619 calls)
                                        0.69s GPU  (    1619 calls)
 
     Parallel routines
 
     PWSCF        :      3.22s CPU      7.33s WALL

 
   This run was terminated on:  11:38:30  10May2023            

=------------------------------------------------------------------------------=
   JOB DONE.
=------------------------------------------------------------------------------=
