An instance of this daemon is already running
An instance of this daemon is already running
An instance of this daemon is already running

     Program PWSCF v.7.1 starts on 10May2023 at 11:42:25 

     This program is part of the open-source Quantum ESPRESSO suite
     for quantum simulation of materials; please cite
         "P. Giannozzi et al., J. Phys.:Condens. Matter 21 395502 (2009);
         "P. Giannozzi et al., J. Phys.:Condens. Matter 29 465901 (2017);
         "P. Giannozzi et al., J. Chem. Phys. 152 154105 (2020);
          URL http://www.quantum-espresso.org", 
     in publications or presentations arising from this work. More details at
     http://www.quantum-espresso.org/quote

     Parallel version (MPI & OpenMP), running on       4 processor cores
     Number of MPI processes:                 4
     Threads/MPI process:                     1

     MPI processes distributed on     1 nodes
     707052 MiB available memory on the printing compute node when the environment starts
 
     Reading input from pw-si-75.in
Warning: card &CELL ignored
Warning: card / ignored

     Current dimensions of program PWSCF are:
     Max number of different atomic species (ntypx) = 10
     Max number of k-points (npk) =  40000
     Max angular momentum in pseudopotentials (lmaxx) =  4

     IMPORTANT: XC functional enforced from input :
     Exchange-correlation= PBE
                           (   1   4   3   4   0   0   0)
     Any further DFT definition will be discarded
     Please, verify this is what you really want


     gamma-point specific algorithms are used
 
     K-points division:     npool     =       2
     R & G space division:  proc/nbgrp/npool/nimage =       2
     Subspace diagonalization in iterative solution of the eigenvalue problem:
     a serial algorithm will be used

     Message from routine divide_et_impera:
     suboptimal parallelization: some nodes have no k-points
 
     Parallelization info
     --------------------
     sticks:   dense  smooth     PW     G-vecs:    dense   smooth      PW
     Min        2111    2111    559               102319   102319   13883
     Max        2112    2112    560               102324   102324   13884
     Sum        4223    4223   1119               204643   204643   27767
 
     Using Slab Decomposition
 


     bravais-lattice index     =            0
     lattice parameter (alat)  =      21.2642  a.u.
     unit-cell volume          =    9220.2113 (a.u.)^3
     number of atoms/cell      =           64
     number of atomic types    =            1
     number of electrons       =       256.00
     number of Kohn-Sham states=          154
     kinetic-energy cutoff     =      30.0000  Ry
     charge density cutoff     =     120.0000  Ry
     scf convergence threshold =      1.0E-06
     mixing beta               =       0.5000
     number of iterations used =            8  plain     mixing
     Exchange-correlation= PBE
                           (   1   4   3   4   0   0   0)

     GPU acceleration is ACTIVE.
     GPU-aware MPI enabled

     Message from routine print_cuda_info:
     High GPU oversubscription detected. Are you sure this is what you want?

     celldm(1)=  21.264191  celldm(2)=   0.000000  celldm(3)=   0.000000
     celldm(4)=   0.000000  celldm(5)=   0.000000  celldm(6)=   0.000000

     crystal axes: (cart. coord. in units of alat)
               a(1) = (   1.000000   0.000000   0.000000 )  
               a(2) = (   0.000000   0.979908   0.000000 )  
               a(3) = (   0.000000   0.000000   0.978608 )  

     reciprocal axes: (cart. coord. in units 2 pi/alat)
               b(1) = (  1.000000  0.000000  0.000000 )  
               b(2) = (  0.000000  1.020504  0.000000 )  
               b(3) = (  0.000000  0.000000  1.021859 )  


     PseudoPot. # 1 for Si read from file:
     /home/ppiaggi/pseudos/Si_ONCV_PBE_sr.upf
     MD5 check sum: 8553c464762ac42b85b1eed164b4d029
     Pseudo is Norm-conserving, Zval =  4.0
     Generated using ONCVPSP code by D. R. Hamann
     Using radial grid of 1510 points,  4 beta functions with: 
                l(1) =   0
                l(2) =   0
                l(3) =   1
                l(4) =   1

     atomic species   valence    mass     pseudopotential
        Si             4.00    28.08500     Si( 1.00)

     No symmetry found



   Cartesian axes

     site n.     atom                  positions (alat units)
         1           Si  tau(   1) = (  -0.0144837  -0.0049755  -0.0034942  )
         2           Si  tau(   2) = (  -0.0047478   0.2655833   0.2212707  )
         3           Si  tau(   3) = (   0.2455496   0.0120637   0.2338526  )
         4           Si  tau(   4) = (   0.2346283   0.2621504   0.0081278  )
         5           Si  tau(   5) = (   0.1338072   0.1219249   0.1053221  )
         6           Si  tau(   6) = (   0.4759571  -0.0004962   0.0110241  )
         7           Si  tau(   7) = (   0.4634316   0.2468128   0.2296333  )
         8           Si  tau(   8) = (   0.5878433   0.1321542   0.1203481  )
         9           Si  tau(   9) = (   0.7049876   0.0091146   0.2507993  )
        10           Si  tau(  10) = (   0.7160785   0.2358668   0.0136233  )
        11           Si  tau(  11) = (  -0.0034536   0.4990524   0.0098327  )
        12           Si  tau(  12) = (   0.2476259   0.5020125   0.2299520  )
        13           Si  tau(  13) = (   0.1259016   0.6096034   0.1255474  )
        14           Si  tau(  14) = (   0.3456127   0.3617097   0.1341753  )
        15           Si  tau(  15) = (   0.4823975   0.5131838  -0.0143777  )
        16           Si  tau(  16) = (   0.5848019   0.6316037   0.1062272  )
        17           Si  tau(  17) = (   0.8449293   0.3831246   0.1044663  )
        18           Si  tau(  18) = (   0.7275582   0.5025153   0.2305462  )
        19           Si  tau(  19) = (  -0.0034835   0.7608751   0.2462913  )
        20           Si  tau(  20) = (   0.2352145   0.7577231  -0.0028858  )
        21           Si  tau(  21) = (   0.3571133   0.8785793   0.1284264  )
        22           Si  tau(  22) = (   0.4605096   0.7427711   0.2324607  )
        23           Si  tau(  23) = (   0.7088142   0.7529148  -0.0010738  )
        24           Si  tau(  24) = (   0.8321500   0.8759380   0.1063595  )
        25           Si  tau(  25) = (   0.0032152   0.0175278   0.4918512  )
        26           Si  tau(  26) = (   0.2521912   0.2311496   0.4700540  )
        27           Si  tau(  27) = (   0.1153249   0.1423423   0.5806989  )
        28           Si  tau(  28) = (   0.3665469   0.1418576   0.3715881  )
        29           Si  tau(  29) = (   0.4713902   0.0055855   0.4825770  )
        30           Si  tau(  30) = (   0.6089624   0.1067566   0.6037157  )
        31           Si  tau(  31) = (   0.8467857   0.1383201   0.3616412  )
        32           Si  tau(  32) = (   0.7232207   0.2319249   0.4729460  )
        33           Si  tau(  33) = (   0.1188133   0.3741490   0.3687644  )
        34           Si  tau(  34) = (  -0.0087935   0.4897145   0.4831686  )
        35           Si  tau(  35) = (   0.1319079   0.6403650   0.5956007  )
        36           Si  tau(  36) = (   0.5943949   0.3834815   0.3628407  )
        37           Si  tau(  37) = (   0.3653744   0.6301033   0.3565604  )
        38           Si  tau(  38) = (   0.3444061   0.3622997   0.6012283  )
        39           Si  tau(  39) = (   0.4731747   0.4956584   0.4697568  )
        40           Si  tau(  40) = (   0.5969128   0.6056289   0.6071188  )
        41           Si  tau(  41) = (   0.8420407   0.6173283   0.3643908  )
        42           Si  tau(  42) = (   0.8390970   0.3695146   0.6124208  )
        43           Si  tau(  43) = (   0.1026488   0.8567573   0.3445427  )
        44           Si  tau(  44) = (   0.2553392   0.7390888   0.4745800  )
        45           Si  tau(  45) = (   0.5978203   0.8710890   0.3694327  )
        46           Si  tau(  46) = (   0.3410628   0.8666039   0.6010502  )
        47           Si  tau(  47) = (   0.6982302   0.7344231   0.4699149  )
        48           Si  tau(  48) = (   0.8501261   0.8629076   0.5972908  )
        49           Si  tau(  49) = (  -0.0131484   0.2664357   0.7043985  )
        50           Si  tau(  50) = (   0.2529750   0.0056033   0.7143388  )
        51           Si  tau(  51) = (   0.3483058   0.1391067   0.8186221  )
        52           Si  tau(  52) = (   0.4913150   0.2435319   0.7174019  )
        53           Si  tau(  53) = (   0.7287020   0.0118459   0.7080572  )
        54           Si  tau(  54) = (   0.8232531   0.1377275   0.8477075  )
        55           Si  tau(  55) = (   0.1349477   0.3697630   0.8481964  )
        56           Si  tau(  56) = (   0.2392605   0.4802884   0.7305058  )
        57           Si  tau(  57) = (   0.6066587   0.3652006   0.8393686  )
        58           Si  tau(  58) = (   0.3630512   0.6231639   0.8354178  )
        59           Si  tau(  59) = (   0.7097114   0.4953171   0.7082733  )
        60           Si  tau(  60) = (   0.8403084   0.6068607   0.8522634  )
        61           Si  tau(  61) = (   0.0102305   0.7494824   0.7234772  )
        62           Si  tau(  62) = (   0.1093879   0.8888164   0.8359933  )
        63           Si  tau(  63) = (   0.4639578   0.7306296   0.7073056  )
        64           Si  tau(  64) = (   0.5901327   0.8730704   0.8407933  )

     number of k points=     1  Fermi-Dirac smearing, width (Ry)=  0.0100
                       cart. coord. in units 2pi/alat
        k(    1) = (   0.0000000   0.0000000   0.0000000), wk =   2.0000000

     Dense  grid:   102322 G-vectors     FFT dimensions: (  75,  75,  75)

     Estimated max dynamical RAM per process >     164.09 MB

     Estimated total dynamical RAM >     631.39 MB

     Initial potential from superposition of free atoms

     starting charge     255.9608, renormalised to     256.0000
     Starting wfcs are  256 randomized atomic wfcs

     total cpu time spent up to now is        4.9 secs

     Self-consistent Calculation

     iteration #  1     ecut=    30.00 Ry     beta= 0.50
     Davidson diagonalization with overlap
     ethr =  1.00E-02,  avg # of iterations =  3.0

     Threshold (ethr) on eigenvalues was too large:
     Diagonalizing with lowered threshold

     Davidson diagonalization with overlap
     ethr =  6.84E-04,  avg # of iterations =  4.0

     total cpu time spent up to now is        5.3 secs

     total energy              =    -502.33534807 Ry
     estimated scf accuracy    <       1.99684506 Ry

     iteration #  2     ecut=    30.00 Ry     beta= 0.50
     Davidson diagonalization with overlap
     ethr =  7.80E-04,  avg # of iterations =  4.0

     total cpu time spent up to now is        5.4 secs

     total energy              =    -502.03324236 Ry
     estimated scf accuracy    <       2.13431243 Ry

     iteration #  3     ecut=    30.00 Ry     beta= 0.50
     Davidson diagonalization with overlap
     ethr =  7.80E-04,  avg # of iterations =  5.0

     total cpu time spent up to now is        5.5 secs

     total energy              =    -502.26333376 Ry
     estimated scf accuracy    <       2.16600374 Ry

     iteration #  4     ecut=    30.00 Ry     beta= 0.50
     Davidson diagonalization with overlap
     ethr =  7.80E-04,  avg # of iterations =  2.0

     total cpu time spent up to now is        5.6 secs

     total energy              =    -502.47851103 Ry
     estimated scf accuracy    <       0.15065371 Ry

     iteration #  5     ecut=    30.00 Ry     beta= 0.50
     Davidson diagonalization with overlap
     ethr =  5.88E-05,  avg # of iterations = 15.0

     total cpu time spent up to now is        5.9 secs

     total energy              =    -502.50695580 Ry
     estimated scf accuracy    <       0.07391550 Ry

     iteration #  6     ecut=    30.00 Ry     beta= 0.50
     Davidson diagonalization with overlap
     ethr =  2.89E-05,  avg # of iterations =  3.0

     total cpu time spent up to now is        6.0 secs

     total energy              =    -502.51354205 Ry
     estimated scf accuracy    <       0.01974429 Ry

     iteration #  7     ecut=    30.00 Ry     beta= 0.50
     Davidson diagonalization with overlap
     ethr =  7.71E-06,  avg # of iterations = 12.0

     total cpu time spent up to now is        6.2 secs

     total energy              =    -502.51558188 Ry
     estimated scf accuracy    <       0.00178384 Ry

     iteration #  8     ecut=    30.00 Ry     beta= 0.50
     Davidson diagonalization with overlap
     ethr =  6.97E-07,  avg # of iterations =  5.0

     total cpu time spent up to now is        6.3 secs

     total energy              =    -502.51593272 Ry
     estimated scf accuracy    <       0.00206623 Ry

     iteration #  9     ecut=    30.00 Ry     beta= 0.50
     Davidson diagonalization with overlap
     ethr =  6.97E-07,  avg # of iterations =  3.0

     total cpu time spent up to now is        6.4 secs

     total energy              =    -502.51608432 Ry
     estimated scf accuracy    <       0.00068775 Ry

     iteration # 10     ecut=    30.00 Ry     beta= 0.50
     Davidson diagonalization with overlap
     ethr =  2.69E-07,  avg # of iterations =  2.0

     total cpu time spent up to now is        6.6 secs

     total energy              =    -502.51612967 Ry
     estimated scf accuracy    <       0.00006242 Ry

     iteration # 11     ecut=    30.00 Ry     beta= 0.50
     Davidson diagonalization with overlap
     ethr =  2.44E-08,  avg # of iterations =  5.0

     total cpu time spent up to now is        6.7 secs

     total energy              =    -502.51614540 Ry
     estimated scf accuracy    <       0.00002703 Ry

     iteration # 12     ecut=    30.00 Ry     beta= 0.50
     Davidson diagonalization with overlap
     ethr =  1.06E-08,  avg # of iterations =  3.0

     total cpu time spent up to now is        6.8 secs

     total energy              =    -502.51614725 Ry
     estimated scf accuracy    <       0.00001541 Ry

     iteration # 13     ecut=    30.00 Ry     beta= 0.50
     Davidson diagonalization with overlap
     ethr =  6.02E-09,  avg # of iterations =  2.0

     total cpu time spent up to now is        7.0 secs

     total energy              =    -502.51614810 Ry
     estimated scf accuracy    <       0.00000243 Ry

     iteration # 14     ecut=    30.00 Ry     beta= 0.50
     Davidson diagonalization with overlap
     ethr =  9.48E-10,  avg # of iterations =  5.0

     total cpu time spent up to now is        7.1 secs

     End of self-consistent calculation

          k = 0.0000 0.0000 0.0000 ( 12815 PWs)   bands (ev):

    -6.3588  -5.5157  -5.4851  -5.3658  -5.2559  -5.1231  -4.8836  -4.7794
    -4.6164  -4.5590  -4.4761  -4.3599  -4.2813  -4.1742  -4.1242  -4.0410
    -4.0159  -3.9782  -3.9037  -3.8120  -3.7250  -3.6075  -3.3565  -2.6372
    -2.5737  -2.5580  -2.4796  -2.3901  -2.3355  -2.2308  -2.1634  -2.0956
    -2.0767  -1.9771  -1.9119  -1.8664  -1.7574  -1.6817  -1.5518  -1.4937
    -1.3455  -1.2383  -1.0790  -0.9861  -0.8753  -0.2527  -0.2250  -0.1544
    -0.0847   0.0105   0.1683   0.2270   0.2725   0.3230   0.3490   0.4674
     0.6564   1.2310   1.2907   1.3933   1.4634   1.4841   1.6128   1.6203
     1.6857   1.7106   1.7604   1.7916   1.8246   1.8476   1.9118   1.9399
     2.0230   2.0568   2.0698   2.1015   2.1750   2.1851   2.2472   2.2752
     2.3063   2.3901   2.3980   2.5027   2.5431   2.5933   2.6580   2.7243
     2.8214   2.8478   2.9037   2.9853   3.0180   3.3016   3.4630   3.4739
     3.5170   3.6257   3.6701   3.6848   3.8457   3.8545   3.8892   3.9278
     3.9448   4.0023   4.0570   4.1091   4.1602   4.2187   4.2719   4.3092
     4.3543   4.4382   4.4480   4.5337   4.5744   4.6621   4.6895   4.7419
     4.7698   4.8406   4.9126   5.1550   5.5879   5.6121   5.6955   5.8010
     5.9028   6.0289   6.1259   6.1517   6.2748   6.3338   6.4214   6.4723
     6.5220   6.5723   6.6230   6.6366   6.7332   6.8021   6.8415   6.9888
     7.2173   7.3337   7.3794   7.4652   7.4968   7.5479   7.6248   7.7034
     7.7410   7.8055

     the Fermi energy is     5.8491 ev

!    total energy              =    -502.51614851 Ry
     estimated scf accuracy    <       0.00000014 Ry
     smearing contrib. (-TS)   =      -0.09087764 Ry
     internal energy E=F+TS    =    -502.42527087 Ry

     The total energy is F=E-TS. E is the sum of the following terms:
     one-electron contribution =     120.91118921 Ry
     hartree contribution      =      44.81750658 Ry
     xc contribution           =    -152.21315976 Ry
     ewald contribution        =    -515.94080691 Ry

     convergence has been achieved in  14 iterations

     Forces acting on atoms (cartesian axes, Ry/au):

     atom    1 type  1   force =    -0.02572966    0.06604910   -0.01262467
     atom    2 type  1   force =    -0.01269097   -0.02748644    0.02237745
     atom    3 type  1   force =    -0.06000804    0.03534543    0.10142601
     atom    4 type  1   force =     0.01506079   -0.04789764   -0.09418361
     atom    5 type  1   force =    -0.10735008    0.00000306    0.02371948
     atom    6 type  1   force =     0.02864379    0.04729472   -0.11085364
     atom    7 type  1   force =     0.09070381    0.01634169    0.08110081
     atom    8 type  1   force =    -0.00436746   -0.05238523    0.03062454
     atom    9 type  1   force =     0.08084970    0.03822289   -0.04444167
     atom   10 type  1   force =     0.03622580    0.08466936   -0.07229363
     atom   11 type  1   force =    -0.02841567   -0.02788714   -0.07375371
     atom   12 type  1   force =    -0.01028370   -0.02319704    0.11617516
     atom   13 type  1   force =    -0.06606669    0.11737005   -0.03911635
     atom   14 type  1   force =     0.02895932    0.08551739   -0.08357991
     atom   15 type  1   force =    -0.01841872   -0.09763365   -0.02667394
     atom   16 type  1   force =     0.04918033   -0.00655863    0.06190676
     atom   17 type  1   force =     0.02586675   -0.02588447    0.02508771
     atom   18 type  1   force =    -0.03677191    0.00493976    0.00490966
     atom   19 type  1   force =    -0.20904122   -0.19770685   -0.18067035
     atom   20 type  1   force =    -0.00564565   -0.02451308   -0.02969926
     atom   21 type  1   force =    -0.02142372   -0.08369698   -0.05709058
     atom   22 type  1   force =     0.10457307    0.04508107   -0.00315692
     atom   23 type  1   force =     0.02763039   -0.02121605   -0.06943819
     atom   24 type  1   force =     0.03713002    0.00216663    0.05741430
     atom   25 type  1   force =    -0.11628720   -0.10259744   -0.09011612
     atom   26 type  1   force =    -0.16790818    0.19054267    0.11302346
     atom   27 type  1   force =     0.02378234    0.00883722    0.11151930
     atom   28 type  1   force =     0.11399504   -0.16817892   -0.16476881
     atom   29 type  1   force =     0.01322664   -0.00635790    0.03058840
     atom   30 type  1   force =    -0.09543340    0.10637881   -0.08916237
     atom   31 type  1   force =     0.09158099   -0.05884269   -0.07316530
     atom   32 type  1   force =    -0.05289645    0.09958984    0.07192803
     atom   33 type  1   force =     0.01246701   -0.00570997   -0.05995647
     atom   34 type  1   force =    -0.03254146    0.04352973    0.03313684
     atom   35 type  1   force =    -0.05133913   -0.10072181    0.03542634
     atom   36 type  1   force =     0.05568023   -0.07064055   -0.06789068
     atom   37 type  1   force =    -0.01834985   -0.08858103   -0.01110807
     atom   38 type  1   force =     0.06636794    0.00507207   -0.01576621
     atom   39 type  1   force =    -0.02310018    0.00392603    0.08144586
     atom   40 type  1   force =    -0.08395756    0.08205837   -0.10413817
     atom   41 type  1   force =     0.04440830    0.01250662   -0.01385809
     atom   42 type  1   force =     0.01206554    0.00316330   -0.08526448
     atom   43 type  1   force =     0.20399324    0.18865419    0.19224845
     atom   44 type  1   force =    -0.08754534    0.05133311   -0.02575266
     atom   45 type  1   force =    -0.07159128   -0.03291125   -0.04789343
     atom   46 type  1   force =     0.09940840   -0.06230516   -0.06538120
     atom   47 type  1   force =     0.09124370   -0.02433869    0.06300584
     atom   48 type  1   force =     0.03617050   -0.01496515   -0.00933414
     atom   49 type  1   force =     0.02497907   -0.02816014    0.07522267
     atom   50 type  1   force =    -0.14366238    0.06827068    0.03761634
     atom   51 type  1   force =     0.03934580    0.02996734    0.11755312
     atom   52 type  1   force =    -0.01033874    0.01206241   -0.02537131
     atom   53 type  1   force =     0.06714359   -0.08988737    0.12465530
     atom   54 type  1   force =     0.08762054   -0.02901970   -0.01101362
     atom   55 type  1   force =    -0.13707475   -0.01320538    0.03686093
     atom   56 type  1   force =     0.03130215    0.10800205   -0.05739467
     atom   57 type  1   force =    -0.01491642    0.02614372    0.05540814
     atom   58 type  1   force =    -0.07642939   -0.02026490    0.06401035
     atom   59 type  1   force =     0.10466111   -0.06148672    0.12048639
     atom   60 type  1   force =     0.03166863    0.04144669    0.00625797
     atom   61 type  1   force =    -0.08194350   -0.01515418   -0.01355084
     atom   62 type  1   force =     0.02923292   -0.04496192    0.02984257
     atom   63 type  1   force =     0.06061519    0.07120695    0.00795343
     atom   64 type  1   force =     0.00574608   -0.02133888   -0.00446851

     Total force =     1.015862     Total SCF correction =     0.000509


     Computing stress (Cartesian axis) and pressure

          total   stress  (Ry/bohr**3)                   (kbar)     P=        9.13
   0.00000758  -0.00003269  -0.00007061            1.12       -4.81      -10.39
  -0.00003269   0.00008377   0.00008513           -4.81       12.32       12.52
  -0.00007061   0.00008513   0.00009492          -10.39       12.52       13.96

 
     init_run     :      0.98s CPU      4.87s WALL (       1 calls)
     electrons    :      2.00s CPU      2.14s WALL (       1 calls)
     forces       :      0.04s CPU      0.05s WALL (       1 calls)
     stress       :      0.17s CPU      0.17s WALL (       1 calls)

     Called by init_run:
     wfcinit      :      0.56s CPU      4.27s WALL (       1 calls)
                                        4.27s GPU  (       1 calls)
     potinit      :      0.20s CPU      0.30s WALL (       1 calls)
     hinit0       :      0.19s CPU      0.22s WALL (       1 calls)

     Called by electrons:
     c_bands      :      1.28s CPU      1.33s WALL (      15 calls)
     sum_band     :      0.38s CPU      0.43s WALL (      15 calls)
     v_of_rho     :      0.17s CPU      0.27s WALL (      15 calls)
     mix_rho      :      0.15s CPU      0.17s WALL (      15 calls)

     Called by c_bands:
     init_us_2    :      0.06s CPU      0.06s WALL (      31 calls)
     init_us_2:gp :      0.06s CPU      0.06s WALL (      31 calls)
     regterg      :      1.14s CPU      1.18s WALL (      15 calls)

     Called by *egterg:
     rdiaghg      :      0.42s CPU      1.18s WALL (      87 calls)
                                        1.16s GPU  (      87 calls)
     h_psi        :      1.09s CPU      4.08s WALL (      89 calls)
                                        4.07s GPU  (      89 calls)
     g_psi        :      0.00s CPU      0.00s WALL (      73 calls)
                                        0.00s GPU  (      73 calls)

     Called by h_psi:
     h_psi:calbec :      0.50s CPU      3.40s WALL (      89 calls)
                                        3.40s GPU  (      89 calls)
     vloc_psi     :      0.54s CPU      0.61s WALL (      89 calls)
                                        0.61s GPU  (      89 calls)
     add_vuspsi   :      0.04s CPU      0.05s WALL (      89 calls)
                                        0.05s GPU  (      89 calls)

     General routines
     calbec       :      0.50s CPU      3.41s WALL (      94 calls)
     fft          :      0.30s CPU      0.44s WALL (     127 calls)
                                        0.12s GPU  (      81 calls)
     ffts         :      0.06s CPU      0.06s WALL (      15 calls)
     fftw         :      0.58s CPU      0.77s WALL (    1627 calls)
                                        0.70s GPU  (    1627 calls)
 
     Parallel routines
 
     PWSCF        :      3.23s CPU      7.32s WALL

 
   This run was terminated on:  11:42:32  10May2023            

=------------------------------------------------------------------------------=
   JOB DONE.
=------------------------------------------------------------------------------=
