An instance of this daemon is already running

     Program PWSCF v.7.1 starts on 10May2023 at 11:45:48 

     This program is part of the open-source Quantum ESPRESSO suite
     for quantum simulation of materials; please cite
         "P. Giannozzi et al., J. Phys.:Condens. Matter 21 395502 (2009);
         "P. Giannozzi et al., J. Phys.:Condens. Matter 29 465901 (2017);
         "P. Giannozzi et al., J. Chem. Phys. 152 154105 (2020);
          URL http://www.quantum-espresso.org", 
     in publications or presentations arising from this work. More details at
     http://www.quantum-espresso.org/quote

     Parallel version (MPI & OpenMP), running on       4 processor cores
     Number of MPI processes:                 4
     Threads/MPI process:                     1

     MPI processes distributed on     1 nodes
     707055 MiB available memory on the printing compute node when the environment starts
 
     Reading input from pw-si-96.in
Warning: card &CELL ignored
Warning: card / ignored

     Current dimensions of program PWSCF are:
     Max number of different atomic species (ntypx) = 10
     Max number of k-points (npk) =  40000
     Max angular momentum in pseudopotentials (lmaxx) =  4

     IMPORTANT: XC functional enforced from input :
     Exchange-correlation= PBE
                           (   1   4   3   4   0   0   0)
     Any further DFT definition will be discarded
     Please, verify this is what you really want


     gamma-point specific algorithms are used
 
     K-points division:     npool     =       2
     R & G space division:  proc/nbgrp/npool/nimage =       2
     Subspace diagonalization in iterative solution of the eigenvalue problem:
     a serial algorithm will be used

     Message from routine divide_et_impera:
     suboptimal parallelization: some nodes have no k-points
 
     Parallelization info
     --------------------
     sticks:   dense  smooth     PW     G-vecs:    dense   smooth      PW
     Min        2155    2155    567               109217   109217   14840
     Max        2156    2156    568               109224   109224   14841
     Sum        4311    4311   1135               218441   218441   29681
 
     Using Slab Decomposition
 


     bravais-lattice index     =            0
     lattice parameter (alat)  =      21.7071  a.u.
     unit-cell volume          =    9840.7124 (a.u.)^3
     number of atoms/cell      =           64
     number of atomic types    =            1
     number of electrons       =       256.00
     number of Kohn-Sham states=          154
     kinetic-energy cutoff     =      30.0000  Ry
     charge density cutoff     =     120.0000  Ry
     scf convergence threshold =      1.0E-06
     mixing beta               =       0.5000
     number of iterations used =            8  plain     mixing
     Exchange-correlation= PBE
                           (   1   4   3   4   0   0   0)

     GPU acceleration is ACTIVE.
     GPU-aware MPI enabled

     Message from routine print_cuda_info:
     High GPU oversubscription detected. Are you sure this is what you want?

     celldm(1)=  21.707067  celldm(2)=   0.000000  celldm(3)=   0.000000
     celldm(4)=   0.000000  celldm(5)=   0.000000  celldm(6)=   0.000000

     crystal axes: (cart. coord. in units of alat)
               a(1) = (   1.000000   0.000000   0.000000 )  
               a(2) = (   0.000000   0.958542   0.000000 )  
               a(3) = (   0.000000   0.000000   1.003719 )  

     reciprocal axes: (cart. coord. in units 2 pi/alat)
               b(1) = (  1.000000  0.000000  0.000000 )  
               b(2) = (  0.000000  1.043251  0.000000 )  
               b(3) = (  0.000000  0.000000  0.996295 )  


     PseudoPot. # 1 for Si read from file:
     /home/ppiaggi/pseudos/Si_ONCV_PBE_sr.upf
     MD5 check sum: 8553c464762ac42b85b1eed164b4d029
     Pseudo is Norm-conserving, Zval =  4.0
     Generated using ONCVPSP code by D. R. Hamann
     Using radial grid of 1510 points,  4 beta functions with: 
                l(1) =   0
                l(2) =   0
                l(3) =   1
                l(4) =   1

     atomic species   valence    mass     pseudopotential
        Si             4.00    28.08500     Si( 1.00)

     No symmetry found



   Cartesian axes

     site n.     atom                  positions (alat units)
         1           Si  tau(   1) = (   0.0010166   0.0028526  -0.0170274  )
         2           Si  tau(   2) = (   0.0134603   0.2447437   0.2576676  )
         3           Si  tau(   3) = (   0.2665119   0.0099405   0.2374401  )
         4           Si  tau(   4) = (   0.2661875   0.2541931   0.0067167  )
         5           Si  tau(   5) = (   0.1414371   0.1141497   0.1156802  )
         6           Si  tau(   6) = (   0.5317260   0.0100622  -0.0029318  )
         7           Si  tau(   7) = (   0.5114392   0.2547003   0.2331402  )
         8           Si  tau(   8) = (   0.6424570   0.1347495   0.1097866  )
         9           Si  tau(   9) = (   0.7881594  -0.0149125   0.2317926  )
        10           Si  tau(  10) = (   0.7714150   0.2263496  -0.0111135  )
        11           Si  tau(  11) = (   0.0073693   0.4881610  -0.0015981  )
        12           Si  tau(  12) = (   0.2764976   0.4663029   0.2477975  )
        13           Si  tau(  13) = (   0.1165876   0.5883221   0.1180318  )
        14           Si  tau(  14) = (   0.3781728   0.3661168   0.1283071  )
        15           Si  tau(  15) = (   0.5357151   0.4905381  -0.0156864  )
        16           Si  tau(  16) = (   0.6526208   0.5945510   0.1180951  )
        17           Si  tau(  17) = (   0.8982979   0.3578789   0.1287132  )
        18           Si  tau(  18) = (   0.7947091   0.4637707   0.2415151  )
        19           Si  tau(  19) = (  -0.0089258   0.7331149   0.2395347  )
        20           Si  tau(  20) = (   0.2727086   0.7185835   0.0114949  )
        21           Si  tau(  21) = (   0.4052932   0.8226920   0.1284062  )
        22           Si  tau(  22) = (   0.5175077   0.7329321   0.2273844  )
        23           Si  tau(  23) = (   0.7862771   0.7106017  -0.0113251  )
        24           Si  tau(  24) = (   0.8949751   0.8530338   0.1286295  )
        25           Si  tau(  25) = (   0.0082435   0.0150795   0.4867685  )
        26           Si  tau(  26) = (   0.2654927   0.2563061   0.4768504  )
        27           Si  tau(  27) = (   0.1367875   0.1080657   0.6027290  )
        28           Si  tau(  28) = (   0.3986769   0.1261257   0.3502523  )
        29           Si  tau(  29) = (   0.4994211   0.0154371   0.4843260  )
        30           Si  tau(  30) = (   0.6432292   0.1119053   0.6107732  )
        31           Si  tau(  31) = (   0.8949611   0.1212540   0.3538276  )
        32           Si  tau(  32) = (   0.7641710   0.2450229   0.4739944  )
        33           Si  tau(  33) = (   0.1282642   0.3445814   0.3531836  )
        34           Si  tau(  34) = (   0.0073504   0.4864455   0.4983626  )
        35           Si  tau(  35) = (   0.1138536   0.6082600   0.6071482  )
        36           Si  tau(  36) = (   0.6428558   0.3623847   0.3453152  )
        37           Si  tau(  37) = (   0.3728420   0.6012969   0.3541494  )
        38           Si  tau(  38) = (   0.3831375   0.3495087   0.6145500  )
        39           Si  tau(  39) = (   0.5117072   0.4669165   0.4799036  )
        40           Si  tau(  40) = (   0.6648155   0.6000860   0.6206952  )
        41           Si  tau(  41) = (   0.9244932   0.5917370   0.3499641  )
        42           Si  tau(  42) = (   0.9132070   0.3506350   0.6130329  )
        43           Si  tau(  43) = (   0.1274462   0.8529498   0.3488197  )
        44           Si  tau(  44) = (   0.2665229   0.7241501   0.4736675  )
        45           Si  tau(  45) = (   0.6327176   0.8450292   0.3597629  )
        46           Si  tau(  46) = (   0.4006688   0.8246033   0.6054831  )
        47           Si  tau(  47) = (   0.7621177   0.7144406   0.4961689  )
        48           Si  tau(  48) = (   0.9196347   0.8308018   0.5881171  )
        49           Si  tau(  49) = (  -0.0162524   0.2407911   0.7230032  )
        50           Si  tau(  50) = (   0.2771746   0.0027378   0.7135272  )
        51           Si  tau(  51) = (   0.4009448   0.1100025   0.8422822  )
        52           Si  tau(  52) = (   0.5252191   0.2549545   0.7383057  )
        53           Si  tau(  53) = (   0.7933084  -0.0094458   0.7360353  )
        54           Si  tau(  54) = (   0.9166165   0.1083747   0.8628418  )
        55           Si  tau(  55) = (   0.1116925   0.3638860   0.8548016  )
        56           Si  tau(  56) = (   0.2434326   0.4954135   0.7423958  )
        57           Si  tau(  57) = (   0.6466551   0.3717216   0.8532934  )
        58           Si  tau(  58) = (   0.3738085   0.6140376   0.8570150  )
        59           Si  tau(  59) = (   0.7620296   0.4699848   0.7381816  )
        60           Si  tau(  60) = (   0.9191684   0.6008607   0.8319078  )
        61           Si  tau(  61) = (   0.0093720   0.7091034   0.7116465  )
        62           Si  tau(  62) = (   0.1146747   0.8488423   0.8561145  )
        63           Si  tau(  63) = (   0.5123901   0.7127119   0.7312522  )
        64           Si  tau(  64) = (   0.6592829   0.8461488   0.8412144  )

     number of k points=     1  Fermi-Dirac smearing, width (Ry)=  0.0100
                       cart. coord. in units 2pi/alat
        k(    1) = (   0.0000000   0.0000000   0.0000000), wk =   2.0000000

     Dense  grid:   109221 G-vectors     FFT dimensions: (  75,  75,  75)

     Estimated max dynamical RAM per process >     173.94 MB

     Estimated total dynamical RAM >     669.08 MB

     Initial potential from superposition of free atoms

     starting charge     255.9608, renormalised to     256.0000
     Starting wfcs are  256 randomized atomic wfcs

     total cpu time spent up to now is        5.0 secs

     Self-consistent Calculation

     iteration #  1     ecut=    30.00 Ry     beta= 0.50
     Davidson diagonalization with overlap
     ethr =  1.00E-02,  avg # of iterations =  3.0

     Threshold (ethr) on eigenvalues was too large:
     Diagonalizing with lowered threshold

     Davidson diagonalization with overlap
     ethr =  6.04E-04,  avg # of iterations =  4.0

     total cpu time spent up to now is        5.3 secs

     total energy              =    -502.07294304 Ry
     estimated scf accuracy    <       1.78360838 Ry

     iteration #  2     ecut=    30.00 Ry     beta= 0.50
     Davidson diagonalization with overlap
     ethr =  6.97E-04,  avg # of iterations =  3.0

     total cpu time spent up to now is        5.4 secs

     total energy              =    -501.86367509 Ry
     estimated scf accuracy    <       1.45311752 Ry

     iteration #  3     ecut=    30.00 Ry     beta= 0.50
     Davidson diagonalization with overlap
     ethr =  5.68E-04,  avg # of iterations =  5.0

     total cpu time spent up to now is        5.6 secs

     total energy              =    -501.95669838 Ry
     estimated scf accuracy    <       2.19677252 Ry

     iteration #  4     ecut=    30.00 Ry     beta= 0.50
     Davidson diagonalization with overlap
     ethr =  5.68E-04,  avg # of iterations =  2.0

     total cpu time spent up to now is        5.7 secs

     total energy              =    -502.19160329 Ry
     estimated scf accuracy    <       0.15518056 Ry

     iteration #  5     ecut=    30.00 Ry     beta= 0.50
     Davidson diagonalization with overlap
     ethr =  6.06E-05,  avg # of iterations =  6.0

     total cpu time spent up to now is        5.8 secs

     total energy              =    -502.21582719 Ry
     estimated scf accuracy    <       0.05724921 Ry

     iteration #  6     ecut=    30.00 Ry     beta= 0.50
     Davidson diagonalization with overlap
     ethr =  2.24E-05,  avg # of iterations =  8.0

     total cpu time spent up to now is        6.0 secs

     total energy              =    -502.22107565 Ry
     estimated scf accuracy    <       0.02343943 Ry

     iteration #  7     ecut=    30.00 Ry     beta= 0.50
     Davidson diagonalization with overlap
     ethr =  9.16E-06,  avg # of iterations =  3.0

     total cpu time spent up to now is        6.1 secs

     total energy              =    -502.22336238 Ry
     estimated scf accuracy    <       0.00366496 Ry

     iteration #  8     ecut=    30.00 Ry     beta= 0.50
     Davidson diagonalization with overlap
     ethr =  1.43E-06,  avg # of iterations =  9.0

     total cpu time spent up to now is        6.3 secs

     total energy              =    -502.22388472 Ry
     estimated scf accuracy    <       0.00189635 Ry

     iteration #  9     ecut=    30.00 Ry     beta= 0.50
     Davidson diagonalization with overlap
     ethr =  7.41E-07,  avg # of iterations =  3.0

     total cpu time spent up to now is        6.4 secs

     total energy              =    -502.22408849 Ry
     estimated scf accuracy    <       0.00079939 Ry

     iteration # 10     ecut=    30.00 Ry     beta= 0.50
     Davidson diagonalization with overlap
     ethr =  3.12E-07,  avg # of iterations =  2.0

     total cpu time spent up to now is        6.5 secs

     total energy              =    -502.22413458 Ry
     estimated scf accuracy    <       0.00013778 Ry

     iteration # 11     ecut=    30.00 Ry     beta= 0.50
     Davidson diagonalization with overlap
     ethr =  5.38E-08,  avg # of iterations =  5.0

     total cpu time spent up to now is        6.7 secs

     total energy              =    -502.22415369 Ry
     estimated scf accuracy    <       0.00002329 Ry

     iteration # 12     ecut=    30.00 Ry     beta= 0.50
     Davidson diagonalization with overlap
     ethr =  9.10E-09,  avg # of iterations =  5.0

     total cpu time spent up to now is        6.8 secs

     total energy              =    -502.22415890 Ry
     estimated scf accuracy    <       0.00001867 Ry

     iteration # 13     ecut=    30.00 Ry     beta= 0.50
     Davidson diagonalization with overlap
     ethr =  7.29E-09,  avg # of iterations =  3.0

     total cpu time spent up to now is        7.0 secs

     total energy              =    -502.22416056 Ry
     estimated scf accuracy    <       0.00000302 Ry

     iteration # 14     ecut=    30.00 Ry     beta= 0.50
     Davidson diagonalization with overlap
     ethr =  1.18E-09,  avg # of iterations =  4.0

     total cpu time spent up to now is        7.1 secs

     End of self-consistent calculation

          k = 0.0000 0.0000 0.0000 ( 13633 PWs)   bands (ev):

    -6.5807  -5.9897  -5.7836  -5.6368  -5.5888  -5.4178  -5.2408  -5.1577
    -5.0622  -4.9838  -4.8620  -4.7702  -4.6863  -4.5754  -4.5204  -4.4165
    -4.3228  -4.2436  -4.1308  -4.0684  -3.9852  -3.9069  -3.7468  -3.2934
    -3.1571  -3.0055  -2.8926  -2.8483  -2.7265  -2.6590  -2.5990  -2.5034
    -2.4182  -2.4134  -2.3473  -2.2407  -2.1921  -2.0782  -2.0440  -1.9323
    -1.8012  -1.7460  -1.5298  -1.4089  -1.1604  -0.8300  -0.7425  -0.6754
    -0.5314  -0.4749  -0.4267  -0.3619  -0.3336  -0.1769  -0.1231  -0.0364
    -0.0095   0.7210   0.8452   0.9427   1.0128   1.0399   1.1918   1.2094
     1.2528   1.2636   1.3613   1.3811   1.4457   1.4568   1.5390   1.5544
     1.5735   1.6113   1.6502   1.6836   1.7270   1.7571   1.8117   1.8236
     1.8865   1.8960   1.9570   2.0034   2.0224   2.1271   2.1365   2.2233
     2.2613   2.3608   2.4644   2.4986   2.6654   2.7233   2.9278   2.9641
     3.0620   3.0740   3.1450   3.1858   3.2422   3.2683   3.3162   3.3396
     3.4151   3.4847   3.6006   3.6205   3.6686   3.7509   3.7715   3.7927
     3.8413   3.9344   3.9724   4.0326   4.0887   4.1494   4.1729   4.2252
     4.3039   4.3179   4.4551   4.5270   4.7762   5.0005   5.0838   5.1583
     5.3243   5.3847   5.4754   5.5166   5.6158   5.7178   5.7643   5.7792
     5.8361   5.8476   5.9099   5.9902   6.1269   6.2038   6.2515   6.3638
     6.5303   6.6169   6.6638   6.7012   6.7140   6.7687   6.8360   6.9021
     7.0499   7.1367

     the Fermi energy is     5.2150 ev

!    total energy              =    -502.22416071 Ry
     estimated scf accuracy    <       0.00000051 Ry
     smearing contrib. (-TS)   =      -0.09026016 Ry
     internal energy E=F+TS    =    -502.13390055 Ry

     The total energy is F=E-TS. E is the sum of the following terms:
     one-electron contribution =     108.41512941 Ry
     hartree contribution      =      45.36816479 Ry
     xc contribution           =    -150.13465097 Ry
     ewald contribution        =    -505.78254378 Ry

     convergence has been achieved in  14 iterations

     Forces acting on atoms (cartesian axes, Ry/au):

     atom    1 type  1   force =     0.10323106   -0.05582927    0.10334552
     atom    2 type  1   force =    -0.04894411   -0.09589468   -0.14632528
     atom    3 type  1   force =     0.01392007   -0.04500626   -0.00476625
     atom    4 type  1   force =    -0.04834034   -0.05305394   -0.07199984
     atom    5 type  1   force =    -0.01355316    0.04488683   -0.02041445
     atom    6 type  1   force =    -0.03801051   -0.04938068   -0.05644591
     atom    7 type  1   force =     0.02550757   -0.03511634   -0.00922089
     atom    8 type  1   force =     0.00645677   -0.03457151    0.04176509
     atom    9 type  1   force =    -0.19694884    0.15942336    0.14711386
     atom   10 type  1   force =     0.03734669    0.05481427   -0.03390309
     atom   11 type  1   force =    -0.03385605   -0.05144261   -0.07968323
     atom   12 type  1   force =    -0.13653467    0.05082334    0.02486833
     atom   13 type  1   force =     0.09629140    0.06828452    0.05999190
     atom   14 type  1   force =     0.10162195   -0.01569824   -0.09631616
     atom   15 type  1   force =    -0.06676428   -0.00581624   -0.00570533
     atom   16 type  1   force =     0.02659035    0.01572046   -0.00061491
     atom   17 type  1   force =     0.03377713   -0.06988318   -0.10908288
     atom   18 type  1   force =    -0.09790487    0.10076097    0.04839571
     atom   19 type  1   force =     0.12366165   -0.02103979   -0.00029624
     atom   20 type  1   force =    -0.05170152   -0.01577578   -0.04557372
     atom   21 type  1   force =    -0.14243984    0.17675459   -0.14488354
     atom   22 type  1   force =     0.13567678   -0.16492442    0.14432162
     atom   23 type  1   force =    -0.01174853    0.02983763   -0.02179769
     atom   24 type  1   force =     0.06647230   -0.10727442   -0.22135580
     atom   25 type  1   force =     0.03121532   -0.02919827   -0.06030456
     atom   26 type  1   force =    -0.00989878   -0.08291648    0.00836443
     atom   27 type  1   force =     0.02695607    0.08493878    0.02134071
     atom   28 type  1   force =    -0.04333546    0.03437981    0.01344478
     atom   29 type  1   force =     0.05888509   -0.05235326    0.02378231
     atom   30 type  1   force =     0.01503098    0.03940441    0.00294406
     atom   31 type  1   force =    -0.05710330   -0.01254046    0.03045218
     atom   32 type  1   force =     0.00848082   -0.02833092    0.02569640
     atom   33 type  1   force =     0.11433858    0.14600704    0.11515775
     atom   34 type  1   force =     0.03138373   -0.05113639   -0.04851348
     atom   35 type  1   force =     0.19839275   -0.07193316   -0.07288670
     atom   36 type  1   force =     0.00792949    0.00889552    0.04455428
     atom   37 type  1   force =     0.08715328    0.00298374    0.01734046
     atom   38 type  1   force =     0.01155413    0.06479536    0.00708547
     atom   39 type  1   force =     0.00377987    0.04135568    0.01176140
     atom   40 type  1   force =    -0.09830552   -0.03514830   -0.00343661
     atom   41 type  1   force =    -0.11055852   -0.03237548    0.04512687
     atom   42 type  1   force =    -0.20878103    0.16534828   -0.16977706
     atom   43 type  1   force =     0.03102044   -0.00696354    0.03287002
     atom   44 type  1   force =    -0.05881666    0.01143086    0.02343734
     atom   45 type  1   force =     0.02821171    0.00091341    0.01843020
     atom   46 type  1   force =    -0.03767963    0.04523870   -0.03698338
     atom   47 type  1   force =     0.05368584    0.04630010   -0.06995998
     atom   48 type  1   force =    -0.11704661    0.01193291    0.02081741
     atom   49 type  1   force =     0.19969390   -0.17223560    0.17407416
     atom   50 type  1   force =    -0.02509297   -0.03362352    0.03819910
     atom   51 type  1   force =     0.01930591    0.03933206    0.05543609
     atom   52 type  1   force =    -0.02151197   -0.06338126   -0.02306310
     atom   53 type  1   force =     0.00011078    0.01817946   -0.05075804
     atom   54 type  1   force =    -0.13258902    0.07969431   -0.06599886
     atom   55 type  1   force =     0.03790853    0.01219399    0.02740651
     atom   56 type  1   force =     0.00012606   -0.03603041   -0.02462381
     atom   57 type  1   force =    -0.02880659   -0.05802398    0.08762021
     atom   58 type  1   force =     0.03487069   -0.01751356    0.03811801
     atom   59 type  1   force =     0.12065128    0.04448020   -0.04004002
     atom   60 type  1   force =    -0.12216077   -0.09411017    0.12187403
     atom   61 type  1   force =     0.00024721    0.16231133    0.08675921
     atom   62 type  1   force =     0.05992521   -0.02564121   -0.01720534
     atom   63 type  1   force =     0.05212198    0.00897457    0.02040359
     atom   64 type  1   force =    -0.04509983   -0.04623319    0.06963719

     Total force =     1.052853     Total SCF correction =     0.001215


     Computing stress (Cartesian axis) and pressure

          total   stress  (Ry/bohr**3)                   (kbar)     P=      -32.51
  -0.00034163  -0.00001745   0.00006481          -50.26       -2.57        9.53
  -0.00001745  -0.00010726  -0.00007388           -2.57      -15.78      -10.87
   0.00006481  -0.00007388  -0.00021407            9.53      -10.87      -31.49

 
     init_run     :      1.03s CPU      4.89s WALL (       1 calls)
     electrons    :      1.97s CPU      2.12s WALL (       1 calls)
     forces       :      0.04s CPU      0.05s WALL (       1 calls)
     stress       :      0.18s CPU      0.19s WALL (       1 calls)

     Called by init_run:
     wfcinit      :      0.58s CPU      4.27s WALL (       1 calls)
                                        4.27s GPU  (       1 calls)
     potinit      :      0.23s CPU      0.31s WALL (       1 calls)
     hinit0       :      0.20s CPU      0.22s WALL (       1 calls)

     Called by electrons:
     c_bands      :      1.24s CPU      1.32s WALL (      15 calls)
     sum_band     :      0.37s CPU      0.42s WALL (      15 calls)
     v_of_rho     :      0.18s CPU      0.26s WALL (      15 calls)
     mix_rho      :      0.16s CPU      0.17s WALL (      15 calls)

     Called by c_bands:
     init_us_2    :      0.05s CPU      0.06s WALL (      31 calls)
     init_us_2:gp :      0.05s CPU      0.06s WALL (      31 calls)
     regterg      :      1.10s CPU      1.17s WALL (      15 calls)

     Called by *egterg:
     rdiaghg      :      0.38s CPU      1.15s WALL (      79 calls)
                                        1.13s GPU  (      79 calls)
     h_psi        :      1.12s CPU      4.10s WALL (      81 calls)
                                        4.09s GPU  (      81 calls)
     g_psi        :      0.00s CPU      0.00s WALL (      65 calls)
                                        0.00s GPU  (      65 calls)

     Called by h_psi:
     h_psi:calbec :      0.52s CPU      3.41s WALL (      81 calls)
                                        3.41s GPU  (      81 calls)
     vloc_psi     :      0.55s CPU      0.63s WALL (      81 calls)
                                        0.63s GPU  (      81 calls)
     add_vuspsi   :      0.03s CPU      0.05s WALL (      81 calls)
                                        0.05s GPU  (      81 calls)

     General routines
     calbec       :      0.52s CPU      3.41s WALL (      86 calls)
     fft          :      0.32s CPU      0.44s WALL (     127 calls)
                                        0.12s GPU  (      81 calls)
     ffts         :      0.06s CPU      0.06s WALL (      15 calls)
     fftw         :      0.60s CPU      0.78s WALL (    1609 calls)
                                        0.71s GPU  (    1609 calls)
 
     Parallel routines
 
     PWSCF        :      3.27s CPU      7.34s WALL

 
   This run was terminated on:  11:45:56  10May2023            

=------------------------------------------------------------------------------=
   JOB DONE.
=------------------------------------------------------------------------------=
