An instance of this daemon is already running

     Program PWSCF v.7.1 starts on 10May2023 at 11:36:17 

     This program is part of the open-source Quantum ESPRESSO suite
     for quantum simulation of materials; please cite
         "P. Giannozzi et al., J. Phys.:Condens. Matter 21 395502 (2009);
         "P. Giannozzi et al., J. Phys.:Condens. Matter 29 465901 (2017);
         "P. Giannozzi et al., J. Chem. Phys. 152 154105 (2020);
          URL http://www.quantum-espresso.org", 
     in publications or presentations arising from this work. More details at
     http://www.quantum-espresso.org/quote

     Parallel version (MPI & OpenMP), running on       4 processor cores
     Number of MPI processes:                 4
     Threads/MPI process:                     1

     MPI processes distributed on     1 nodes
     706979 MiB available memory on the printing compute node when the environment starts
 
     Reading input from pw-si-37.in
Warning: card &CELL ignored
Warning: card / ignored

     Current dimensions of program PWSCF are:
     Max number of different atomic species (ntypx) = 10
     Max number of k-points (npk) =  40000
     Max angular momentum in pseudopotentials (lmaxx) =  4

     IMPORTANT: XC functional enforced from input :
     Exchange-correlation= PBE
                           (   1   4   3   4   0   0   0)
     Any further DFT definition will be discarded
     Please, verify this is what you really want


     gamma-point specific algorithms are used
 
     K-points division:     npool     =       2
     R & G space division:  proc/nbgrp/npool/nimage =       2
     Subspace diagonalization in iterative solution of the eigenvalue problem:
     a serial algorithm will be used

     Message from routine divide_et_impera:
     suboptimal parallelization: some nodes have no k-points
 
     Parallelization info
     --------------------
     sticks:   dense  smooth     PW     G-vecs:    dense   smooth      PW
     Min        2057    2057    543               101140   101140   13751
     Max        2060    2060    548               101141   101141   13752
     Sum        4117    4117   1091               202281   202281   27503
 
     Using Slab Decomposition
 


     bravais-lattice index     =            0
     lattice parameter (alat)  =      21.3489  a.u.
     unit-cell volume          =    9115.6338 (a.u.)^3
     number of atoms/cell      =           64
     number of atomic types    =            1
     number of electrons       =       256.00
     number of Kohn-Sham states=          154
     kinetic-energy cutoff     =      30.0000  Ry
     charge density cutoff     =     120.0000  Ry
     scf convergence threshold =      1.0E-06
     mixing beta               =       0.5000
     number of iterations used =            8  plain     mixing
     Exchange-correlation= PBE
                           (   1   4   3   4   0   0   0)

     GPU acceleration is ACTIVE.
     GPU-aware MPI enabled

     Message from routine print_cuda_info:
     High GPU oversubscription detected. Are you sure this is what you want?

     celldm(1)=  21.348870  celldm(2)=   0.000000  celldm(3)=   0.000000
     celldm(4)=   0.000000  celldm(5)=   0.000000  celldm(6)=   0.000000

     crystal axes: (cart. coord. in units of alat)
               a(1) = (   1.000000   0.000000   0.000000 )  
               a(2) = (   0.000000   0.944126   0.000000 )  
               a(3) = (   0.000000   0.000000   0.992276 )  

     reciprocal axes: (cart. coord. in units 2 pi/alat)
               b(1) = (  1.000000  0.000000  0.000000 )  
               b(2) = (  0.000000  1.059181  0.000000 )  
               b(3) = (  0.000000  0.000000  1.007785 )  


     PseudoPot. # 1 for Si read from file:
     /home/ppiaggi/pseudos/Si_ONCV_PBE_sr.upf
     MD5 check sum: 8553c464762ac42b85b1eed164b4d029
     Pseudo is Norm-conserving, Zval =  4.0
     Generated using ONCVPSP code by D. R. Hamann
     Using radial grid of 1510 points,  4 beta functions with: 
                l(1) =   0
                l(2) =   0
                l(3) =   1
                l(4) =   1

     atomic species   valence    mass     pseudopotential
        Si             4.00    28.08500     Si( 1.00)

     No symmetry found



   Cartesian axes

     site n.     atom                  positions (alat units)
         1           Si  tau(   1) = (  -0.0170137   0.0148360  -0.0006277  )
         2           Si  tau(   2) = (   0.0176706   0.2504808   0.2532265  )
         3           Si  tau(   3) = (   0.2371149  -0.0119115   0.2551210  )
         4           Si  tau(   4) = (   0.2283376   0.2492463  -0.0163549  )
         5           Si  tau(   5) = (   0.1300429   0.1309327   0.1408484  )
         6           Si  tau(   6) = (   0.4976026  -0.0041956   0.0110993  )
         7           Si  tau(   7) = (   0.4865664   0.2524288   0.2669681  )
         8           Si  tau(   8) = (   0.6205096   0.1177505   0.1310577  )
         9           Si  tau(   9) = (   0.7320342  -0.0003544   0.2663673  )
        10           Si  tau(  10) = (   0.7248516   0.2517329  -0.0160068  )
        11           Si  tau(  11) = (   0.0053937   0.4696355   0.0085457  )
        12           Si  tau(  12) = (   0.2395385   0.4796827   0.2658748  )
        13           Si  tau(  13) = (   0.1089865   0.5902296   0.1201245  )
        14           Si  tau(  14) = (   0.3517018   0.3417478   0.1427658  )
        15           Si  tau(  15) = (   0.4940061   0.4892059   0.0000462  )
        16           Si  tau(  16) = (   0.6075624   0.5829137   0.1321454  )
        17           Si  tau(  17) = (   0.8496098   0.3694220   0.1295619  )
        18           Si  tau(  18) = (   0.7126535   0.4661533   0.2509675  )
        19           Si  tau(  19) = (   0.0130385   0.6971641   0.2610835  )
        20           Si  tau(  20) = (   0.2326531   0.7196035  -0.0105664  )
        21           Si  tau(  21) = (   0.3610479   0.8193443   0.1414198  )
        22           Si  tau(  22) = (   0.4699774   0.7199566   0.2738002  )
        23           Si  tau(  23) = (   0.7356460   0.7022748   0.0011668  )
        24           Si  tau(  24) = (   0.8541514   0.8314869   0.1416119  )
        25           Si  tau(  25) = (  -0.0141942   0.0002396   0.5043121  )
        26           Si  tau(  26) = (   0.2292378   0.2542090   0.5089149  )
        27           Si  tau(  27) = (   0.1131396   0.1279665   0.6501816  )
        28           Si  tau(  28) = (   0.3717271   0.1143912   0.3864742  )
        29           Si  tau(  29) = (   0.5009619   0.0157870   0.5029436  )
        30           Si  tau(  30) = (   0.5970227   0.1103376   0.6323042  )
        31           Si  tau(  31) = (   0.8346485   0.1327309   0.4000257  )
        32           Si  tau(  32) = (   0.7353698   0.2292149   0.5148947  )
        33           Si  tau(  33) = (   0.1231862   0.3537511   0.3667244  )
        34           Si  tau(  34) = (   0.0058729   0.4656032   0.5233283  )
        35           Si  tau(  35) = (   0.1189750   0.5814940   0.6475330  )
        36           Si  tau(  36) = (   0.6009013   0.3505331   0.3911564  )
        37           Si  tau(  37) = (   0.3595010   0.6032145   0.4001607  )
        38           Si  tau(  38) = (   0.3603780   0.3568758   0.6248133  )
        39           Si  tau(  39) = (   0.4837268   0.4791846   0.4949591  )
        40           Si  tau(  40) = (   0.5967883   0.6042305   0.6571838  )
        41           Si  tau(  41) = (   0.8539830   0.5850059   0.3979322  )
        42           Si  tau(  42) = (   0.8606355   0.3619574   0.6487530  )
        43           Si  tau(  43) = (   0.1317543   0.8472367   0.3946909  )
        44           Si  tau(  44) = (   0.2436099   0.7011788   0.4986050  )
        45           Si  tau(  45) = (   0.6167570   0.8211838   0.3773101  )
        46           Si  tau(  46) = (   0.3643882   0.8395689   0.6238265  )
        47           Si  tau(  47) = (   0.7377914   0.7090324   0.4987462  )
        48           Si  tau(  48) = (   0.8481844   0.8291060   0.6273221  )
        49           Si  tau(  49) = (  -0.0164991   0.2380798   0.7883460  )
        50           Si  tau(  50) = (   0.2286484   0.0086515   0.7782413  )
        51           Si  tau(  51) = (   0.3594686   0.1066045   0.9009667  )
        52           Si  tau(  52) = (   0.4923931   0.2272191   0.7526045  )
        53           Si  tau(  53) = (   0.7422067   0.0027709   0.7853082  )
        54           Si  tau(  54) = (   0.8686416   0.1174641   0.9070915  )
        55           Si  tau(  55) = (   0.1277400   0.3551458   0.9062844  )
        56           Si  tau(  56) = (   0.2469655   0.4659736   0.7688797  )
        57           Si  tau(  57) = (   0.5941195   0.3676216   0.9157806  )
        58           Si  tau(  58) = (   0.3682443   0.6092484   0.8916479  )
        59           Si  tau(  59) = (   0.7444472   0.4857756   0.7873634  )
        60           Si  tau(  60) = (   0.8370027   0.5999860   0.9001720  )
        61           Si  tau(  61) = (  -0.0152547   0.7253860   0.7881330  )
        62           Si  tau(  62) = (   0.1244953   0.8373754   0.9117889  )
        63           Si  tau(  63) = (   0.4751185   0.6951737   0.7776672  )
        64           Si  tau(  64) = (   0.6148245   0.8398506   0.8909356  )

     number of k points=     1  Fermi-Dirac smearing, width (Ry)=  0.0100
                       cart. coord. in units 2pi/alat
        k(    1) = (   0.0000000   0.0000000   0.0000000), wk =   2.0000000

     Dense  grid:   101141 G-vectors     FFT dimensions: (  75,  72,  75)

     Estimated max dynamical RAM per process >     161.83 MB

     Estimated total dynamical RAM >     622.63 MB

     Initial potential from superposition of free atoms

     starting charge     255.9608, renormalised to     256.0000
     Starting wfcs are  256 randomized atomic wfcs

     total cpu time spent up to now is        5.2 secs

     Self-consistent Calculation

     iteration #  1     ecut=    30.00 Ry     beta= 0.50
     Davidson diagonalization with overlap
     ethr =  1.00E-02,  avg # of iterations =  3.0

     Threshold (ethr) on eigenvalues was too large:
     Diagonalizing with lowered threshold

     Davidson diagonalization with overlap
     ethr =  7.01E-04,  avg # of iterations =  4.0

     total cpu time spent up to now is        5.5 secs

     total energy              =    -501.91949822 Ry
     estimated scf accuracy    <       2.05963140 Ry

     iteration #  2     ecut=    30.00 Ry     beta= 0.50
     Davidson diagonalization with overlap
     ethr =  8.05E-04,  avg # of iterations =  5.0

     total cpu time spent up to now is        5.6 secs

     total energy              =    -501.73318849 Ry
     estimated scf accuracy    <       1.36552926 Ry

     iteration #  3     ecut=    30.00 Ry     beta= 0.50
     Davidson diagonalization with overlap
     ethr =  5.33E-04,  avg # of iterations =  4.0

     total cpu time spent up to now is        5.7 secs

     total energy              =    -501.77394174 Ry
     estimated scf accuracy    <       2.68922198 Ry

     iteration #  4     ecut=    30.00 Ry     beta= 0.50
     Davidson diagonalization with overlap
     ethr =  5.33E-04,  avg # of iterations =  3.0

     total cpu time spent up to now is        5.9 secs

     total energy              =    -502.07406984 Ry
     estimated scf accuracy    <       0.14548860 Ry

     iteration #  5     ecut=    30.00 Ry     beta= 0.50
     Davidson diagonalization with overlap
     ethr =  5.68E-05,  avg # of iterations = 11.0

     total cpu time spent up to now is        6.0 secs

     total energy              =    -502.09297075 Ry
     estimated scf accuracy    <       0.07207581 Ry

     iteration #  6     ecut=    30.00 Ry     beta= 0.50
     Davidson diagonalization with overlap
     ethr =  2.82E-05,  avg # of iterations =  3.0

     total cpu time spent up to now is        6.1 secs

     total energy              =    -502.10102059 Ry
     estimated scf accuracy    <       0.02454324 Ry

     iteration #  7     ecut=    30.00 Ry     beta= 0.50
     Davidson diagonalization with overlap
     ethr =  9.59E-06,  avg # of iterations =  2.0

     total cpu time spent up to now is        6.3 secs

     total energy              =    -502.10344308 Ry
     estimated scf accuracy    <       0.00207190 Ry

     iteration #  8     ecut=    30.00 Ry     beta= 0.50
     Davidson diagonalization with overlap
     ethr =  8.09E-07,  avg # of iterations =  9.0

     total cpu time spent up to now is        6.4 secs

     total energy              =    -502.10390818 Ry
     estimated scf accuracy    <       0.00070237 Ry

     iteration #  9     ecut=    30.00 Ry     beta= 0.50
     Davidson diagonalization with overlap
     ethr =  2.74E-07,  avg # of iterations =  3.0

     total cpu time spent up to now is        6.5 secs

     total energy              =    -502.10394637 Ry
     estimated scf accuracy    <       0.00057190 Ry

     iteration # 10     ecut=    30.00 Ry     beta= 0.50
     Davidson diagonalization with overlap
     ethr =  2.23E-07,  avg # of iterations =  2.0

     total cpu time spent up to now is        6.7 secs

     total energy              =    -502.10399211 Ry
     estimated scf accuracy    <       0.00010372 Ry

     iteration # 11     ecut=    30.00 Ry     beta= 0.50
     Davidson diagonalization with overlap
     ethr =  4.05E-08,  avg # of iterations =  4.0

     total cpu time spent up to now is        6.8 secs

     total energy              =    -502.10400638 Ry
     estimated scf accuracy    <       0.00001034 Ry

     iteration # 12     ecut=    30.00 Ry     beta= 0.50
     Davidson diagonalization with overlap
     ethr =  4.04E-09,  avg # of iterations =  5.0

     total cpu time spent up to now is        6.9 secs

     total energy              =    -502.10400862 Ry
     estimated scf accuracy    <       0.00001167 Ry

     iteration # 13     ecut=    30.00 Ry     beta= 0.50
     Davidson diagonalization with overlap
     ethr =  4.04E-09,  avg # of iterations =  3.0

     total cpu time spent up to now is        7.0 secs

     total energy              =    -502.10400973 Ry
     estimated scf accuracy    <       0.00000411 Ry

     iteration # 14     ecut=    30.00 Ry     beta= 0.50
     Davidson diagonalization with overlap
     ethr =  1.61E-09,  avg # of iterations =  2.0

     total cpu time spent up to now is        7.1 secs

     End of self-consistent calculation

          k = 0.0000 0.0000 0.0000 ( 12664 PWs)   bands (ev):

    -6.3017  -5.6114  -5.5500  -5.3552  -5.3029  -5.0181  -4.8545  -4.7952
    -4.7341  -4.6437  -4.5228  -4.4566  -4.2478  -4.2097  -4.1409  -3.9662
    -3.9115  -3.8279  -3.8122  -3.6676  -3.5641  -3.5421  -3.3068  -2.7338
    -2.6528  -2.4292  -2.3962  -2.2834  -2.2079  -2.1184  -2.0353  -2.0108
    -1.9526  -1.8743  -1.8224  -1.7200  -1.6174  -1.5388  -1.5138  -1.4541
    -1.3069  -1.1714  -1.0870  -0.9790  -0.6495  -0.3255  -0.1406  -0.0214
     0.0459   0.1175   0.1721   0.2425   0.3148   0.3330   0.5035   0.5082
     0.6627   1.2859   1.3596   1.4906   1.5493   1.6047   1.6363   1.7202
     1.7369   1.7946   1.8392   1.8897   1.9345   1.9738   2.0112   2.0532
     2.0791   2.1038   2.1504   2.1828   2.2045   2.2895   2.3748   2.3934
     2.4074   2.4541   2.4993   2.5499   2.5720   2.6289   2.7234   2.7876
     2.8276   2.8588   3.0070   3.1174   3.1731   3.2493   3.4413   3.5335
     3.6138   3.6888   3.7314   3.7581   3.8587   3.9105   3.9240   4.0317
     4.0944   4.1393   4.2539   4.2727   4.3052   4.3466   4.4181   4.5091
     4.5324   4.5832   4.6046   4.6604   4.7522   4.7944   4.8601   4.9609
     4.9766   5.0180   5.1141   5.2227   5.4311   5.6091   5.7452   5.8248
     5.8978   6.0351   6.2343   6.2789   6.3476   6.3933   6.4679   6.5347
     6.5719   6.6719   6.7276   6.7777   6.8336   6.9993   7.0723   7.1009
     7.2634   7.3571   7.4441   7.5054   7.6644   7.7116   7.7588   7.7790
     7.9074   7.9433

     the Fermi energy is     5.8718 ev

!    total energy              =    -502.10400993 Ry
     estimated scf accuracy    <       0.00000038 Ry
     smearing contrib. (-TS)   =      -0.08074408 Ry
     internal energy E=F+TS    =    -502.02326585 Ry

     The total energy is F=E-TS. E is the sum of the following terms:
     one-electron contribution =     127.47975570 Ry
     hartree contribution      =      42.41610161 Ry
     xc contribution           =    -152.51158083 Ry
     ewald contribution        =    -519.40754232 Ry

     convergence has been achieved in  14 iterations

     Forces acting on atoms (cartesian axes, Ry/au):

     atom    1 type  1   force =     0.13714960   -0.13279963    0.21352537
     atom    2 type  1   force =    -0.16502824   -0.04548243   -0.05044996
     atom    3 type  1   force =     0.04838056    0.08596158   -0.01412978
     atom    4 type  1   force =     0.32105135   -0.33610485    0.28981834
     atom    5 type  1   force =    -0.01273663   -0.03021820   -0.05875253
     atom    6 type  1   force =    -0.06553555    0.03360769    0.10029144
     atom    7 type  1   force =    -0.01421952   -0.10791218   -0.04898147
     atom    8 type  1   force =    -0.01831132    0.04720453    0.01276275
     atom    9 type  1   force =     0.02395714    0.03964204   -0.01721874
     atom   10 type  1   force =     0.09616332   -0.08898981    0.13670285
     atom   11 type  1   force =    -0.13264459    0.02872302    0.02348613
     atom   12 type  1   force =     0.02402462    0.02751047   -0.05167656
     atom   13 type  1   force =     0.08709385    0.02884641    0.04209319
     atom   14 type  1   force =    -0.00773631    0.06405654   -0.03547986
     atom   15 type  1   force =    -0.16146083    0.08744757    0.14046263
     atom   16 type  1   force =    -0.01748209    0.08937865    0.01762100
     atom   17 type  1   force =     0.04421339   -0.03851153   -0.01911736
     atom   18 type  1   force =     0.06698423   -0.00414757    0.07370459
     atom   19 type  1   force =    -0.08353680    0.05806629    0.04322610
     atom   20 type  1   force =     0.12390165   -0.15118780    0.19657696
     atom   21 type  1   force =    -0.00873285    0.01796039   -0.07336069
     atom   22 type  1   force =     0.06318482   -0.05392585   -0.02338097
     atom   23 type  1   force =    -0.16861501    0.18849506    0.21928666
     atom   24 type  1   force =     0.05663726   -0.02807766   -0.02237070
     atom   25 type  1   force =    -0.02198667    0.04957656    0.04482954
     atom   26 type  1   force =     0.02314100   -0.08500031    0.00259420
     atom   27 type  1   force =    -0.03430263    0.00656646   -0.02488284
     atom   28 type  1   force =    -0.06024574    0.04851046   -0.02865543
     atom   29 type  1   force =    -0.04699366   -0.12456945   -0.05619588
     atom   30 type  1   force =     0.13991379    0.04447307    0.08418574
     atom   31 type  1   force =     0.16905433   -0.12841383   -0.14444893
     atom   32 type  1   force =    -0.11265425    0.13170415    0.13636472
     atom   33 type  1   force =     0.01071994    0.07910608    0.12425865
     atom   34 type  1   force =    -0.05943790   -0.00841049   -0.04015993
     atom   35 type  1   force =     0.00226422    0.06066151    0.01537776
     atom   36 type  1   force =     0.06786884    0.02340340    0.01625171
     atom   37 type  1   force =     0.07134759   -0.10165373   -0.13604318
     atom   38 type  1   force =     0.03725073    0.00643311    0.03416847
     atom   39 type  1   force =     0.01557416    0.00077501    0.10014116
     atom   40 type  1   force =     0.08068548   -0.07129322   -0.08191847
     atom   41 type  1   force =     0.06934567   -0.04779090   -0.05695572
     atom   42 type  1   force =     0.00941985   -0.01999293    0.01025499
     atom   43 type  1   force =    -0.06176402   -0.09157479    0.00095251
     atom   44 type  1   force =    -0.11818329    0.11892985    0.15767166
     atom   45 type  1   force =    -0.03948329    0.02826034    0.03356616
     atom   46 type  1   force =    -0.01622745   -0.03062637    0.04056302
     atom   47 type  1   force =    -0.04998082    0.00283296    0.07055229
     atom   48 type  1   force =     0.04630243    0.01701246    0.04871289
     atom   49 type  1   force =     0.02480530    0.02111161   -0.06134038
     atom   50 type  1   force =     0.03705291   -0.02171329   -0.06764729
     atom   51 type  1   force =     0.02132560    0.05140297   -0.06477781
     atom   52 type  1   force =    -0.06572251    0.05405975    0.06152345
     atom   53 type  1   force =     0.00843436    0.01728917   -0.10530223
     atom   54 type  1   force =    -0.15435993    0.13336418   -0.14289347
     atom   55 type  1   force =    -0.27244351    0.25857316   -0.28231315
     atom   56 type  1   force =     0.01343918    0.02366851   -0.00291493
     atom   57 type  1   force =     0.06416020   -0.09800915   -0.23403708
     atom   58 type  1   force =    -0.13106400   -0.14217803    0.04923579
     atom   59 type  1   force =    -0.10993817   -0.08393308   -0.11932711
     atom   60 type  1   force =     0.28816219   -0.09939651   -0.09826351
     atom   61 type  1   force =    -0.00512995   -0.03553382   -0.05319664
     atom   62 type  1   force =    -0.17474074    0.14147466   -0.14988551
     atom   63 type  1   force =     0.09898377    0.20207083   -0.12773861
     atom   64 type  1   force =    -0.00129508   -0.11071307   -0.04694601

     Total force =     1.393338     Total SCF correction =     0.001092


     Computing stress (Cartesian axis) and pressure

          total   stress  (Ry/bohr**3)                   (kbar)     P=       26.03
   0.00016557  -0.00033118  -0.00002364           24.36      -48.72       -3.48
  -0.00033118   0.00033556   0.00008511          -48.72       49.36       12.52
  -0.00002364   0.00008511   0.00002979           -3.48       12.52        4.38

 
     init_run     :      1.24s CPU      5.11s WALL (       1 calls)
     electrons    :      1.82s CPU      1.95s WALL (       1 calls)
     forces       :      0.04s CPU      0.05s WALL (       1 calls)
     stress       :      0.17s CPU      0.17s WALL (       1 calls)

     Called by init_run:
     wfcinit      :      0.58s CPU      4.27s WALL (       1 calls)
                                        4.27s GPU  (       1 calls)
     potinit      :      0.22s CPU      0.31s WALL (       1 calls)
     hinit0       :      0.42s CPU      0.45s WALL (       1 calls)

     Called by electrons:
     c_bands      :      1.12s CPU      1.18s WALL (      15 calls)
     sum_band     :      0.36s CPU      0.40s WALL (      15 calls)
     v_of_rho     :      0.17s CPU      0.28s WALL (      15 calls)
     mix_rho      :      0.15s CPU      0.16s WALL (      15 calls)

     Called by c_bands:
     init_us_2    :      0.05s CPU      0.06s WALL (      31 calls)
     init_us_2:gp :      0.05s CPU      0.06s WALL (      31 calls)
     regterg      :      0.99s CPU      1.04s WALL (      15 calls)

     Called by *egterg:
     rdiaghg      :      0.36s CPU      1.13s WALL (      77 calls)
                                        1.11s GPU  (      77 calls)
     h_psi        :      1.04s CPU      4.00s WALL (      79 calls)
                                        4.00s GPU  (      79 calls)
     g_psi        :      0.00s CPU      0.00s WALL (      63 calls)
                                        0.00s GPU  (      63 calls)

     Called by h_psi:
     h_psi:calbec :      0.53s CPU      3.41s WALL (      79 calls)
                                        3.41s GPU  (      79 calls)
     vloc_psi     :      0.46s CPU      0.54s WALL (      79 calls)
                                        0.53s GPU  (      79 calls)
     add_vuspsi   :      0.03s CPU      0.05s WALL (      79 calls)
                                        0.05s GPU  (      79 calls)

     General routines
     calbec       :      0.54s CPU      3.41s WALL (      84 calls)
     fft          :      0.53s CPU      0.67s WALL (     127 calls)
                                        0.14s GPU  (      81 calls)
     ffts         :      0.05s CPU      0.05s WALL (      15 calls)
     fftw         :      0.51s CPU      0.67s WALL (    1603 calls)
                                        0.60s GPU  (    1603 calls)
 
     Parallel routines
 
     PWSCF        :      3.33s CPU      7.37s WALL

 
   This run was terminated on:  11:36:25  10May2023            

=------------------------------------------------------------------------------=
   JOB DONE.
=------------------------------------------------------------------------------=
