An instance of this daemon is already running

     Program PWSCF v.7.1 starts on 10May2023 at 11:42: 5 

     This program is part of the open-source Quantum ESPRESSO suite
     for quantum simulation of materials; please cite
         "P. Giannozzi et al., J. Phys.:Condens. Matter 21 395502 (2009);
         "P. Giannozzi et al., J. Phys.:Condens. Matter 29 465901 (2017);
         "P. Giannozzi et al., J. Chem. Phys. 152 154105 (2020);
          URL http://www.quantum-espresso.org", 
     in publications or presentations arising from this work. More details at
     http://www.quantum-espresso.org/quote

     Parallel version (MPI & OpenMP), running on       4 processor cores
     Number of MPI processes:                 4
     Threads/MPI process:                     1

     MPI processes distributed on     1 nodes
     707056 MiB available memory on the printing compute node when the environment starts
 
     Reading input from pw-si-73.in
Warning: card &CELL ignored
Warning: card / ignored

     Current dimensions of program PWSCF are:
     Max number of different atomic species (ntypx) = 10
     Max number of k-points (npk) =  40000
     Max angular momentum in pseudopotentials (lmaxx) =  4

     IMPORTANT: XC functional enforced from input :
     Exchange-correlation= PBE
                           (   1   4   3   4   0   0   0)
     Any further DFT definition will be discarded
     Please, verify this is what you really want


     gamma-point specific algorithms are used
 
     K-points division:     npool     =       2
     R & G space division:  proc/nbgrp/npool/nimage =       2
     Subspace diagonalization in iterative solution of the eigenvalue problem:
     a serial algorithm will be used

     Message from routine divide_et_impera:
     suboptimal parallelization: some nodes have no k-points
 
     Parallelization info
     --------------------
     sticks:   dense  smooth     PW     G-vecs:    dense   smooth      PW
     Min        2003    2003    528                97826    97826   13312
     Max        2006    2006    529                97827    97827   13313
     Sum        4009    4009   1057               195653   195653   26625
 
     Using Slab Decomposition
 


     bravais-lattice index     =            0
     lattice parameter (alat)  =      21.2189  a.u.
     unit-cell volume          =    8814.9231 (a.u.)^3
     number of atoms/cell      =           64
     number of atomic types    =            1
     number of electrons       =       256.00
     number of Kohn-Sham states=          154
     kinetic-energy cutoff     =      30.0000  Ry
     charge density cutoff     =     120.0000  Ry
     scf convergence threshold =      1.0E-06
     mixing beta               =       0.5000
     number of iterations used =            8  plain     mixing
     Exchange-correlation= PBE
                           (   1   4   3   4   0   0   0)

     GPU acceleration is ACTIVE.
     GPU-aware MPI enabled

     Message from routine print_cuda_info:
     High GPU oversubscription detected. Are you sure this is what you want?

     celldm(1)=  21.218889  celldm(2)=   0.000000  celldm(3)=   0.000000
     celldm(4)=   0.000000  celldm(5)=   0.000000  celldm(6)=   0.000000

     crystal axes: (cart. coord. in units of alat)
               a(1) = (   1.000000   0.000000   0.000000 )  
               a(2) = (   0.000000   0.932269   0.000000 )  
               a(3) = (   0.000000   0.000000   0.989713 )  

     reciprocal axes: (cart. coord. in units 2 pi/alat)
               b(1) = (  1.000000  0.000000  0.000000 )  
               b(2) = (  0.000000  1.072652  0.000000 )  
               b(3) = (  0.000000  0.000000  1.010394 )  


     PseudoPot. # 1 for Si read from file:
     /home/ppiaggi/pseudos/Si_ONCV_PBE_sr.upf
     MD5 check sum: 8553c464762ac42b85b1eed164b4d029
     Pseudo is Norm-conserving, Zval =  4.0
     Generated using ONCVPSP code by D. R. Hamann
     Using radial grid of 1510 points,  4 beta functions with: 
                l(1) =   0
                l(2) =   0
                l(3) =   1
                l(4) =   1

     atomic species   valence    mass     pseudopotential
        Si             4.00    28.08500     Si( 1.00)

     No symmetry found



   Cartesian axes

     site n.     atom                  positions (alat units)
         1           Si  tau(   1) = (   0.0008714  -0.0093163  -0.0055711  )
         2           Si  tau(   2) = (  -0.0006882   0.2470775   0.2367716  )
         3           Si  tau(   3) = (   0.2563587   0.0038035   0.2611796  )
         4           Si  tau(   4) = (   0.2427940   0.2571485   0.0064873  )
         5           Si  tau(   5) = (   0.1303607   0.1313426   0.1078945  )
         6           Si  tau(   6) = (   0.5073417   0.0152253   0.0145682  )
         7           Si  tau(   7) = (   0.4960456   0.2532159   0.2529782  )
         8           Si  tau(   8) = (   0.6181900   0.1290000   0.1198065  )
         9           Si  tau(   9) = (   0.7501911  -0.0151525   0.2303326  )
        10           Si  tau(  10) = (   0.7338846   0.2497204  -0.0084257  )
        11           Si  tau(  11) = (   0.0018369   0.4839287   0.0125659  )
        12           Si  tau(  12) = (   0.2485099   0.4827639   0.2307276  )
        13           Si  tau(  13) = (   0.1210893   0.6028557   0.1300663  )
        14           Si  tau(  14) = (   0.3610487   0.3747381   0.1200026  )
        15           Si  tau(  15) = (   0.4862979   0.4753302   0.0057828  )
        16           Si  tau(  16) = (   0.6016606   0.6119389   0.1266944  )
        17           Si  tau(  17) = (   0.8509806   0.3480782   0.1394623  )
        18           Si  tau(  18) = (   0.7452434   0.4920783   0.2289491  )
        19           Si  tau(  19) = (  -0.0113958   0.7284886   0.2466116  )
        20           Si  tau(  20) = (   0.2602226   0.7286771  -0.0089708  )
        21           Si  tau(  21) = (   0.3651116   0.8519888   0.1376136  )
        22           Si  tau(  22) = (   0.5025391   0.7154385   0.2609918  )
        23           Si  tau(  23) = (   0.7408929   0.7208936   0.0062414  )
        24           Si  tau(  24) = (   0.8681183   0.8479782   0.1286710  )
        25           Si  tau(  25) = (   0.0164839  -0.0115964   0.4828975  )
        26           Si  tau(  26) = (   0.2601490   0.2470360   0.4719888  )
        27           Si  tau(  27) = (   0.1246211   0.1139237   0.6277137  )
        28           Si  tau(  28) = (   0.3683978   0.1370091   0.3560769  )
        29           Si  tau(  29) = (   0.4771487  -0.0015291   0.5023640  )
        30           Si  tau(  30) = (   0.6259562   0.1264918   0.6273490  )
        31           Si  tau(  31) = (   0.8742780   0.1172068   0.3779259  )
        32           Si  tau(  32) = (   0.7507343   0.2521863   0.4785222  )
        33           Si  tau(  33) = (   0.1202320   0.3664580   0.3542151  )
        34           Si  tau(  34) = (  -0.0029762   0.5020594   0.4792462  )
        35           Si  tau(  35) = (   0.1062098   0.5957206   0.5967027  )
        36           Si  tau(  36) = (   0.6192318   0.3651469   0.3727296  )
        37           Si  tau(  37) = (   0.3583104   0.5908493   0.3757570  )
        38           Si  tau(  38) = (   0.3870884   0.3517849   0.6057521  )
        39           Si  tau(  39) = (   0.5050182   0.4874033   0.4769689  )
        40           Si  tau(  40) = (   0.6118276   0.5971828   0.6083857  )
        41           Si  tau(  41) = (   0.8492177   0.5977750   0.3650459  )
        42           Si  tau(  42) = (   0.8745038   0.3644998   0.6169209  )
        43           Si  tau(  43) = (   0.1134951   0.8685774   0.3510118  )
        44           Si  tau(  44) = (   0.2443257   0.7180056   0.5044025  )
        45           Si  tau(  45) = (   0.6235110   0.8453899   0.3603940  )
        46           Si  tau(  46) = (   0.3704254   0.8517271   0.6204643  )
        47           Si  tau(  47) = (   0.7439499   0.7352778   0.5033549  )
        48           Si  tau(  48) = (   0.8581767   0.8358137   0.6236970  )
        49           Si  tau(  49) = (   0.0136532   0.2376864   0.7367860  )
        50           Si  tau(  50) = (   0.2300611   0.0095641   0.7283526  )
        51           Si  tau(  51) = (   0.3546753   0.1174544   0.8395478  )
        52           Si  tau(  52) = (   0.5044550   0.2512787   0.7517222  )
        53           Si  tau(  53) = (   0.7431202   0.0045132   0.7187103  )
        54           Si  tau(  54) = (   0.8728996   0.1236378   0.8613624  )
        55           Si  tau(  55) = (   0.1408907   0.3761873   0.8513887  )
        56           Si  tau(  56) = (   0.2492420   0.5036104   0.7412262  )
        57           Si  tau(  57) = (   0.6004164   0.3482807   0.8541464  )
        58           Si  tau(  58) = (   0.3652551   0.6171923   0.8608721  )
        59           Si  tau(  59) = (   0.7258156   0.4852557   0.7402973  )
        60           Si  tau(  60) = (   0.8598304   0.5987671   0.8625669  )
        61           Si  tau(  61) = (   0.0025418   0.7187395   0.7180662  )
        62           Si  tau(  62) = (   0.1251372   0.8587075   0.8726831  )
        63           Si  tau(  63) = (   0.4987540   0.7401332   0.7301919  )
        64           Si  tau(  64) = (   0.6313602   0.8368982   0.8507966  )

     number of k points=     1  Fermi-Dirac smearing, width (Ry)=  0.0100
                       cart. coord. in units 2pi/alat
        k(    1) = (   0.0000000   0.0000000   0.0000000), wk =   2.0000000

     Dense  grid:    97827 G-vectors     FFT dimensions: (  75,  72,  75)

     Estimated max dynamical RAM per process >     157.07 MB

     Estimated total dynamical RAM >     604.41 MB

     Initial potential from superposition of free atoms

     starting charge     255.9608, renormalised to     256.0000
     Starting wfcs are  256 randomized atomic wfcs

     total cpu time spent up to now is        5.2 secs

     Self-consistent Calculation

     iteration #  1     ecut=    30.00 Ry     beta= 0.50
     Davidson diagonalization with overlap
     ethr =  1.00E-02,  avg # of iterations =  3.0

     Threshold (ethr) on eigenvalues was too large:
     Diagonalizing with lowered threshold

     Davidson diagonalization with overlap
     ethr =  7.20E-04,  avg # of iterations =  4.0

     total cpu time spent up to now is        5.5 secs

     total energy              =    -502.16412113 Ry
     estimated scf accuracy    <       2.09672232 Ry

     iteration #  2     ecut=    30.00 Ry     beta= 0.50
     Davidson diagonalization with overlap
     ethr =  8.19E-04,  avg # of iterations =  2.0

     total cpu time spent up to now is        5.6 secs

     total energy              =    -501.99395720 Ry
     estimated scf accuracy    <       1.13147690 Ry

     iteration #  3     ecut=    30.00 Ry     beta= 0.50
     Davidson diagonalization with overlap
     ethr =  4.42E-04,  avg # of iterations = 12.0

     total cpu time spent up to now is        5.7 secs

     total energy              =    -502.05190899 Ry
     estimated scf accuracy    <       2.15119844 Ry

     iteration #  4     ecut=    30.00 Ry     beta= 0.50
     Davidson diagonalization with overlap
     ethr =  4.42E-04,  avg # of iterations =  3.0

     total cpu time spent up to now is        5.9 secs

     total energy              =    -502.29390861 Ry
     estimated scf accuracy    <       0.08394507 Ry

     iteration #  5     ecut=    30.00 Ry     beta= 0.50
     Davidson diagonalization with overlap
     c_bands:  1 eigenvalues not converged
     ethr =  3.28E-05,  avg # of iterations = 20.0

     total cpu time spent up to now is        6.1 secs

     total energy              =    -502.30973763 Ry
     estimated scf accuracy    <       0.07442009 Ry

     iteration #  6     ecut=    30.00 Ry     beta= 0.50
     Davidson diagonalization with overlap
     ethr =  2.91E-05,  avg # of iterations =  3.0

     total cpu time spent up to now is        6.2 secs

     total energy              =    -502.31773351 Ry
     estimated scf accuracy    <       0.01532770 Ry

     iteration #  7     ecut=    30.00 Ry     beta= 0.50
     Davidson diagonalization with overlap
     ethr =  5.99E-06,  avg # of iterations = 17.0

     total cpu time spent up to now is        6.4 secs

     total energy              =    -502.31938450 Ry
     estimated scf accuracy    <       0.00204302 Ry

     iteration #  8     ecut=    30.00 Ry     beta= 0.50
     Davidson diagonalization with overlap
     ethr =  7.98E-07,  avg # of iterations =  4.0

     total cpu time spent up to now is        6.5 secs

     total energy              =    -502.31975467 Ry
     estimated scf accuracy    <       0.00088630 Ry

     iteration #  9     ecut=    30.00 Ry     beta= 0.50
     Davidson diagonalization with overlap
     ethr =  3.46E-07,  avg # of iterations =  3.0

     total cpu time spent up to now is        6.6 secs

     total energy              =    -502.31982461 Ry
     estimated scf accuracy    <       0.00047395 Ry

     iteration # 10     ecut=    30.00 Ry     beta= 0.50
     Davidson diagonalization with overlap
     ethr =  1.85E-07,  avg # of iterations =  2.0

     total cpu time spent up to now is        6.8 secs

     total energy              =    -502.31985493 Ry
     estimated scf accuracy    <       0.00010525 Ry

     iteration # 11     ecut=    30.00 Ry     beta= 0.50
     Davidson diagonalization with overlap
     ethr =  4.11E-08,  avg # of iterations =  3.0

     total cpu time spent up to now is        6.9 secs

     total energy              =    -502.31986715 Ry
     estimated scf accuracy    <       0.00001206 Ry

     iteration # 12     ecut=    30.00 Ry     beta= 0.50
     Davidson diagonalization with overlap
     ethr =  4.71E-09,  avg # of iterations =  5.0

     total cpu time spent up to now is        7.0 secs

     total energy              =    -502.31987032 Ry
     estimated scf accuracy    <       0.00000971 Ry

     iteration # 13     ecut=    30.00 Ry     beta= 0.50
     Davidson diagonalization with overlap
     ethr =  3.79E-09,  avg # of iterations =  3.0

     total cpu time spent up to now is        7.1 secs

     total energy              =    -502.31987073 Ry
     estimated scf accuracy    <       0.00000488 Ry

     iteration # 14     ecut=    30.00 Ry     beta= 0.50
     Davidson diagonalization with overlap
     ethr =  1.91E-09,  avg # of iterations =  2.0

     total cpu time spent up to now is        7.2 secs

     End of self-consistent calculation

          k = 0.0000 0.0000 0.0000 ( 12224 PWs)   bands (ev):

    -6.0824  -5.3218  -5.2534  -5.1929  -4.9808  -4.8796  -4.7473  -4.6026
    -4.4622  -4.2579  -4.1875  -4.1762  -4.0670  -3.8938  -3.8135  -3.7284
    -3.6807  -3.6566  -3.5697  -3.4822  -3.4226  -3.4110  -3.1441  -2.6416
    -2.2668  -2.0804  -2.0201  -2.0011  -1.9039  -1.8110  -1.7983  -1.7043
    -1.6813  -1.5457  -1.4994  -1.4557  -1.3954  -1.3157  -1.2799  -1.2066
    -1.1195  -1.0699  -0.8659  -0.7100  -0.5824  -0.0522   0.1963   0.2573
     0.3171   0.3925   0.4354   0.5492   0.6583   0.6897   0.8315   0.8712
     0.9420   1.5860   1.6726   1.7091   1.8199   1.8912   1.9654   2.0161
     2.0518   2.1251   2.1419   2.1863   2.2008   2.2337   2.2567   2.2789
     2.3246   2.3573   2.4014   2.4210   2.4766   2.5264   2.5352   2.5775
     2.6040   2.6747   2.6813   2.7511   2.7702   2.8092   2.9280   3.0067
     3.1151   3.3142   3.3777   3.4579   3.4880   3.5854   3.6885   3.7593
     3.9725   4.0065   4.1008   4.1123   4.1577   4.2066   4.2897   4.3547
     4.3628   4.4069   4.4739   4.5448   4.5641   4.5848   4.7222   4.8095
     4.8507   4.8889   4.9507   5.0029   5.0488   5.1053   5.1740   5.2353
     5.2787   5.3485   5.3585   5.5289   5.6752   5.9573   6.0583   6.1656
     6.2890   6.4653   6.5383   6.6186   6.7289   6.7918   6.8186   6.9243
     6.9943   7.0309   7.1359   7.1462   7.2318   7.2941   7.3497   7.4625
     7.6550   7.8167   7.8977   8.0175   8.1004   8.1208   8.2114   8.3057
     8.3342   8.3506

     the Fermi energy is     6.2287 ev

!    total energy              =    -502.31987096 Ry
     estimated scf accuracy    <       0.00000041 Ry
     smearing contrib. (-TS)   =      -0.07440031 Ry
     internal energy E=F+TS    =    -502.24547065 Ry

     The total energy is F=E-TS. E is the sum of the following terms:
     one-electron contribution =     138.94303154 Ry
     hartree contribution      =      39.90156737 Ry
     xc contribution           =    -153.52818462 Ry
     ewald contribution        =    -527.56188494 Ry

     convergence has been achieved in  14 iterations

     Forces acting on atoms (cartesian axes, Ry/au):

     atom    1 type  1   force =    -0.12609251    0.16410688    0.10205074
     atom    2 type  1   force =    -0.00704628   -0.05585206    0.02437783
     atom    3 type  1   force =     0.00868081    0.14849992   -0.06001751
     atom    4 type  1   force =     0.03243110   -0.01633820   -0.10003865
     atom    5 type  1   force =    -0.05559542   -0.05953484    0.05467765
     atom    6 type  1   force =    -0.07806022   -0.04817535   -0.10833814
     atom    7 type  1   force =     0.01028591    0.00295917   -0.06792720
     atom    8 type  1   force =     0.05725795    0.05219390    0.06828713
     atom    9 type  1   force =    -0.18412057    0.24283419    0.17971213
     atom   10 type  1   force =     0.03783597   -0.03253300    0.00362518
     atom   11 type  1   force =    -0.03740794   -0.02996955   -0.05643290
     atom   12 type  1   force =    -0.04923643    0.04039221    0.09426088
     atom   13 type  1   force =    -0.00177674    0.06014507   -0.03781528
     atom   14 type  1   force =     0.06472878   -0.08554914    0.01142608
     atom   15 type  1   force =     0.03078166    0.05909279   -0.07710195
     atom   16 type  1   force =     0.05163878   -0.05235211   -0.05692819
     atom   17 type  1   force =     0.03825661    0.02634006   -0.07994176
     atom   18 type  1   force =    -0.06446187   -0.01803040    0.03444890
     atom   19 type  1   force =     0.00915794   -0.02935541    0.01517613
     atom   20 type  1   force =    -0.07929044    0.04835247    0.08177901
     atom   21 type  1   force =     0.11143734   -0.12964799   -0.11259673
     atom   22 type  1   force =    -0.08858372    0.02612241    0.01270140
     atom   23 type  1   force =     0.00536213   -0.00040045   -0.02710426
     atom   24 type  1   force =     0.19104194   -0.18262407   -0.19953545
     atom   25 type  1   force =    -0.20270325    0.15120311    0.26526343
     atom   26 type  1   force =    -0.08802766    0.03327398    0.08774551
     atom   27 type  1   force =    -0.08475637    0.11248136   -0.20415045
     atom   28 type  1   force =     0.06146871   -0.06179523    0.03924940
     atom   29 type  1   force =     0.16957013    0.17362993   -0.17247589
     atom   30 type  1   force =    -0.06896999    0.06319930   -0.09170480
     atom   31 type  1   force =     0.01549671   -0.01062109   -0.05447857
     atom   32 type  1   force =     0.00742789   -0.03675015    0.07578812
     atom   33 type  1   force =     0.00742613    0.01999594    0.03493978
     atom   34 type  1   force =    -0.08986029   -0.14226031   -0.07452922
     atom   35 type  1   force =     0.11139941    0.06000496    0.10131792
     atom   36 type  1   force =     0.04360446    0.01510543   -0.06648699
     atom   37 type  1   force =     0.01790755    0.03688458   -0.02232724
     atom   38 type  1   force =    -0.02123641    0.06400463    0.01592085
     atom   39 type  1   force =    -0.05636284   -0.02068516    0.04912222
     atom   40 type  1   force =     0.01440064    0.06910613    0.02288233
     atom   41 type  1   force =     0.04924882    0.07812078    0.02708955
     atom   42 type  1   force =     0.00218690    0.01876765   -0.01003420
     atom   43 type  1   force =     0.03998082   -0.22926875   -0.10825763
     atom   44 type  1   force =     0.00549667    0.03104785   -0.04276376
     atom   45 type  1   force =    -0.03919360   -0.04020763    0.09030426
     atom   46 type  1   force =    -0.12907610   -0.14501387    0.08270940
     atom   47 type  1   force =    -0.05366493   -0.08498742   -0.07749198
     atom   48 type  1   force =     0.18655492   -0.08628375   -0.09373120
     atom   49 type  1   force =    -0.05596891    0.05784790    0.03557576
     atom   50 type  1   force =     0.09888295   -0.07646186    0.08748963
     atom   51 type  1   force =     0.06834110    0.06957463    0.10532572
     atom   52 type  1   force =    -0.20563995   -0.22946473   -0.22223449
     atom   53 type  1   force =    -0.01534416    0.11562538    0.16147499
     atom   54 type  1   force =    -0.00135543    0.00241935   -0.00737620
     atom   55 type  1   force =    -0.07050752   -0.03108118    0.05671321
     atom   56 type  1   force =     0.00947643   -0.03848367   -0.08882294
     atom   57 type  1   force =     0.19237353    0.23930015    0.22220798
     atom   58 type  1   force =     0.09433342   -0.02867181   -0.01761379
     atom   59 type  1   force =     0.04236826   -0.03888638   -0.00059673
     atom   60 type  1   force =     0.03202125    0.00520956    0.01071098
     atom   61 type  1   force =    -0.03676756    0.02023694    0.09687922
     atom   62 type  1   force =     0.10296083   -0.17927823   -0.11443762
     atom   63 type  1   force =    -0.00368174   -0.08130353    0.02006040
     atom   64 type  1   force =    -0.02703559   -0.00621132    0.08199797

     Total force =     1.277821     Total SCF correction =     0.001161


     Computing stress (Cartesian axis) and pressure

          total   stress  (Ry/bohr**3)                   (kbar)     P=       46.57
   0.00031532  -0.00003675  -0.00019540           46.38       -5.41      -28.74
  -0.00003675   0.00029148   0.00022589           -5.41       42.88       33.23
  -0.00019540   0.00022589   0.00034287          -28.74       33.23       50.44

 
     init_run     :      1.20s CPU      5.10s WALL (       1 calls)
     electrons    :      1.91s CPU      2.05s WALL (       1 calls)
     forces       :      0.04s CPU      0.05s WALL (       1 calls)
     stress       :      0.16s CPU      0.17s WALL (       1 calls)

     Called by init_run:
     wfcinit      :      0.55s CPU      4.27s WALL (       1 calls)
                                        4.27s GPU  (       1 calls)
     potinit      :      0.21s CPU      0.31s WALL (       1 calls)
     hinit0       :      0.42s CPU      0.45s WALL (       1 calls)

     Called by electrons:
     c_bands      :      1.24s CPU      1.30s WALL (      15 calls)
     sum_band     :      0.35s CPU      0.39s WALL (      15 calls)
     v_of_rho     :      0.17s CPU      0.27s WALL (      15 calls)
     mix_rho      :      0.14s CPU      0.16s WALL (      15 calls)

     Called by c_bands:
     init_us_2    :      0.06s CPU      0.06s WALL (      31 calls)
     init_us_2:gp :      0.05s CPU      0.06s WALL (      31 calls)
     regterg      :      1.10s CPU      1.15s WALL (      15 calls)

     Called by *egterg:
     rdiaghg      :      0.45s CPU      1.21s WALL (     100 calls)
                                        1.19s GPU  (     100 calls)
     h_psi        :      1.02s CPU      4.01s WALL (     102 calls)
                                        4.00s GPU  (     102 calls)
     g_psi        :      0.00s CPU      0.00s WALL (      86 calls)
                                        0.00s GPU  (      86 calls)

     Called by h_psi:
     h_psi:calbec :      0.50s CPU      3.41s WALL (     102 calls)
                                        3.41s GPU  (     102 calls)
     vloc_psi     :      0.46s CPU      0.53s WALL (     102 calls)
                                        0.53s GPU  (     102 calls)
     add_vuspsi   :      0.04s CPU      0.06s WALL (     102 calls)
                                        0.06s GPU  (     102 calls)

     General routines
     calbec       :      0.50s CPU      3.41s WALL (     107 calls)
     fft          :      0.52s CPU      0.67s WALL (     127 calls)
                                        0.14s GPU  (      81 calls)
     ffts         :      0.05s CPU      0.05s WALL (      15 calls)
     fftw         :      0.51s CPU      0.67s WALL (    1657 calls)
                                        0.60s GPU  (    1657 calls)
 
     Parallel routines
 
     PWSCF        :      3.36s CPU      7.44s WALL

 
   This run was terminated on:  11:42:13  10May2023            

=------------------------------------------------------------------------------=
   JOB DONE.
=------------------------------------------------------------------------------=
