An instance of this daemon is already running

     Program PWSCF v.7.1 starts on 10May2023 at 11:33:23 

     This program is part of the open-source Quantum ESPRESSO suite
     for quantum simulation of materials; please cite
         "P. Giannozzi et al., J. Phys.:Condens. Matter 21 395502 (2009);
         "P. Giannozzi et al., J. Phys.:Condens. Matter 29 465901 (2017);
         "P. Giannozzi et al., J. Chem. Phys. 152 154105 (2020);
          URL http://www.quantum-espresso.org", 
     in publications or presentations arising from this work. More details at
     http://www.quantum-espresso.org/quote

     Parallel version (MPI & OpenMP), running on       4 processor cores
     Number of MPI processes:                 4
     Threads/MPI process:                     1

     MPI processes distributed on     1 nodes
     706967 MiB available memory on the printing compute node when the environment starts
 
     Reading input from pw-si-19.in
Warning: card &CELL ignored
Warning: card / ignored

     Current dimensions of program PWSCF are:
     Max number of different atomic species (ntypx) = 10
     Max number of k-points (npk) =  40000
     Max angular momentum in pseudopotentials (lmaxx) =  4

     IMPORTANT: XC functional enforced from input :
     Exchange-correlation= PBE
                           (   1   4   3   4   0   0   0)
     Any further DFT definition will be discarded
     Please, verify this is what you really want


     gamma-point specific algorithms are used
 
     K-points division:     npool     =       2
     R & G space division:  proc/nbgrp/npool/nimage =       2
     Subspace diagonalization in iterative solution of the eigenvalue problem:
     a serial algorithm will be used

     Message from routine divide_et_impera:
     suboptimal parallelization: some nodes have no k-points
 
     Parallelization info
     --------------------
     sticks:   dense  smooth     PW     G-vecs:    dense   smooth      PW
     Min        2192    2192    576               106848   106848   14452
     Max        2193    2193    577               106853   106853   14457
     Sum        4385    4385   1153               213701   213701   28909
 
     Using Slab Decomposition
 


     bravais-lattice index     =            0
     lattice parameter (alat)  =      21.4614  a.u.
     unit-cell volume          =    9626.4982 (a.u.)^3
     number of atoms/cell      =           64
     number of atomic types    =            1
     number of electrons       =       256.00
     number of Kohn-Sham states=          154
     kinetic-energy cutoff     =      30.0000  Ry
     charge density cutoff     =     120.0000  Ry
     scf convergence threshold =      1.0E-06
     mixing beta               =       0.5000
     number of iterations used =            8  plain     mixing
     Exchange-correlation= PBE
                           (   1   4   3   4   0   0   0)

     GPU acceleration is ACTIVE.
     GPU-aware MPI enabled

     Message from routine print_cuda_info:
     High GPU oversubscription detected. Are you sure this is what you want?

     celldm(1)=  21.461413  celldm(2)=   0.000000  celldm(3)=   0.000000
     celldm(4)=   0.000000  celldm(5)=   0.000000  celldm(6)=   0.000000

     crystal axes: (cart. coord. in units of alat)
               a(1) = (   1.000000   0.000000   0.000000 )  
               a(2) = (   0.000000   0.995747   0.000000 )  
               a(3) = (   0.000000   0.000000   0.978013 )  

     reciprocal axes: (cart. coord. in units 2 pi/alat)
               b(1) = (  1.000000  0.000000  0.000000 )  
               b(2) = (  0.000000  1.004272  0.000000 )  
               b(3) = (  0.000000  0.000000  1.022481 )  


     PseudoPot. # 1 for Si read from file:
     /home/ppiaggi/pseudos/Si_ONCV_PBE_sr.upf
     MD5 check sum: 8553c464762ac42b85b1eed164b4d029
     Pseudo is Norm-conserving, Zval =  4.0
     Generated using ONCVPSP code by D. R. Hamann
     Using radial grid of 1510 points,  4 beta functions with: 
                l(1) =   0
                l(2) =   0
                l(3) =   1
                l(4) =   1

     atomic species   valence    mass     pseudopotential
        Si             4.00    28.08500     Si( 1.00)

     No symmetry found



   Cartesian axes

     site n.     atom                  positions (alat units)
         1           Si  tau(   1) = (   0.0174845   0.0021173   0.0101802  )
         2           Si  tau(   2) = (  -0.0175812   0.2420587   0.2457217  )
         3           Si  tau(   3) = (   0.2642426   0.0112170   0.2577189  )
         4           Si  tau(   4) = (   0.2651802   0.2489500   0.0031994  )
         5           Si  tau(   5) = (   0.1345552   0.1284748   0.1347415  )
         6           Si  tau(   6) = (   0.5249345  -0.0084204   0.0114993  )
         7           Si  tau(   7) = (   0.4985158   0.2740465   0.2618274  )
         8           Si  tau(   8) = (   0.6530833   0.1288524   0.1225094  )
         9           Si  tau(   9) = (   0.7535976  -0.0000838   0.2363135  )
        10           Si  tau(  10) = (   0.7451228   0.2671078  -0.0066062  )
        11           Si  tau(  11) = (   0.0062953   0.4943120  -0.0007585  )
        12           Si  tau(  12) = (   0.2371236   0.5090339   0.2670193  )
        13           Si  tau(  13) = (   0.1405485   0.6229881   0.1350137  )
        14           Si  tau(  14) = (   0.3666853   0.3723586   0.1430426  )
        15           Si  tau(  15) = (   0.5068069   0.5203978   0.0117626  )
        16           Si  tau(  16) = (   0.6314972   0.6269608   0.1426831  )
        17           Si  tau(  17) = (   0.9009245   0.3821100   0.1111336  )
        18           Si  tau(  18) = (   0.7520816   0.5056395   0.2518861  )
        19           Si  tau(  19) = (  -0.0087999   0.7826376   0.2619484  )
        20           Si  tau(  20) = (   0.2645729   0.7699027   0.0023586  )
        21           Si  tau(  21) = (   0.3811029   0.8819654   0.1162122  )
        22           Si  tau(  22) = (   0.4933414   0.7611727   0.2480452  )
        23           Si  tau(  23) = (   0.7678954   0.7823100   0.0155901  )
        24           Si  tau(  24) = (   0.8887918   0.8960100   0.1305149  )
        25           Si  tau(  25) = (  -0.0096206  -0.0150465   0.5038775  )
        26           Si  tau(  26) = (   0.2568358   0.2709165   0.5143863  )
        27           Si  tau(  27) = (   0.1098007   0.1394231   0.6155552  )
        28           Si  tau(  28) = (   0.3719169   0.1402458   0.3788013  )
        29           Si  tau(  29) = (   0.4957087   0.0066863   0.5104011  )
        30           Si  tau(  30) = (   0.6303107   0.1121687   0.6477762  )
        31           Si  tau(  31) = (   0.8873349   0.1098669   0.3909296  )
        32           Si  tau(  32) = (   0.7668205   0.2645391   0.4981113  )
        33           Si  tau(  33) = (   0.1294507   0.4012863   0.3711070  )
        34           Si  tau(  34) = (  -0.0079765   0.4981549   0.4929399  )
        35           Si  tau(  35) = (   0.1425501   0.6385743   0.6428109  )
        36           Si  tau(  36) = (   0.6322777   0.3777377   0.3782290  )
        37           Si  tau(  37) = (   0.3734363   0.6245308   0.3603101  )
        38           Si  tau(  38) = (   0.3640409   0.3679345   0.6442533  )
        39           Si  tau(  39) = (   0.5015295   0.4982708   0.4935921  )
        40           Si  tau(  40) = (   0.6505032   0.6302515   0.6457934  )
        41           Si  tau(  41) = (   0.8948430   0.6540487   0.3608366  )
        42           Si  tau(  42) = (   0.9030317   0.3751292   0.6124216  )
        43           Si  tau(  43) = (   0.1221176   0.8981047   0.3813532  )
        44           Si  tau(  44) = (   0.2377807   0.7829251   0.5060807  )
        45           Si  tau(  45) = (   0.6454292   0.9109331   0.3804870  )
        46           Si  tau(  46) = (   0.3674710   0.8991639   0.6402285  )
        47           Si  tau(  47) = (   0.7569592   0.7740235   0.5078068  )
        48           Si  tau(  48) = (   0.8968609   0.9110169   0.6259855  )
        49           Si  tau(  49) = (  -0.0002089   0.2670558   0.7468213  )
        50           Si  tau(  50) = (   0.2684651  -0.0114719   0.7463827  )
        51           Si  tau(  51) = (   0.3698880   0.1149954   0.9001496  )
        52           Si  tau(  52) = (   0.5102713   0.2553658   0.7418310  )
        53           Si  tau(  53) = (   0.7784847   0.0047694   0.7692449  )
        54           Si  tau(  54) = (   0.8941327   0.1383718   0.8722619  )
        55           Si  tau(  55) = (   0.1264751   0.3930229   0.8952865  )
        56           Si  tau(  56) = (   0.2490482   0.5284143   0.7439885  )
        57           Si  tau(  57) = (   0.6199675   0.3981660   0.8709438  )
        58           Si  tau(  58) = (   0.3787283   0.6258979   0.8850213  )
        59           Si  tau(  59) = (   0.7528982   0.4982286   0.7527537  )
        60           Si  tau(  60) = (   0.8762341   0.6483390   0.8830254  )
        61           Si  tau(  61) = (  -0.0020854   0.7618314   0.7388882  )
        62           Si  tau(  62) = (   0.1359849   0.8933734   0.8709831  )
        63           Si  tau(  63) = (   0.5022072   0.7774526   0.7590568  )
        64           Si  tau(  64) = (   0.6404948   0.9101425   0.8861902  )

     number of k points=     1  Fermi-Dirac smearing, width (Ry)=  0.0100
                       cart. coord. in units 2pi/alat
        k(    1) = (   0.0000000   0.0000000   0.0000000), wk =   2.0000000

     Dense  grid:   106851 G-vectors     FFT dimensions: (  75,  75,  75)

     Estimated max dynamical RAM per process >     170.55 MB

     Estimated total dynamical RAM >     656.11 MB

     Initial potential from superposition of free atoms

     starting charge     255.9608, renormalised to     256.0000
     Starting wfcs are  256 randomized atomic wfcs

     total cpu time spent up to now is        5.1 secs

     Self-consistent Calculation

     iteration #  1     ecut=    30.00 Ry     beta= 0.50
     Davidson diagonalization with overlap
     ethr =  1.00E-02,  avg # of iterations =  3.0

     Threshold (ethr) on eigenvalues was too large:
     Diagonalizing with lowered threshold

     Davidson diagonalization with overlap
     ethr =  6.20E-04,  avg # of iterations =  4.0

     total cpu time spent up to now is        5.4 secs

     total energy              =    -502.12408954 Ry
     estimated scf accuracy    <       1.82377559 Ry

     iteration #  2     ecut=    30.00 Ry     beta= 0.50
     Davidson diagonalization with overlap
     ethr =  7.12E-04,  avg # of iterations =  2.0

     total cpu time spent up to now is        5.5 secs

     total energy              =    -502.02864044 Ry
     estimated scf accuracy    <       0.83909411 Ry

     iteration #  3     ecut=    30.00 Ry     beta= 0.50
     Davidson diagonalization with overlap
     ethr =  3.28E-04,  avg # of iterations =  9.0

     total cpu time spent up to now is        5.7 secs

     total energy              =    -501.95813180 Ry
     estimated scf accuracy    <       2.15069812 Ry

     iteration #  4     ecut=    30.00 Ry     beta= 0.50
     Davidson diagonalization with overlap
     ethr =  3.28E-04,  avg # of iterations =  3.0

     total cpu time spent up to now is        5.9 secs

     total energy              =    -502.22901244 Ry
     estimated scf accuracy    <       0.17370282 Ry

     iteration #  5     ecut=    30.00 Ry     beta= 0.50
     Davidson diagonalization with overlap
     ethr =  6.79E-05,  avg # of iterations =  5.0

     total cpu time spent up to now is        6.0 secs

     total energy              =    -502.24741501 Ry
     estimated scf accuracy    <       0.05725354 Ry

     iteration #  6     ecut=    30.00 Ry     beta= 0.50
     Davidson diagonalization with overlap
     ethr =  2.24E-05,  avg # of iterations = 15.0

     total cpu time spent up to now is        6.2 secs

     total energy              =    -502.25322294 Ry
     estimated scf accuracy    <       0.01920466 Ry

     iteration #  7     ecut=    30.00 Ry     beta= 0.50
     Davidson diagonalization with overlap
     ethr =  7.50E-06,  avg # of iterations =  6.0

     total cpu time spent up to now is        6.3 secs

     total energy              =    -502.25517387 Ry
     estimated scf accuracy    <       0.00188228 Ry

     iteration #  8     ecut=    30.00 Ry     beta= 0.50
     Davidson diagonalization with overlap
     ethr =  7.35E-07,  avg # of iterations =  5.0

     total cpu time spent up to now is        6.5 secs

     total energy              =    -502.25553930 Ry
     estimated scf accuracy    <       0.00171855 Ry

     iteration #  9     ecut=    30.00 Ry     beta= 0.50
     Davidson diagonalization with overlap
     ethr =  6.71E-07,  avg # of iterations =  3.0

     total cpu time spent up to now is        6.6 secs

     total energy              =    -502.25570750 Ry
     estimated scf accuracy    <       0.00066736 Ry

     iteration # 10     ecut=    30.00 Ry     beta= 0.50
     Davidson diagonalization with overlap
     ethr =  2.61E-07,  avg # of iterations =  2.0

     total cpu time spent up to now is        6.7 secs

     total energy              =    -502.25574911 Ry
     estimated scf accuracy    <       0.00008940 Ry

     iteration # 11     ecut=    30.00 Ry     beta= 0.50
     Davidson diagonalization with overlap
     ethr =  3.49E-08,  avg # of iterations =  5.0

     total cpu time spent up to now is        6.9 secs

     total energy              =    -502.25576284 Ry
     estimated scf accuracy    <       0.00002142 Ry

     iteration # 12     ecut=    30.00 Ry     beta= 0.50
     Davidson diagonalization with overlap
     ethr =  8.37E-09,  avg # of iterations =  5.0

     total cpu time spent up to now is        7.0 secs

     total energy              =    -502.25576735 Ry
     estimated scf accuracy    <       0.00000923 Ry

     iteration # 13     ecut=    30.00 Ry     beta= 0.50
     Davidson diagonalization with overlap
     ethr =  3.60E-09,  avg # of iterations =  2.0

     total cpu time spent up to now is        7.1 secs

     total energy              =    -502.25576808 Ry
     estimated scf accuracy    <       0.00000234 Ry

     iteration # 14     ecut=    30.00 Ry     beta= 0.50
     Davidson diagonalization with overlap
     ethr =  9.15E-10,  avg # of iterations =  4.0

     total cpu time spent up to now is        7.3 secs

     End of self-consistent calculation

          k = 0.0000 0.0000 0.0000 ( 13361 PWs)   bands (ev):

    -6.4913  -5.8588  -5.7309  -5.5979  -5.3799  -5.2895  -5.0880  -5.0761
    -4.9597  -4.8764  -4.7397  -4.7162  -4.5498  -4.4784  -4.4231  -4.2530
    -4.1896  -4.1689  -4.1260  -3.9997  -3.9105  -3.8424  -3.6465  -3.0792
    -2.9371  -2.8482  -2.7447  -2.6810  -2.5872  -2.4763  -2.4349  -2.3941
    -2.3571  -2.2919  -2.2592  -2.0407  -1.9962  -1.9518  -1.8656  -1.7686
    -1.7218  -1.5995  -1.4421  -1.4135  -1.0451  -0.6157  -0.5641  -0.5051
    -0.4262  -0.3349  -0.2904  -0.2067  -0.1582  -0.0263   0.0185   0.0851
     0.2792   0.9683   1.0486   1.0925   1.1090   1.2676   1.2847   1.3494
     1.4154   1.4361   1.5056   1.5587   1.5853   1.6017   1.6723   1.6887
     1.7314   1.7659   1.8022   1.8115   1.8552   1.8968   1.9574   2.0124
     2.0452   2.0621   2.1019   2.1669   2.2040   2.2347   2.2929   2.3470
     2.4160   2.4808   2.5717   2.6521   2.7298   2.8648   3.0376   3.0879
     3.1601   3.2280   3.3050   3.3388   3.3999   3.4346   3.4885   3.5560
     3.5759   3.6435   3.7301   3.8361   3.8971   3.9193   3.9637   4.0379
     4.0871   4.1394   4.1513   4.2001   4.2749   4.3372   4.4111   4.4597
     4.5191   4.5469   4.6588   4.7337   4.8121   5.1376   5.2744   5.4328
     5.4993   5.5137   5.5919   5.7631   5.8323   5.9383   5.9627   5.9984
     6.0705   6.1015   6.2531   6.2648   6.2996   6.3326   6.4222   6.6272
     6.7550   6.8203   6.8615   6.9888   7.0408   7.1019   7.1425   7.1897
     7.2626   7.3388

     the Fermi energy is     5.4007 ev

!    total energy              =    -502.25576806 Ry
     estimated scf accuracy    <       0.00000049 Ry
     smearing contrib. (-TS)   =      -0.08750972 Ry
     internal energy E=F+TS    =    -502.16825834 Ry

     The total energy is F=E-TS. E is the sum of the following terms:
     one-electron contribution =     114.07662182 Ry
     hartree contribution      =      44.40085671 Ry
     xc contribution           =    -150.85226976 Ry
     ewald contribution        =    -509.79346711 Ry

     convergence has been achieved in  14 iterations

     Forces acting on atoms (cartesian axes, Ry/au):

     atom    1 type  1   force =    -0.01765461    0.07903063    0.01817204
     atom    2 type  1   force =     0.07012161    0.01338188    0.01447794
     atom    3 type  1   force =    -0.02405057   -0.00454866   -0.02336814
     atom    4 type  1   force =    -0.08657129    0.07886405    0.08281277
     atom    5 type  1   force =    -0.00361902    0.01576709    0.00388510
     atom    6 type  1   force =    -0.17678408    0.17289157    0.16043881
     atom    7 type  1   force =     0.01854369   -0.07420836   -0.00935726
     atom    8 type  1   force =    -0.07425219    0.04713903   -0.00411854
     atom    9 type  1   force =     0.03504245    0.05482382    0.05501002
     atom   10 type  1   force =     0.06090978   -0.01287862    0.03280098
     atom   11 type  1   force =    -0.07692851    0.21266099    0.07629245
     atom   12 type  1   force =     0.09805470    0.02341235   -0.09714321
     atom   13 type  1   force =    -0.05123800    0.06329785   -0.04534011
     atom   14 type  1   force =     0.01411990    0.05564876   -0.02689670
     atom   15 type  1   force =    -0.00614753   -0.05564080    0.06602855
     atom   16 type  1   force =    -0.01146624    0.06549598   -0.02426213
     atom   17 type  1   force =    -0.13186696   -0.06054363    0.08284354
     atom   18 type  1   force =     0.06066586   -0.00387241    0.00041977
     atom   19 type  1   force =     0.10820518    0.00945945   -0.05344720
     atom   20 type  1   force =    -0.05450831   -0.05883479    0.01191347
     atom   21 type  1   force =     0.02732690    0.01768159    0.07329319
     atom   22 type  1   force =     0.03782276   -0.01146055    0.01554634
     atom   23 type  1   force =    -0.05369856   -0.05502923    0.01747372
     atom   24 type  1   force =     0.01010446   -0.02450621   -0.00586812
     atom   25 type  1   force =     0.19712010    0.18496000   -0.17772196
     atom   26 type  1   force =    -0.08061470   -0.05452055   -0.08766412
     atom   27 type  1   force =     0.04916012   -0.01412264    0.01300532
     atom   28 type  1   force =     0.03818392    0.01720445    0.04241358
     atom   29 type  1   force =     0.02155569    0.04459706   -0.02279947
     atom   30 type  1   force =     0.02020451    0.03336549   -0.04131734
     atom   31 type  1   force =    -0.07647040    0.07113966   -0.06279355
     atom   32 type  1   force =    -0.01746728   -0.06255652    0.01108464
     atom   33 type  1   force =    -0.08605412   -0.13679328    0.09928545
     atom   34 type  1   force =     0.07307052    0.10556817   -0.03940284
     atom   35 type  1   force =    -0.12220962    0.09313929   -0.13261939
     atom   36 type  1   force =     0.01720310    0.02289345    0.01088816
     atom   37 type  1   force =     0.02724243    0.04681039    0.07289770
     atom   38 type  1   force =     0.06090545    0.07971241    0.00113091
     atom   39 type  1   force =    -0.00513570    0.02096251    0.03751258
     atom   40 type  1   force =    -0.07539514    0.05762553   -0.07010380
     atom   41 type  1   force =    -0.11450796   -0.10164558    0.10193516
     atom   42 type  1   force =    -0.10889052    0.00915117    0.04636319
     atom   43 type  1   force =     0.03530390   -0.03085278   -0.03672981
     atom   44 type  1   force =     0.04408474   -0.06660462    0.01362153
     atom   45 type  1   force =    -0.06683226   -0.08061609    0.03540909
     atom   46 type  1   force =     0.20550481   -0.20874452   -0.22730468
     atom   47 type  1   force =     0.02930555   -0.01274006   -0.01131800
     atom   48 type  1   force =    -0.20116673   -0.21498875    0.21790311
     atom   49 type  1   force =     0.06227661   -0.02207737    0.04025978
     atom   50 type  1   force =    -0.21937254    0.24743545    0.20997648
     atom   51 type  1   force =     0.09385055   -0.06514641   -0.11276954
     atom   52 type  1   force =    -0.02055625   -0.00246627    0.05696793
     atom   53 type  1   force =    -0.02758920    0.04450127   -0.04262028
     atom   54 type  1   force =    -0.02014741    0.01952097    0.01406607
     atom   55 type  1   force =     0.14931481   -0.12519578   -0.17838670
     atom   56 type  1   force =     0.09123003   -0.13546890    0.12264588
     atom   57 type  1   force =    -0.00843439   -0.04970473   -0.03027064
     atom   58 type  1   force =    -0.01350942    0.07132430   -0.08093255
     atom   59 type  1   force =     0.07341035    0.01168031    0.00245944
     atom   60 type  1   force =     0.01802062   -0.04107386   -0.05558031
     atom   61 type  1   force =     0.02578557    0.00317377    0.04384721
     atom   62 type  1   force =    -0.00035262   -0.08357174   -0.05112941
     atom   63 type  1   force =     0.02410419   -0.04035361    0.01314292
     atom   64 type  1   force =     0.13573726   -0.18355340   -0.16695902

     Total force =     1.170480     Total SCF correction =     0.001261


     Computing stress (Cartesian axis) and pressure

          total   stress  (Ry/bohr**3)                   (kbar)     P=      -17.53
  -0.00012073  -0.00012729  -0.00016140          -17.76      -18.72      -23.74
  -0.00012729  -0.00017893  -0.00005007          -18.72      -26.32       -7.37
  -0.00016140  -0.00005007  -0.00005777          -23.74       -7.37       -8.50

 
     init_run     :      1.00s CPU      5.03s WALL (       1 calls)
     electrons    :      2.02s CPU      2.16s WALL (       1 calls)
     forces       :      0.04s CPU      0.05s WALL (       1 calls)
     stress       :      0.18s CPU      0.18s WALL (       1 calls)

     Called by init_run:
     wfcinit      :      0.56s CPU      4.42s WALL (       1 calls)
                                        4.42s GPU  (       1 calls)
     potinit      :      0.23s CPU      0.30s WALL (       1 calls)
     hinit0       :      0.19s CPU      0.22s WALL (       1 calls)

     Called by electrons:
     c_bands      :      1.27s CPU      1.33s WALL (      15 calls)
     sum_band     :      0.38s CPU      0.43s WALL (      15 calls)
     v_of_rho     :      0.18s CPU      0.27s WALL (      15 calls)
     mix_rho      :      0.16s CPU      0.17s WALL (      15 calls)

     Called by c_bands:
     init_us_2    :      0.06s CPU      0.06s WALL (      31 calls)
     init_us_2:gp :      0.05s CPU      0.06s WALL (      31 calls)
     regterg      :      1.14s CPU      1.19s WALL (      15 calls)

     Called by *egterg:
     rdiaghg      :      0.41s CPU      1.21s WALL (      87 calls)
                                        1.19s GPU  (      87 calls)
     h_psi        :      1.10s CPU      4.20s WALL (      89 calls)
                                        4.20s GPU  (      89 calls)
     g_psi        :      0.00s CPU      0.00s WALL (      73 calls)
                                        0.00s GPU  (      73 calls)

     Called by h_psi:
     h_psi:calbec :      0.50s CPU      3.52s WALL (      89 calls)
                                        3.52s GPU  (      89 calls)
     vloc_psi     :      0.55s CPU      0.62s WALL (      89 calls)
                                        0.62s GPU  (      89 calls)
     add_vuspsi   :      0.04s CPU      0.05s WALL (      89 calls)
                                        0.05s GPU  (      89 calls)

     General routines
     calbec       :      0.50s CPU      3.52s WALL (      94 calls)
     fft          :      0.33s CPU      0.45s WALL (     127 calls)
                                        0.12s GPU  (      81 calls)
     ffts         :      0.06s CPU      0.06s WALL (      15 calls)
     fftw         :      0.58s CPU      0.77s WALL (    1627 calls)
                                        0.70s GPU  (    1627 calls)
 
     Parallel routines
 
     PWSCF        :      3.28s CPU      7.50s WALL

 
   This run was terminated on:  11:33:30  10May2023            

=------------------------------------------------------------------------------=
   JOB DONE.
=------------------------------------------------------------------------------=
