LAMMPS data file via write_data, version 23 Jun 2022, timestep = 1000

64 atoms
1 atom types

-0.19064790660664865 11.052047906606898 xlo xhi
-0.19064790660664865 11.052047906606898 ylo yhi
-0.19064790660664865 11.052047906606898 zlo zhi

Masses

1 28.0855

Atoms # atomic

52 1 0.7179212268519326 0.2972010596396946 4.882362482129048 0 0 0
53 1 4.378178274514528 5.20168315429298 3.9294243819774852 0 0 0
32 1 3.633274677598968 2.581794600618592 4.108676213287239 0 0 0
26 1 2.2773975972135587 1.840613002176898 1.9343171282662563 0 0 0
17 1 4.7706342312096135 1.9874063954231866 1.2674870311679105 0 0 0
54 1 0.7297427572792753 3.924859791295007 1.7639883714495321 0 0 1
40 1 1.8834574979331893 4.401089318793451 3.513244746477181 1 0 0
24 1 3.4884392663116706 4.061253152560477 0.7479186029718276 0 0 1
48 1 1.3719601308963032 2.4411914756083726 4.741743337585129 0 0 0
7 1 -0.15447151589100372 2.1406876134428305 0.35953447853819775 1 1 0
10 1 3.3748022277197762 0.3300242898724668 -0.062112063864669054 1 1 1
49 1 8.6799062400823 3.37473456679852 2.067485932806217 0 0 0
55 1 5.91676629490414 3.090549845496414 3.173706017352068 0 0 0
4 1 7.6289158631968625 5.107098492788446 3.277254280004805 0 0 0
28 1 7.599527196051288 0.7159679993486898 2.6285082369464883 0 1 0
42 1 9.112189054753298 3.774663378021828 -0.07239560013282274 0 0 0
14 1 10.478318522083505 1.8726608430212188 3.0620737201055506 0 0 0
30 1 7.846008028610391 2.58468174798892 4.575390078417228 0 0 0
51 1 10.426357305152784 4.807957088205081 4.275352672693648 -1 0 0
61 1 9.90496633369968 0.34825227327472785 1.3701619314929427 0 1 1
25 1 0.9564660947198975 7.216483655226901 2.321979577569079 0 0 0
43 1 1.8549481095327343 9.34670463190993 2.4496272031181703 0 -1 1
64 1 4.421810406685131 8.949985536618126 3.66785371083891 0 0 0
29 1 4.98121083470021 8.251474311393068 1.5435273357032528 0 -1 0
44 1 2.40138028541142 7.137287902025714 4.055500334067273 0 0 0
57 1 3.418397796360814 6.437847360866099 1.842202238303555 0 0 0
8 1 2.585147090640727 9.29521291835201 0.3554297884105636 0 -1 0
41 1 2.7479069889581513 10.517042427361893 3.990637691751987 0 0 0
2 1 8.141066451369998 6.332692399418929 0.9409305451136065 0 1 0
38 1 10.516726013797516 9.062054250535834 3.48948768555364 0 0 1
50 1 6.8979255458478645 7.586498205698093 3.5493114465317124 0 0 0
3 1 8.303876289041241 9.393583943049904 4.347042182778044 0 0 0
60 1 10.61300268337521 6.923907822974443 5.267618618792688 0 0 0
9 1 6.448626886506628 10.106394759265793 2.1408539802336266 0 -1 1
35 1 9.454036738209748 8.155593337291226 0.9419604675154918 0 0 1
45 1 1.179192184629099 4.0146893298289665 7.709647997966114 0 0 -1
31 1 3.925758653484433 3.9315803235109517 6.625540718414002 0 0 1
21 1 4.89355089192239 1.6938243587150221 8.058150916998969 0 0 0
56 1 1.279164051135189 3.024828281898336 9.933568004820472 0 0 0
36 1 3.9865136221282897 3.7137953136164628 9.16964910882184 0 0 0
20 1 3.029283667797706 1.339149930072674 9.181893315937725 0 0 -1
6 1 1.7931231570053265 5.202148538407417 10.200656420608826 0 0 0
5 1 9.862555215925912 1.6213787841952636 5.73116933093224 -1 0 0
34 1 5.6701516855819225 4.834699743657944 10.6280091382622 0 0 0
1 1 9.991092321362412 3.807012315551477 6.418324119669075 0 -1 0
18 1 9.204048738088293 2.858456372779766 8.319843342002251 0 0 -1
13 1 6.18384974276418 3.2597290630067914 6.83431189257787 0 0 0
15 1 7.4095187250460075 2.5971700810853955 10.219973330388274 0 0 0
11 1 10.415485787028302 1.0522712470403557 9.225412387053382 0 1 0
16 1 7.59840742436703 4.8887191611373035 6.244948103724939 0 1 0
23 1 3.9218619878993524 9.844844761183637 6.188308331587673 0 0 0
12 1 0.431692972468653 6.927866795946266 10.861284063033619 1 0 -1
62 1 1.2798543856899052 10.77724436845087 9.637796579517488 0 0 0
58 1 0.14088488344782035 6.5568172120140025 8.129784621578299 1 0 0
46 1 4.3378936987703565 8.205227867476783 7.734032810092392 0 0 0
47 1 5.00413275118243 5.81680529039492 8.43583876403823 0 0 -1
37 1 2.7953540885339154 7.397510921213332 9.93798817407012 0 -1 0
33 1 1.8166407511270788 8.35693645206086 6.99430670911195 0 0 0
39 1 5.673721965609617 10.410241815986808 7.654109379470892 0 0 0
63 1 7.473870796646374 5.600031989881394 9.557803420928746 0 0 -1
27 1 10.162989371439398 10.235011181941097 10.439137256654028 0 0 -1
22 1 8.751923390962745 6.957531250410988 7.045887930942051 0 -1 0
59 1 7.728250613630823 8.080116907469893 10.551357621227535 0 0 0
19 1 7.433927114771628 8.878795126022958 6.4064748215058716 0 0 0

Velocities

52 -18.09079443838072 -4.676777639679263 -2.0563963706111825
53 7.0091716028958295 4.569319970948751 -11.43053663352361
32 7.494285693751831 -5.61309491615397 9.953140744755556
26 -9.596757583286175 -2.6410571342153504 6.542690909856147
17 5.568553042468112 4.754961457142922 3.397904549579067
54 -4.906645670571172 3.6538368737121076 1.7321975156654394
40 2.845259964209688 -13.638543598424253 -3.6560756094926776
24 -5.854777243698185 -8.769823829516309 -2.6557923325123793
48 -14.931597253037928 5.878547931789211 2.544106957190487
7 12.857174261096644 0.7821889262107317 4.551577457468798
10 1.0396408328125473 -1.7365800148784245 8.606547763670653
49 3.9402188567389618 0.8992348583777869 7.594738632170917
55 9.651273628919665 -0.1957530478641111 3.313526013611201
4 -8.119191577453735 16.814349026535112 -0.6093366030670999
28 11.46076400035197 -5.770719814961994 -6.05495036197495
42 6.742443339072469 4.4985419474361406 1.5794991798754512
14 8.188169291766858 -4.982471790817776 -2.381474064605627
30 -11.41582096375121 -1.6507793032118854 7.364137021746981
51 6.278415060822883 -4.171181724976199 -4.12333058775529
61 4.025901282351457 11.408447558452824 2.592160518240621
25 -6.941888129906011 5.24696955445174 2.6573985290275903
43 -6.758791166586573 -2.1666290348035995 0.9960739310198337
64 0.9023618521782159 -5.0456519768981325 0.9169234551041622
29 2.4934171621725736 1.719680619682655 8.397074408434811
44 -3.6152123749302776 8.845019871252797 3.1182881263300026
57 -9.61124899313719 3.128314420483918 -0.06264794525784145
8 0.5395704057473503 2.498528485191763 15.632317240691762
41 8.282313406838519 6.923482609339328 3.79579004939011
2 -8.856233449844881 -3.0289135372579548 2.0750597809120555
38 2.4560591985719338 0.3521585211582247 -4.140808279403427
50 -8.24023460622384 -2.13093541151961 -8.879343651226286
3 5.6552514996185606 -3.6512548071666973 3.048896876700407
60 -3.161884732890767 -13.649294411653555 12.522085597748859
9 -1.793329083318325 3.3444220458280975 -9.803856649719144
35 -3.0026540628749987 1.7518697096477727 7.714428263704858
45 -5.541745014069998 -10.495495125140565 10.533319202486737
31 9.733248363075875 10.329456085136481 -8.353716256164384
21 3.550666974339884 0.7789146676475175 1.3589794080505537
56 3.8962329953510006 6.735882749639862 -3.6281438829695913
36 -5.482546163088474 7.778328369481331 12.658636817211262
20 8.105872382925913 -3.634584483892172 -6.16978332766929
6 -3.3359469352766435 6.632064697113511 10.890702531150552
5 9.174088391899275 -7.974113426419902 -0.04443557174002523
34 2.8655389821339288 13.952100033850016 -10.41228331784789
1 -3.3505426958519577 -10.93087539783733 -10.23281868841691
18 2.332043468712826 -2.6547993350200985 -6.462111433598254
13 5.668832043114383 -4.458264638151506 -11.048532970940895
15 2.175267018769981 5.058389455647949 -8.04131075308073
11 -15.903317640240559 -9.414711613939557 -11.320392954091528
16 0.6427855738109147 5.747011096200097 0.9157504661727457
23 -7.87177438495082 -2.9206243116778605 14.894442827543338
12 -5.9958329095059835 -5.461028713694086 -6.3593527774175165
62 -1.4656888320382855 0.5586152447533306 -0.9400969291369964
58 10.033312644800452 -10.192574415718163 -2.0034410588247153
46 3.367034167810406 5.297375170183792 0.8760620069644381
47 -0.9014090792836903 -2.0449069692319672 -7.3007053765553565
37 -3.1911491579240163 1.7734204608626256 -15.14667885010745
33 12.11570526263102 -10.267695845479379 6.848832365094479
39 -5.037051598883469 3.70796592797435 -8.595541592988758
63 16.45591319206279 4.413885617978421 -2.78837996495176
27 -7.024348548927653 2.233997068386136 -0.09779984441968062
22 -12.614035754753273 3.463384303162873 1.5844623290486026
59 -2.2945534364936147 4.139230875048109 -5.18308051396489
19 7.36021763735578 -5.700759940506653 -1.2245963225823149
