LAMMPS data file via write_data, version 23 Jun 2022, timestep = 1000

64 atoms
1 atom types

-0.0010620985549349982 10.862462098555156 xlo xhi
-0.0010620985549349982 10.862462098555156 ylo yhi
-0.0010620985549349982 10.862462098555156 zlo zhi

Masses

1 28.0855

Atoms # atomic

5 1 4.079751755218645 2.482099456681176 4.839033823398798 0 0 0
52 1 1.7040912309166796 1.1312530508003726 3.230394062506922 0 0 0
25 1 3.461153681226534 4.4031698603384966 2.6229061015485557 0 0 0
53 1 4.292411686443889 2.419878752675866 2.0098824316198556 0 0 0
32 1 0.2538824686623188 3.766527426222335 4.671121508620778 0 0 0
26 1 0.6045039426222386 2.7770093868158905 2.026996538039784 0 0 0
43 1 1.7726940014312944 1.2521319465307867 0.6976266881514257 0 0 1
17 1 5.674035821907068 0.6142909589170057 2.680517613701322 0 0 0
49 1 8.788852467797653 3.081685209096251 1.463081912574959 0 0 0
55 1 6.1899204849849285 3.691838337787043 5.2310721140569365 0 0 0
4 1 8.28247098019942 5.233100152863366 2.4655736527012704 0 0 0
28 1 8.125597855884006 0.2267157811498893 3.2585125855000174 0 1 0
34 1 6.535580303622988 2.4747744621738934 0.2617421608323419 0 0 1
2 1 6.431196206436035 3.375287797490044 2.4770813762213213 0 1 0
38 1 8.823371387030718 0.7276291445391871 0.8394460684373428 0 1 1
45 1 2.345320390245354 7.190583655703092 2.7527946337809093 0 0 0
23 1 3.4583531867368396 8.953770612372075 4.014016196320045 0 0 0
64 1 4.460507015000158 5.710107819936222 0.9316777726718127 0 0 0
12 1 0.4117552397173867 8.584300475036414 1.1002957574627177 1 0 0
31 1 0.4726386159798555 5.759254539513149 2.3707052509775326 0 0 1
39 1 4.208585248579707 5.508397734585329 4.680586650969312 0 0 0
54 1 2.430171572639782 9.721270281009001 1.845046808191546 0 0 1
29 1 6.854749122021284 8.258883258221736 1.6928772402312982 0 -1 0
44 1 9.995726654561867 8.613270660667585 3.2704192648966397 -1 0 0
57 1 5.7085924318034555 7.016985702005613 3.627738269922409 0 0 0
63 1 9.410708250794126 7.05300923663432 1.5866236799415756 0 0 0
50 1 5.692669192190122 9.442076179866977 3.847940040570561 0 0 0
3 1 10.29025592796404 10.506765543874192 4.222334827871256 0 0 0
1 1 6.981151232347066 8.125230553815946 5.351447881438031 0 -1 0
60 1 8.6397256752822 6.814772544631234 4.606822811633553 0 0 0
40 1 0.7010813530284787 2.9561535384939233 7.098390232708225 1 0 0
24 1 3.942296545890001 4.078931184088887 10.483977569719546 0 0 0
21 1 3.7032563999446406 0.48446521667567244 6.477462974048968 0 0 0
56 1 1.8639605102075456 2.744874149965965 9.516122012642402 0 0 0
48 1 2.891032234903835 3.8531263843418357 7.617870448411052 0 0 0
62 1 1.3775889413940492 5.320270688826457 6.648693904316523 0 0 0
36 1 5.1736819381592944 3.341602841648253 8.461225902115302 0 0 0
42 1 10.799078795503188 4.318789076060118 10.716252914662356 0 0 -1
18 1 7.7037410654948975 4.770268259761146 8.189780948104897 0 0 -1
20 1 5.854633544051977 0.967744650873222 9.41927345095079 0 0 -1
7 1 8.388754063059487 0.3738635549078302 5.814404796366291 0 1 0
27 1 10.286914133875673 0.8816512593475287 9.962174775492919 0 1 -1
14 1 8.552716723234173 2.582119221892412 6.885376519190179 0 0 0
30 1 5.933345115427901 1.7817915617384896 6.857925595421027 0 0 0
13 1 7.516864944752781 4.790551685962655 10.412964702047642 0 0 0
22 1 8.661629135951838 0.47297353157736255 8.114463680287514 0 0 0
15 1 9.838220146804652 3.1912102056894325 8.921229324066918 0 0 0
58 1 9.881992148991944 5.2375227263901705 6.175883230499973 0 0 0
11 1 10.849454064946617 0.7375697964932904 6.5452442006859055 0 1 0
8 1 3.7145668090798543 10.678377414272177 10.624282232653979 0 -1 -1
41 1 0.9702860450335958 9.81032095456445 7.309175502225006 0 0 0
46 1 4.173431713504859 5.894179094002913 7.039064716250243 0 0 0
16 1 3.217467595509173 9.087243371939099 6.302110656532486 0 0 0
47 1 4.160268636300944 7.005210759794592 9.829314889651727 0 0 -1
37 1 5.264816712166351 9.342255422343545 9.016067208361086 0 -1 0
51 1 0.7375005567774482 5.901362336448468 9.044071762518108 0 0 0
33 1 5.277262274644801 8.01771194755635 6.904160890762303 0 0 0
6 1 1.9806044421012203 7.117188418255999 10.756448000179201 0 0 0
10 1 0.7452801956698316 10.12169727961524 9.842291211570696 1 0 0
59 1 6.511271932097508 6.710896259505943 9.57019251096472 0 0 0
9 1 7.401524863902176 9.267084259547609 7.597605523634207 0 -1 0
61 1 8.524667768137366 8.765805063911497 10.476702604564828 0 0 0
19 1 8.901553910309058 7.291753391056868 7.181884244579644 0 0 0
35 1 10.379151932730135 8.010571427444479 8.997847428830617 0 0 0

Velocities

5 2.3402926411487766 3.606852317617173 -0.576050412815754
52 6.332179109829873 -11.125195013473352 -3.4843689396297783
25 -8.214587300769916 -15.440563491441932 -7.423762250773824
53 1.4177868296755634 0.6063963658839154 -0.052587897716322884
32 -10.722644803851322 -2.673078692986276 8.49332871560908
26 -17.06248412273319 0.5084872702105513 -8.77409263412786
43 7.798319195996555 -13.236147247954461 3.5959073480124863
17 -0.20172938664304593 -1.5614470244581462 -6.671767599950064
49 -0.35924073315535 5.523860130432045 1.4694389908176406
55 3.488845750262832 -3.3805665022602756 -8.901909732176934
4 2.5907793730695605 -8.349691958786815 -6.527116113178891
28 -10.831828182088941 2.4470505341520665 -2.7250660201939363
34 -12.278121217861436 11.187905697704727 -7.220777331245298
2 -2.2154468854212257 -3.4765047271394716 -8.233918505542073
38 2.4807913295686252 11.150852818190632 11.158963114174178
45 3.586188770208343 0.3484440462892819 -0.9465769374431972
23 -6.523277251589768 1.4587328670634205 -10.545218279650662
64 -5.6535575088841235 -1.288043853376818 6.342796753411193
12 8.54936239734584 2.947450709615281 -5.364769971908394
31 -15.558905878548547 1.0320933691817014 12.494138322360708
39 -5.523782153711166 14.048033222690401 -12.043404600608339
54 -1.975329495649001 -0.5943240708483494 1.8331252510753944
29 6.217032986112425 2.46717647667256 8.59618366936596
44 1.3813976587163088 11.523320135487797 4.452418393609412
57 -9.218052999336697 -11.480048625390644 -2.0027952035803174
63 4.090612422163266 -0.9488883707424408 -4.415736041187333
50 3.470191355949524 -6.688078351403854 7.059322671853678
3 -13.501738297529394 8.787737477031499 3.0968573365858076
1 -2.977631775464635 5.647103556599861 0.7177240005689252
60 1.499654929560979 -3.3334850844101127 -7.9721983988402405
40 9.008460971848258 7.189110160613633 10.088419506726844
24 9.272163023704348 -0.45474317006216436 19.40673016891725
21 3.131819954621626 4.5382289156570605 -5.095548721069466
56 -4.979504509156528 4.78739460182039 -12.477383180445424
48 -6.860863707553284 -1.6033881526710063 -2.8891188018905356
62 4.906434426816124 11.424739951261703 7.3274946275989885
36 13.69840680892757 -0.5947687846967961 8.867868123873457
42 -3.120479241532781 -2.1502459996722307 10.998639561223056
18 -2.067032255854575 -11.559579709830837 -4.251184574107017
20 1.9398929963277505 9.008609910055982 7.814695177668803
7 1.5122946559511175 9.917522772400082 5.671496928010987
27 -5.1179621976099 -13.641153361907074 -2.312179079570776
14 6.344974174977127 -3.8426189958570376 9.16038151458259
30 0.7738822075679692 -5.024442279250297 -4.121585149137754
13 0.40873537034373963 -0.38893038571991145 -12.563852367186414
22 -2.4325412218691174 15.716147433230239 -0.8617196201305007
15 -12.909115760941942 4.832578431136457 5.80708983318138
58 14.021155429028502 4.036649245456954 -2.7250530110286166
11 5.0230565932510105 -0.5515400113115342 -4.983172842891087
8 6.822997222461206 -0.08679098621582323 7.21008866037444
41 -0.013082225824177849 -1.7636438222623139 16.27783187919558
46 4.406937210586481 -0.7358038794598403 -3.36823468151125
16 -6.030211812771891 -5.704169193763931 3.2188008978570744
47 -3.72128863347489 -4.014427577387843 -10.584997734970209
37 12.483700122064166 0.5692279387671096 -15.87204703824858
51 -7.478027746060426 -3.453881415998833 -1.5292212182942915
33 -4.108421759673989 1.3658167798177268 2.90881963230478
6 2.1986720596689397 -19.032411510296715 -4.718839388368214
10 5.676422275183925 -0.09181884701514119 17.278528853326325
59 -3.4152087155646096 -1.4538242018689158 13.302776567746394
9 -0.0726430928085518 -0.004035460081272603 -3.4734342857454528
61 12.422554452150045 7.343363304852764 0.9445793719055591
19 8.239096936623936 -6.464764794293639 -10.954525450051772
35 7.609649232221775 2.1721591144029935 -8.930231856721395
