LAMMPS data file via write_data, version 23 Jun 2022, timestep = 500000

64 atoms
1 atom types

0.07505417806052694 10.786345821939666 xlo xhi
0.07505417806052694 10.786345821939666 ylo yhi
0.07505417806052694 10.786345821939666 zlo zhi

Masses

1 28.0855

Atoms # atomic

5 1 2.046801254289595 1.2213682259024996 1.3413559311208645
8 1 5.205043606159591 3.5426869062487047 1.3891026490757883
17 1 3.9861293422313455 0.8464605215647291 2.798879148164073
29 1 5.361148029093684 0.6387110840458917 0.8270666589751394
49 1 8.246387256405026 0.8675729887955611 2.9379820305847977
42 1 9.461152708060464 2.330513770064307 0.743899028479202
40 1 10.63479812373403 1.917565231234272 3.4704415162703994
45 1 2.4570603944015974 5.841032316529651 1.7206274905180474
44 1 0.8915140452512499 4.204467417946119 0.7654510842604151
52 1 0.7638752788043297 4.030032934928914 3.4505847759791495
64 1 6.63371614882216 6.273887739139322 2.9411544391177613
25 1 4.284896575735281 5.241551073955534 3.132786809149955
18 1 9.296947209043779 5.144283591691378 2.734385488217938
20 1 7.448788443010411 3.8916494021963066 0.8264862723321827
47 1 8.363239866226252 6.252930113728121 0.5802300472200582
23 1 2.169067105665279 8.383449766883597 1.9982015454916182
41 1 0.9430837897259193 10.365155567906182 3.4619799502882125
57 1 6.153165563174362 8.538270431281873 2.0080054922576216
7 1 4.144288661582162 9.059181275059796 3.2965223333244267
27 1 10.66207980552888 10.55484470632798 0.7026658166651936
12 1 10.075802181157936 7.818341237429296 2.2794403138351877
63 1 8.676255476464238 9.48058651220201 1.8757613950462535
24 1 2.3243106489869163 1.8125944112692223 6.201015740457794
53 1 5.082714054032261 2.411853498802776 4.323717973928718
21 1 5.25109025631021 0.1893807560051884 5.9538259179648145
37 1 4.873414506077505 2.343054865694051 7.05095807022909
55 1 7.341546215621952 3.1930022873436514 3.681308738747107
14 1 10.403182959083939 1.9561836718262324 5.717996160687396
30 1 9.103520789704955 0.3912952335407387 6.936443523259321
32 1 3.227351028011661 3.8262071442974728 4.850322895633725
26 1 0.7500560868368431 5.233780978644731 5.3943911261262425
46 1 4.032397219864364 7.0339646582720174 4.957786285156714
59 1 4.241954490863103 5.098095446336328 7.169922310434252
39 1 8.565288894660831 3.7432713430810027 5.7386485803576734
4 1 9.152287316922287 6.096972434575916 4.864485046725892
62 1 1.6840612607698238 7.32866069750705 6.2601954539015585
16 1 2.756445852028951 10.292350577887518 5.3954411315903
50 1 6.728874867940878 7.462120336540535 5.01281396281339
28 1 6.8826755036823055 10.104495419572949 4.4752080348745595
3 1 10.618844950316838 8.321573474023126 4.590659903242535
2 1 8.639337617099741 9.003950894820605 5.939092013323948
56 1 1.5597668478738331 1.937272277607999 8.651662690499236
43 1 2.8460615902482567 2.8988532666127313 10.741171595181921
34 1 7.0320506373205305 3.2361663992246092 9.059828087140435
1 1 6.908030383879796 0.4435771414610587 8.380518788509178
9 1 4.012662410886232 1.194780286620261 9.303954310565402
13 1 7.47575385832541 0.7629400219761913 10.502978757740124
22 1 9.689284675794507 2.0125803675971223 8.936111364667603
61 1 3.314956079810863 6.783743039330597 10.319802384616857
51 1 2.1236237423112874 5.802247547348562 8.329585222609396
48 1 0.5450405531221596 3.960124690630217 7.468662669782676
31 1 5.047776378386496 4.45012241998795 9.57754601737275
36 1 6.360864605062459 6.709168127502922 10.005623152899098
15 1 8.802096340595472 4.700017579080699 8.024549667200226
35 1 10.167585622430305 5.760055255927829 9.939807244736297
33 1 2.712681131668097 9.23103590051982 7.872333826365503
54 1 2.298202663788564 9.777477604568698 10.325419783145186
6 1 5.319416248512313 8.804146730083172 10.328706369042713
19 1 4.929846481328476 9.73110208274095 8.025876522971705
58 1 5.603439449559447 7.36427723108283 7.557640261747008
11 1 10.745712462711214 7.727582995607613 8.420527015916726
60 1 8.251250664849334 7.239024696886272 7.789231247727573
38 1 8.123702704797488 8.945279296921846 10.146110811724785
10 1 10.182704396483501 10.010176197394497 8.962880444098442
