ITEM: TIMESTEP
0
ITEM: NUMBER OF ATOMS
64
ITEM: BOX BOUNDS pp pp pp
7.5054178060526944e-02 1.0786345821939666e+01
7.5054178060526944e-02 1.0786345821939666e+01
7.5054178060526944e-02 1.0786345821939666e+01
ITEM: ATOMS id type xs ys zs
5 1 0.184081 0.107019 0.118221
8 1 0.478933 0.323736 0.122679
17 1 0.365136 0.0720181 0.254295
29 1 0.493507 0.0526227 0.0702075
44 1 0.0762242 0.38552 0.0644551
52 1 0.0643079 0.369235 0.315138
25 1 0.393028 0.482341 0.285468
53 1 0.467512 0.218162 0.396653
32 1 0.294297 0.350205 0.445816
26 1 0.0630178 0.481616 0.49661
49 1 0.762871 0.0739891 0.267281
42 1 0.876281 0.210568 0.062443
40 1 0.985852 0.172016 0.316991
18 1 0.860951 0.47326 0.248274
20 1 0.688408 0.356315 0.0701533
55 1 0.678395 0.29109 0.336678
45 1 0.222383 0.538308 0.15363
23 1 0.195496 0.775667 0.179544
41 1 0.0810387 0.960678 0.316201
7 1 0.379901 0.838753 0.300754
46 1 0.369455 0.64968 0.455849
16 1 0.250333 0.953881 0.496708
64 1 0.612313 0.57872 0.267577
47 1 0.77378 0.576763 0.0471629
57 1 0.567449 0.790121 0.180459
27 1 0.988399 0.978387 0.0585935
12 1 0.933664 0.722909 0.2058
63 1 0.803003 0.878095 0.168113
4 1 0.847445 0.562203 0.447138
50 1 0.621197 0.689652 0.460986
28 1 0.635556 0.936343 0.410796
3 1 0.984362 0.76989 0.421574
24 1 0.209989 0.162216 0.571916
21 1 0.483232 0.0106735 0.548839
37 1 0.447972 0.211739 0.651266
59 1 0.389019 0.468948 0.662373
56 1 0.138612 0.173856 0.800707
43 1 0.2587 0.263628 0.995783
9 1 0.367613 0.104537 0.861605
48 1 0.0438777 0.362708 0.690263
31 1 0.46425 0.408454 0.887147
14 1 0.964228 0.175621 0.526822
30 1 0.842892 0.0295241 0.640575
39 1 0.792643 0.342463 0.52875
34 1 0.649501 0.29512 0.838813
1 1 0.637923 0.0344051 0.775393
13 1 0.690925 0.0642206 0.973545
22 1 0.897579 0.180886 0.827263
15 1 0.814752 0.431784 0.74216
62 1 0.150216 0.677193 0.577441
61 1 0.302475 0.626319 0.956444
51 1 0.191253 0.534687 0.770638
33 1 0.246247 0.854797 0.72795
54 1 0.207552 0.905813 0.956968
6 1 0.489611 0.814943 0.957275
19 1 0.453241 0.901483 0.742284
2 1 0.799557 0.833597 0.547463
36 1 0.58684 0.619357 0.927112
35 1 0.942233 0.530748 0.920968
58 1 0.516127 0.680518 0.69857
11 1 0.996206 0.714436 0.779129
60 1 0.763325 0.668824 0.720191
38 1 0.751417 0.828119 0.940228
10 1 0.943644 0.927537 0.829762
ITEM: TIMESTEP
10
ITEM: NUMBER OF ATOMS
64
ITEM: BOX BOUNDS pp pp pp
7.5517475969061998e-02 1.0785882524031130e+01
7.5517475969061998e-02 1.0785882524031130e+01
7.5517475969061998e-02 1.0785882524031130e+01
ITEM: ATOMS id type xs ys zs
5 1 0.181655 0.0952681 0.12326
8 1 0.477562 0.327435 0.117887
17 1 0.357653 0.066039 0.247094
29 1 0.492345 0.0364039 0.0676394
44 1 0.0887168 0.392052 0.0624312
52 1 0.0641208 0.368458 0.31393
25 1 0.387754 0.474825 0.284348
53 1 0.459381 0.223296 0.397114
32 1 0.284083 0.342469 0.43856
26 1 0.056189 0.48502 0.509387
49 1 0.76917 0.0771356 0.262225
42 1 0.876866 0.219851 0.059291
40 1 0.986522 0.170662 0.32624
18 1 0.858464 0.46633 0.243662
20 1 0.685042 0.353118 0.0767181
55 1 0.690833 0.290469 0.325799
45 1 0.226634 0.539137 0.148914
23 1 0.203696 0.775353 0.178809
41 1 0.0775375 0.96967 0.314309
7 1 0.382902 0.848754 0.309164
46 1 0.360133 0.646899 0.458953
16 1 0.252568 0.956939 0.500522
64 1 0.609222 0.566231 0.264074
47 1 0.780497 0.58563 0.0383484
57 1 0.573948 0.790897 0.179975
27 1 0.993987 0.980329 0.0547326
12 1 0.924524 0.716947 0.207076
63 1 0.796998 0.871487 0.167451
4 1 0.851491 0.560593 0.460701
50 1 0.619834 0.691974 0.44871
28 1 0.640655 0.926838 0.413752
3 1 0.984694 0.767312 0.421581
24 1 0.20933 0.168803 0.582166
21 1 0.491183 0.0115778 0.544718
37 1 0.454346 0.213864 0.663953
59 1 0.380703 0.480518 0.663205
56 1 0.137619 0.177496 0.798401
43 1 0.259621 0.26534 0.00223404
9 1 0.359769 0.104112 0.864165
48 1 0.0423795 0.354567 0.692293
31 1 0.45761 0.412382 0.88519
14 1 0.964496 0.186319 0.521359
30 1 0.845483 0.0326182 0.635614
39 1 0.785569 0.353018 0.533104
34 1 0.641905 0.277857 0.824684
1 1 0.640046 0.0379074 0.771227
13 1 0.700554 0.0658789 0.976742
22 1 0.901845 0.177804 0.818665
15 1 0.802132 0.426719 0.74755
62 1 0.148585 0.691978 0.578506
61 1 0.300117 0.628025 0.959829
51 1 0.18264 0.534245 0.773878
33 1 0.243377 0.85223 0.734405
54 1 0.208074 0.908199 0.96457
6 1 0.490449 0.818814 0.956051
19 1 0.460707 0.908689 0.749838
2 1 0.804788 0.840474 0.552532
36 1 0.580941 0.625138 0.926333
35 1 0.943917 0.515676 0.924516
58 1 0.519454 0.680074 0.70353
11 1 0.997864 0.71282 0.782475
60 1 0.77253 0.679238 0.712621
38 1 0.758564 0.814976 0.928518
10 1 0.949949 0.917737 0.822367
ITEM: TIMESTEP
20
ITEM: NUMBER OF ATOMS
64
ITEM: BOX BOUNDS pp pp pp
7.6780365534144579e-02 1.0784619634466049e+01
7.6780365534144579e-02 1.0784619634466049e+01
7.6780365534144579e-02 1.0784619634466049e+01
ITEM: ATOMS id type xs ys zs
5 1 0.177233 0.0810512 0.128283
8 1 0.471988 0.331695 0.112354
17 1 0.353143 0.0606361 0.241077
29 1 0.490975 0.0191588 0.0624145
44 1 0.0984443 0.399037 0.0610529
52 1 0.0650355 0.370455 0.312096
25 1 0.383866 0.467496 0.283722
53 1 0.45397 0.225725 0.396682
32 1 0.270501 0.335197 0.432004
26 1 0.0506764 0.488736 0.522265
49 1 0.775984 0.0808357 0.258407
42 1 0.876932 0.227291 0.0548393
40 1 0.9852 0.165392 0.327058
18 1 0.854658 0.460696 0.239029
20 1 0.685467 0.350639 0.0832783
55 1 0.702516 0.289653 0.315147
45 1 0.231105 0.543801 0.144146
23 1 0.211721 0.774364 0.176549
41 1 0.0759252 0.9758 0.312654
7 1 0.384522 0.857578 0.318423
46 1 0.351842 0.644456 0.462362
16 1 0.255377 0.960295 0.504387
64 1 0.605366 0.554097 0.259362
47 1 0.784253 0.595271 0.0325414
57 1 0.580039 0.79152 0.179875
27 1 0.000310563 0.982831 0.0496624
12 1 0.917891 0.705074 0.209486
63 1 0.78709 0.869182 0.164236
4 1 0.854156 0.559238 0.474082
50 1 0.618549 0.695124 0.437807
28 1 0.648756 0.915354 0.41494
3 1 0.984514 0.766006 0.421697
24 1 0.208363 0.175723 0.592095
21 1 0.496457 0.0150198 0.54148
37 1 0.460042 0.216213 0.677238
59 1 0.372961 0.493042 0.664359
56 1 0.137789 0.181831 0.796531
43 1 0.262116 0.266329 0.00667584
9 1 0.351415 0.103364 0.867292
48 1 0.0402357 0.346597 0.694844
31 1 0.451226 0.41724 0.884573
14 1 0.963065 0.199707 0.526397
30 1 0.849098 0.0381719 0.635103
39 1 0.779016 0.363073 0.535947
34 1 0.634114 0.26024 0.811199
1 1 0.643705 0.0431876 0.76445
13 1 0.711463 0.0682766 0.981754
22 1 0.907191 0.174373 0.810988
15 1 0.790895 0.421468 0.753559
62 1 0.147127 0.706688 0.57979
61 1 0.299113 0.630561 0.961797
51 1 0.173664 0.534771 0.776995
33 1 0.239386 0.849798 0.739876
54 1 0.207938 0.91053 0.973369
6 1 0.490241 0.824681 0.958012
19 1 0.468092 0.914251 0.756257
2 1 0.809085 0.844448 0.554274
36 1 0.574771 0.628291 0.92453
35 1 0.948873 0.499257 0.924567
58 1 0.523852 0.678469 0.707711
11 1 0.000243106 0.706503 0.785214
60 1 0.781686 0.689493 0.705544
38 1 0.766382 0.802616 0.916446
10 1 0.954617 0.91102 0.817108
ITEM: TIMESTEP
30
ITEM: NUMBER OF ATOMS
64
ITEM: BOX BOUNDS pp pp pp
7.8331792265417199e-02 1.0783068207734779e+01
7.8331792265417199e-02 1.0783068207734779e+01
7.8331792265417199e-02 1.0783068207734779e+01
ITEM: ATOMS id type xs ys zs
5 1 0.171756 0.0676202 0.132216
8 1 0.462606 0.337238 0.105478
17 1 0.353869 0.0570107 0.236725
29 1 0.490273 0.00275987 0.0564223
44 1 0.10515 0.40521 0.0608237
52 1 0.0659053 0.373639 0.31066
25 1 0.381408 0.460112 0.283844
53 1 0.45052 0.225108 0.395117
32 1 0.25367 0.327934 0.425298
26 1 0.0481376 0.492421 0.53491
49 1 0.783578 0.0839266 0.255063
42 1 0.877068 0.232952 0.0485923
40 1 0.981281 0.16022 0.322513
18 1 0.850057 0.456743 0.234952
20 1 0.688429 0.349197 0.0910008
55 1 0.713538 0.289705 0.305754
45 1 0.236072 0.55237 0.141813
23 1 0.221138 0.772727 0.172851
41 1 0.0767867 0.97693 0.31188
7 1 0.38463 0.863544 0.328694
46 1 0.344666 0.642132 0.466255
16 1 0.2588 0.964281 0.508516
64 1 0.60054 0.542603 0.253841
47 1 0.786488 0.605569 0.0281314
57 1 0.583479 0.791423 0.180541
27 1 0.0048515 0.984612 0.0422892
12 1 0.910993 0.689443 0.21249
63 1 0.777095 0.869949 0.15921
4 1 0.85448 0.560534 0.486787
50 1 0.616665 0.696952 0.427131
28 1 0.65818 0.904089 0.41442
3 1 0.983731 0.765958 0.421404
24 1 0.208444 0.18211 0.599155
21 1 0.499574 0.0208158 0.538708
37 1 0.463216 0.218026 0.690195
59 1 0.365927 0.507674 0.666017
56 1 0.139851 0.185372 0.798177
43 1 0.266321 0.26511 0.0100656
9 1 0.342201 0.102011 0.870672
48 1 0.0368722 0.340919 0.69794
31 1 0.445046 0.422677 0.884934
14 1 0.959249 0.215533 0.538325
30 1 0.853778 0.0455822 0.638243
39 1 0.772368 0.370995 0.537146
34 1 0.626902 0.244787 0.799083
1 1 0.650484 0.0487769 0.756608
13 1 0.722146 0.0712221 0.987086
22 1 0.913617 0.171063 0.805417
15 1 0.780837 0.415326 0.760665
62 1 0.145604 0.720972 0.580507
61 1 0.299969 0.634623 0.960569
51 1 0.164009 0.536043 0.780555
33 1 0.235789 0.848514 0.745475
54 1 0.207576 0.911973 0.982289
6 1 0.48918 0.829974 0.962628
19 1 0.473568 0.917692 0.760496
2 1 0.813941 0.847034 0.552115
36 1 0.568628 0.628658 0.922851
35 1 0.954856 0.482033 0.921298
58 1 0.529156 0.676376 0.710571
11 1 0.00401705 0.695057 0.787069
60 1 0.790118 0.698431 0.699259
38 1 0.775148 0.79056 0.903927
10 1 0.957993 0.908066 0.814223
ITEM: TIMESTEP
40
ITEM: NUMBER OF ATOMS
64
ITEM: BOX BOUNDS pp pp pp
7.9312857463848196e-02 1.0782087142536344e+01
7.9312857463848196e-02 1.0782087142536344e+01
7.9312857463848196e-02 1.0782087142536344e+01
ITEM: ATOMS id type xs ys zs
5 1 0.168185 0.0590855 0.136558
8 1 0.452667 0.344012 0.0975173
17 1 0.360245 0.0561446 0.233595
29 1 0.490525 0.995518 0.0549127
44 1 0.109655 0.409097 0.0627897
52 1 0.0644745 0.376611 0.308996
25 1 0.380091 0.45286 0.284844
53 1 0.446919 0.222107 0.392645
32 1 0.23744 0.320372 0.418743
26 1 0.0496224 0.495978 0.546619
49 1 0.790264 0.0848998 0.251367
42 1 0.878477 0.23708 0.0403429
40 1 0.975668 0.159447 0.319017
18 1 0.846621 0.455053 0.231725
20 1 0.690804 0.349012 0.0984978
55 1 0.723466 0.290382 0.300396
45 1 0.241295 0.562404 0.143315
23 1 0.232357 0.771427 0.16872
41 1 0.079925 0.971938 0.313572
7 1 0.383 0.865258 0.339334
46 1 0.338737 0.640233 0.470422
16 1 0.262376 0.968718 0.513062
64 1 0.594778 0.532982 0.24846
47 1 0.788486 0.614362 0.0245945
57 1 0.581316 0.789744 0.182363
27 1 0.00383067 0.984689 0.031414
12 1 0.902427 0.67365 0.215397
63 1 0.772104 0.873088 0.153203
4 1 0.852323 0.566594 0.498655
50 1 0.613357 0.694336 0.416071
28 1 0.666213 0.897217 0.412118
3 1 0.982583 0.766881 0.420068
24 1 0.210953 0.186938 0.601011
21 1 0.501145 0.0277544 0.535893
37 1 0.457023 0.217992 0.698465
59 1 0.360025 0.524009 0.668582
56 1 0.144215 0.186956 0.80531
43 1 0.270555 0.261889 0.0123391
9 1 0.33318 0.0995107 0.873654
48 1 0.0330221 0.340789 0.702852
31 1 0.438835 0.428566 0.885765
14 1 0.952357 0.230515 0.547475
30 1 0.858441 0.0509911 0.642293
39 1 0.765643 0.375066 0.537204
34 1 0.626375 0.23925 0.793762
1 1 0.660438 0.0483754 0.747908
13 1 0.731095 0.0737213 0.991927
22 1 0.920784 0.168948 0.805143
15 1 0.772159 0.407795 0.76829
62 1 0.144084 0.733764 0.579877
61 1 0.302919 0.640195 0.955347
51 1 0.155409 0.536894 0.784245
33 1 0.233535 0.849287 0.751685
54 1 0.208247 0.910792 0.988698
6 1 0.487615 0.826417 0.965498
19 1 0.476563 0.918727 0.762022
2 1 0.820979 0.851059 0.546829
36 1 0.563196 0.626853 0.922814
35 1 0.95886 0.466146 0.915343
58 1 0.534802 0.67474 0.711107
11 1 0.00824759 0.682093 0.787842
60 1 0.796759 0.703562 0.693521
38 1 0.783598 0.780608 0.892085
10 1 0.96094 0.907535 0.813774
ITEM: TIMESTEP
50
ITEM: NUMBER OF ATOMS
64
ITEM: BOX BOUNDS pp pp pp
7.9076338057701534e-02 1.0782323661942492e+01
7.9076338057701534e-02 1.0782323661942492e+01
7.9076338057701534e-02 1.0782323661942492e+01
ITEM: ATOMS id type xs ys zs
5 1 0.166999 0.0560745 0.142493
8 1 0.445287 0.352267 0.0894789
17 1 0.370957 0.0576369 0.231349
29 1 0.491887 0.999507 0.0592594
44 1 0.113467 0.410978 0.0676189
52 1 0.0583255 0.379381 0.305232
25 1 0.379087 0.445403 0.286692
53 1 0.441236 0.217467 0.389244
32 1 0.225384 0.311971 0.413101
26 1 0.0539677 0.500082 0.55713
49 1 0.793536 0.0825573 0.246359
42 1 0.881928 0.240916 0.0295205
40 1 0.971907 0.162813 0.318709
18 1 0.846245 0.455546 0.229202
20 1 0.690535 0.350296 0.10319
55 1 0.732362 0.289938 0.301857
45 1 0.246803 0.570387 0.147065
23 1 0.245707 0.773113 0.165599
41 1 0.0837917 0.962783 0.319371
7 1 0.379472 0.863328 0.349842
46 1 0.333326 0.63935 0.474485
16 1 0.265707 0.973396 0.518295
64 1 0.587693 0.525519 0.243438
47 1 0.790176 0.619994 0.0227212
57 1 0.573881 0.786523 0.18548
27 1 0.997595 0.983582 0.0172053
12 1 0.892237 0.659925 0.218204
63 1 0.772641 0.878017 0.146331
4 1 0.848639 0.576968 0.511014
50 1 0.608217 0.686899 0.403769
28 1 0.671437 0.89566 0.407522
3 1 0.981862 0.76834 0.416584
24 1 0.215843 0.190114 0.599139
21 1 0.501885 0.0351382 0.533052
37 1 0.440111 0.215954 0.702267
59 1 0.354994 0.541759 0.672765
56 1 0.149954 0.18782 0.815882
43 1 0.271827 0.257296 0.0130706
9 1 0.326135 0.094517 0.876137
48 1 0.0305963 0.346318 0.71179
31 1 0.432119 0.435326 0.886091
14 1 0.941377 0.24281 0.549583
30 1 0.863477 0.0523638 0.644769
39 1 0.758967 0.375954 0.536827
34 1 0.632454 0.243065 0.795871
1 1 0.671943 0.0407391 0.738482
13 1 0.738124 0.0748052 0.996389
22 1 0.928999 0.168336 0.811903
15 1 0.765252 0.399528 0.775635
62 1 0.142964 0.745381 0.57781
61 1 0.307379 0.646687 0.947318
51 1 0.151883 0.534584 0.78763
33 1 0.232787 0.852282 0.758942
54 1 0.210368 0.906372 0.991304
6 1 0.485 0.812411 0.964823
19 1 0.477618 0.91769 0.761331
2 1 0.831009 0.858046 0.5403
36 1 0.559386 0.622515 0.92476
35 1 0.959505 0.45133 0.907918
58 1 0.540875 0.674163 0.709121
11 1 0.00969719 0.672755 0.787441
60 1 0.801592 0.703866 0.68599
38 1 0.791454 0.774471 0.881288
10 1 0.964358 0.907902 0.814906
ITEM: TIMESTEP
60
ITEM: NUMBER OF ATOMS
64
ITEM: BOX BOUNDS pp pp pp
7.7513106571045043e-02 1.0783886893429148e+01
7.7513106571045043e-02 1.0783886893429148e+01
7.7513106571045043e-02 1.0783886893429148e+01
ITEM: ATOMS id type xs ys zs
5 1 0.166602 0.0564835 0.148578
8 1 0.442251 0.361577 0.0832378
17 1 0.382972 0.0603655 0.2314
29 1 0.495067 0.00670464 0.0638804
44 1 0.116759 0.41176 0.074567
52 1 0.0477345 0.381831 0.298466
25 1 0.377587 0.437569 0.289203
53 1 0.432968 0.212168 0.385115
32 1 0.21938 0.303408 0.408462
26 1 0.0591071 0.50526 0.565465
49 1 0.792335 0.077282 0.240398
42 1 0.886621 0.245575 0.0171797
40 1 0.972306 0.167564 0.321589
18 1 0.849024 0.455185 0.227295
20 1 0.68745 0.352822 0.104339
55 1 0.740029 0.28746 0.310205
45 1 0.252253 0.573236 0.15053
23 1 0.260527 0.77985 0.165195
41 1 0.0873784 0.9531 0.328906
7 1 0.374417 0.859191 0.358797
46 1 0.328063 0.640454 0.477456
16 1 0.268081 0.977741 0.524062
64 1 0.5794 0.520157 0.238412
47 1 0.790483 0.621805 0.0229905
57 1 0.564407 0.782969 0.189323
27 1 0.990346 0.982891 0.00390078
12 1 0.882533 0.652736 0.220968
63 1 0.776017 0.882704 0.139107
4 1 0.844909 0.587114 0.522431
50 1 0.602057 0.677652 0.390979
28 1 0.673078 0.897613 0.400894
3 1 0.98269 0.76935 0.410084
24 1 0.222266 0.191609 0.596714
21 1 0.502418 0.042086 0.530847
37 1 0.419798 0.212656 0.705024
59 1 0.351055 0.559293 0.679063
56 1 0.154428 0.190291 0.825751
43 1 0.268001 0.252111 0.0123084
9 1 0.324143 0.0853322 0.878406
48 1 0.0301473 0.353334 0.722764
31 1 0.424835 0.442884 0.884455
14 1 0.928173 0.251835 0.546527
30 1 0.871537 0.05133 0.645325
39 1 0.752834 0.375793 0.536553
34 1 0.636486 0.245512 0.801062
1 1 0.68018 0.0312291 0.730674
13 1 0.742959 0.0740642 0.000489663
22 1 0.937751 0.168 0.823209
15 1 0.762893 0.394601 0.780951
62 1 0.142738 0.755748 0.575145
61 1 0.311851 0.652868 0.938945
51 1 0.157051 0.527769 0.790421
33 1 0.233593 0.856928 0.766591
54 1 0.212474 0.900594 0.990602
6 1 0.480526 0.798765 0.96421
19 1 0.477311 0.914888 0.759178
2 1 0.84203 0.867218 0.534691
36 1 0.559267 0.61397 0.927361
35 1 0.956824 0.438084 0.902206
58 1 0.547569 0.674997 0.705524
11 1 0.00528492 0.671099 0.785737
60 1 0.803931 0.701325 0.676575
38 1 0.798863 0.772894 0.872306
10 1 0.968179 0.908233 0.814868
ITEM: TIMESTEP
70
ITEM: NUMBER OF ATOMS
64
ITEM: BOX BOUNDS pp pp pp
7.4460331256978485e-02 1.0786939668743216e+01
7.4460331256978485e-02 1.0786939668743216e+01
7.4460331256978485e-02 1.0786939668743216e+01
ITEM: ATOMS id type xs ys zs
5 1 0.166433 0.0579452 0.15406
8 1 0.442195 0.371301 0.0791948
17 1 0.393303 0.0626309 0.234803
29 1 0.50112 0.0118966 0.0642457
44 1 0.119188 0.412042 0.0823412
52 1 0.0365053 0.382853 0.289796
25 1 0.374992 0.428494 0.292331
53 1 0.422675 0.207667 0.380992
32 1 0.217462 0.295758 0.403233
26 1 0.0637848 0.512039 0.571973
49 1 0.788568 0.0716814 0.235343
42 1 0.890428 0.251827 0.00668087
40 1 0.975166 0.17102 0.326564
18 1 0.852232 0.450295 0.225224
20 1 0.682838 0.35595 0.104371
55 1 0.746868 0.283433 0.322053
45 1 0.257568 0.572524 0.152864
23 1 0.276765 0.789857 0.168191
41 1 0.0918285 0.945848 0.340396
7 1 0.368366 0.85406 0.366037
46 1 0.322512 0.644144 0.47904
16 1 0.269189 0.981223 0.529951
64 1 0.570006 0.515723 0.232035
47 1 0.788511 0.620829 0.0243086
57 1 0.554627 0.779854 0.193115
27 1 0.984299 0.984278 0.996464
12 1 0.874845 0.655462 0.223845
63 1 0.780384 0.884988 0.131338
4 1 0.843362 0.589756 0.526548
50 1 0.595717 0.669468 0.378833
28 1 0.672198 0.901165 0.39299
3 1 0.984876 0.768426 0.400904
24 1 0.22849 0.191691 0.595238
21 1 0.503165 0.0481969 0.529628
37 1 0.401558 0.20888 0.708829
59 1 0.34901 0.576157 0.687003
56 1 0.157096 0.195299 0.832977
43 1 0.26033 0.24718 0.0116353
9 1 0.327727 0.0716562 0.880967
48 1 0.0314764 0.357512 0.72997
31 1 0.416429 0.450468 0.879873
14 1 0.915926 0.257378 0.542242
30 1 0.884326 0.0511129 0.645652
39 1 0.746277 0.377214 0.536849
34 1 0.633285 0.239346 0.807079
1 1 0.683035 0.0227578 0.725281
13 1 0.745819 0.0721922 0.004744
22 1 0.946696 0.164839 0.833785
15 1 0.766266 0.395889 0.782921
62 1 0.143449 0.765396 0.572737
61 1 0.31423 0.657646 0.931244
51 1 0.168289 0.520307 0.79332
33 1 0.235742 0.862613 0.773524
54 1 0.213222 0.895508 0.988352
6 1 0.475069 0.792123 0.965535
19 1 0.476392 0.910323 0.756173
2 1 0.851509 0.876607 0.529967
36 1 0.564484 0.601427 0.929629
35 1 0.950899 0.428645 0.902461
58 1 0.555306 0.677376 0.701678
11 1 0.997375 0.674588 0.782695
60 1 0.80181 0.702552 0.67116
38 1 0.806214 0.774245 0.865363
10 1 0.972516 0.907352 0.809316
ITEM: TIMESTEP
80
ITEM: NUMBER OF ATOMS
64
ITEM: BOX BOUNDS pp pp pp
6.9610830652893085e-02 1.0791789169347297e+01
6.9610830652893085e-02 1.0791789169347297e+01
6.9610830652893085e-02 1.0791789169347297e+01
ITEM: ATOMS id type xs ys zs
5 1 0.166641 0.0594043 0.15887
8 1 0.443306 0.380589 0.0768324
17 1 0.400596 0.0610268 0.23923
29 1 0.509478 0.0142045 0.0593596
44 1 0.120486 0.412129 0.0890333
52 1 0.030677 0.38052 0.282007
25 1 0.371091 0.417628 0.295975
53 1 0.412326 0.206362 0.378728
32 1 0.216567 0.290173 0.39658
26 1 0.0672577 0.520987 0.577754
49 1 0.78414 0.068199 0.233693
42 1 0.88993 0.2584 0.00403641
40 1 0.978607 0.171378 0.332198
18 1 0.851397 0.44383 0.221184
20 1 0.678087 0.35919 0.104951
55 1 0.752769 0.278091 0.334618
45 1 0.262908 0.571617 0.154236
23 1 0.294074 0.7997 0.173283
41 1 0.0986026 0.943339 0.352268
7 1 0.362097 0.849203 0.372398
46 1 0.316631 0.650337 0.479928
16 1 0.269048 0.982966 0.53527
64 1 0.559715 0.511111 0.223176
47 1 0.784356 0.618356 0.0252444
57 1 0.544418 0.777954 0.195626
27 1 0.980056 0.987822 0.99616
12 1 0.868889 0.665661 0.226481
63 1 0.785709 0.882815 0.122906
4 1 0.845469 0.581727 0.520178
50 1 0.59009 0.663692 0.369271
28 1 0.670493 0.905557 0.384494
3 1 0.986898 0.764747 0.391005
24 1 0.230532 0.190882 0.59319
21 1 0.504167 0.0530601 0.52952
37 1 0.390298 0.205326 0.715892
59 1 0.350476 0.59295 0.694241
56 1 0.160113 0.20136 0.835781
43 1 0.251966 0.243398 0.014339
9 1 0.334795 0.0556712 0.884216
48 1 0.0348909 0.357642 0.729658
31 1 0.406739 0.456522 0.872491
14 1 0.907141 0.258263 0.538788
30 1 0.899678 0.0536172 0.647826
39 1 0.738268 0.381968 0.538109
34 1 0.625341 0.226594 0.81304
1 1 0.681966 0.0163922 0.721414
13 1 0.74631 0.0707683 0.00884623
22 1 0.95573 0.155118 0.838797
15 1 0.77095 0.40008 0.781097
62 1 0.144817 0.774787 0.570981
61 1 0.312291 0.660311 0.924641
51 1 0.180654 0.514961 0.796895
33 1 0.238857 0.868773 0.777508
54 1 0.211713 0.891811 0.987363
6 1 0.471878 0.792079 0.968822
19 1 0.475609 0.904057 0.752711
2 1 0.857959 0.883818 0.524621
36 1 0.574668 0.588619 0.931375
35 1 0.942954 0.427753 0.910321
58 1 0.563986 0.681243 0.698886
11 1 0.989783 0.679324 0.778368
60 1 0.79347 0.710908 0.671346
38 1 0.8131 0.776908 0.862495
10 1 0.97832 0.905238 0.797339
ITEM: TIMESTEP
90
ITEM: NUMBER OF ATOMS
64
ITEM: BOX BOUNDS pp pp pp
6.2892336224697587e-02 1.0798507663775492e+01
6.2892336224697587e-02 1.0798507663775492e+01
6.2892336224697587e-02 1.0798507663775492e+01
ITEM: ATOMS id type xs ys zs
5 1 0.16727 0.0603613 0.16312
8 1 0.443917 0.388233 0.0744932
17 1 0.405384 0.0531967 0.240921
29 1 0.517923 0.0146939 0.0510614
44 1 0.121102 0.41275 0.0922704
52 1 0.0325277 0.37425 0.277816
25 1 0.366813 0.406251 0.299284
53 1 0.405008 0.20862 0.379373
32 1 0.212979 0.28728 0.389462
26 1 0.0691154 0.532142 0.583769
49 1 0.779908 0.0666992 0.236445
42 1 0.883805 0.260857 0.00971791
40 1 0.982112 0.168434 0.337471
18 1 0.84461 0.440634 0.214787
20 1 0.674089 0.361873 0.105712
55 1 0.757654 0.271698 0.346842
45 1 0.268289 0.572186 0.155027
23 1 0.311297 0.807138 0.177376
41 1 0.107363 0.945649 0.36362
7 1 0.356665 0.846097 0.379438
46 1 0.310575 0.65773 0.481626
16 1 0.268039 0.982583 0.539576
64 1 0.548977 0.506845 0.213316
47 1 0.779703 0.615352 0.0255515
57 1 0.533596 0.778032 0.195737
27 1 0.978148 0.991248 0.999799
12 1 0.86332 0.677694 0.227122
63 1 0.792534 0.876202 0.114747
4 1 0.849797 0.569554 0.510321
50 1 0.585966 0.659905 0.363413
28 1 0.669168 0.910442 0.376103
3 1 0.988148 0.759807 0.382844
24 1 0.226512 0.19018 0.589307
21 1 0.505159 0.0562448 0.530342
37 1 0.387371 0.202455 0.727377
59 1 0.355969 0.610371 0.697985
56 1 0.165479 0.207119 0.832628
43 1 0.24536 0.241006 0.0229683
9 1 0.343729 0.0406013 0.888232
48 1 0.038765 0.356099 0.72483
31 1 0.397311 0.459788 0.864033
14 1 0.90148 0.25493 0.536791
30 1 0.913565 0.0582129 0.650761
39 1 0.729983 0.389031 0.540571
34 1 0.616796 0.211861 0.818242
1 1 0.679057 0.0124959 0.718089
13 1 0.743961 0.0711343 0.0118654
22 1 0.964238 0.140651 0.840057
15 1 0.772657 0.402918 0.776131
62 1 0.146157 0.783522 0.570177
61 1 0.306082 0.661992 0.919724
51 1 0.190594 0.510596 0.800989
33 1 0.242189 0.874747 0.776519
54 1 0.20741 0.88923 0.990358
6 1 0.472714 0.795279 0.97346
19 1 0.475571 0.896257 0.749044
2 1 0.861338 0.888245 0.51813
36 1 0.586892 0.578406 0.932065
35 1 0.936946 0.437411 0.9205
58 1 0.572044 0.686391 0.698102
11 1 0.984928 0.682356 0.772086
60 1 0.781383 0.720959 0.668388
38 1 0.818329 0.780707 0.866511
10 1 0.986456 0.903277 0.783468
ITEM: TIMESTEP
100
ITEM: NUMBER OF ATOMS
64
ITEM: BOX BOUNDS pp pp pp
5.4442552993146265e-02 1.0806957447007047e+01
5.4442552993146265e-02 1.0806957447007047e+01
5.4442552993146265e-02 1.0806957447007047e+01
ITEM: ATOMS id type xs ys zs
5 1 0.168234 0.06074 0.166649
8 1 0.44166 0.392265 0.0688868
17 1 0.408965 0.0406762 0.239785
29 1 0.525176 0.0143768 0.0413655
44 1 0.121544 0.415226 0.0907978
52 1 0.0374938 0.365605 0.277109
25 1 0.363658 0.397972 0.300439
53 1 0.402662 0.209992 0.382038
32 1 0.203531 0.28603 0.383322
26 1 0.0692174 0.545346 0.59094
49 1 0.776326 0.0656361 0.242555
42 1 0.873845 0.258758 0.0183998
40 1 0.985892 0.162514 0.342101
18 1 0.835963 0.440851 0.208375
20 1 0.670521 0.36294 0.105074
55 1 0.76209 0.264757 0.358978
45 1 0.273491 0.574 0.155286
23 1 0.326302 0.812274 0.178162
41 1 0.116366 0.951129 0.374068
7 1 0.352756 0.845772 0.388217
46 1 0.304323 0.664391 0.485538
16 1 0.266794 0.980846 0.543493
64 1 0.5388 0.505667 0.206662
47 1 0.777313 0.61238 0.0263591
57 1 0.524039 0.779712 0.19391
27 1 0.978725 0.99262 0.0061407
12 1 0.85673 0.688371 0.223969
63 1 0.801297 0.867637 0.107071
4 1 0.855473 0.559198 0.501306
50 1 0.583411 0.657014 0.360004
28 1 0.668577 0.915472 0.368357
3 1 0.989792 0.756047 0.377949
24 1 0.219162 0.190432 0.585586
21 1 0.505851 0.0576011 0.531913
37 1 0.388998 0.199968 0.741635
59 1 0.364246 0.628806 0.697996
56 1 0.173984 0.212739 0.825176
43 1 0.240179 0.239077 0.0361647
9 1 0.354423 0.0276638 0.8931
48 1 0.0414602 0.354822 0.718277
31 1 0.390779 0.459813 0.855973
14 1 0.896625 0.249301 0.536245
30 1 0.923669 0.0633016 0.650222
39 1 0.72295 0.395636 0.544207
34 1 0.609284 0.197037 0.822591
1 1 0.67468 0.0105 0.714775
13 1 0.739017 0.0732947 0.0138096
22 1 0.972576 0.126374 0.842867
15 1 0.771233 0.403123 0.769756
62 1 0.146533 0.791248 0.570952
61 1 0.29744 0.66495 0.917274
51 1 0.196603 0.506277 0.804013
33 1 0.244703 0.88019 0.770977
54 1 0.200343 0.887241 0.997144
6 1 0.476577 0.798934 0.978386
19 1 0.476827 0.887088 0.745123
2 1 0.862397 0.891049 0.511046
36 1 0.597777 0.570371 0.930363
35 1 0.933538 0.453828 0.930372
58 1 0.57615 0.692276 0.699941
11 1 0.982826 0.68251 0.763022
60 1 0.771289 0.730203 0.659332
38 1 0.821775 0.785585 0.875762
10 1 0.997368 0.901465 0.770586
ITEM: TIMESTEP
110
ITEM: NUMBER OF ATOMS
64
ITEM: BOX BOUNDS pp pp pp
4.4289938228720516e-02 1.0817110061771478e+01
4.4289938228720516e-02 1.0817110061771478e+01
4.4289938228720516e-02 1.0817110061771478e+01
ITEM: ATOMS id type xs ys zs
5 1 0.169241 0.0600396 0.169463
8 1 0.435216 0.3912 0.0582146
17 1 0.41192 0.0271612 0.237384
29 1 0.530528 0.0140022 0.0323343
44 1 0.121363 0.420456 0.085461
52 1 0.0393978 0.357691 0.276743
25 1 0.361881 0.39541 0.298545
53 1 0.403832 0.206725 0.385796
32 1 0.192021 0.284079 0.380163
26 1 0.0678518 0.559275 0.599297
49 1 0.774287 0.0649623 0.249702
42 1 0.862443 0.255759 0.0261846
40 1 0.990002 0.154234 0.345927
18 1 0.830369 0.443109 0.204665
20 1 0.665965 0.361773 0.10193
55 1 0.765613 0.258173 0.370099
45 1 0.278066 0.576225 0.154763
23 1 0.332426 0.81667 0.175807
41 1 0.12357 0.958239 0.382404
7 1 0.351037 0.848487 0.397008
46 1 0.298019 0.667986 0.491941
16 1 0.266357 0.979992 0.548381
64 1 0.53045 0.509025 0.205914
47 1 0.779642 0.61 0.0286939
57 1 0.52295 0.780687 0.192654
27 1 0.981748 0.991115 0.0162064
12 1 0.84964 0.69542 0.218246
63 1 0.811392 0.861053 0.0987786
4 1 0.862488 0.553168 0.493669
50 1 0.58238 0.654959 0.357326
28 1 0.668051 0.919452 0.362438
3 1 0.992277 0.754585 0.376593
24 1 0.211548 0.191815 0.58403
21 1 0.506079 0.0569437 0.534123
37 1 0.391651 0.197617 0.756054
59 1 0.373138 0.647311 0.695945
56 1 0.184358 0.217992 0.817253
43 1 0.235918 0.23716 0.0495479
9 1 0.365591 0.0166618 0.897936
48 1 0.0424158 0.354733 0.710747
31 1 0.390435 0.456752 0.849284
14 1 0.891655 0.243832 0.537519
30 1 0.929327 0.0668841 0.645057
39 1 0.718036 0.399643 0.548174
34 1 0.603674 0.183128 0.826729
1 1 0.668877 0.00943165 0.710962
13 1 0.732734 0.0767243 0.0152136
22 1 0.981849 0.115193 0.848282
15 1 0.768253 0.401289 0.764464
62 1 0.144451 0.797228 0.574146
61 1 0.288248 0.670282 0.917634
51 1 0.196057 0.50286 0.804042
33 1 0.245692 0.884944 0.763074
54 1 0.191473 0.885752 0.00552576
6 1 0.481854 0.801221 0.981613
19 1 0.479183 0.877993 0.741003
2 1 0.861578 0.892915 0.504042
36 1 0.604471 0.563242 0.924634
35 1 0.931443 0.471233 0.93986
58 1 0.5747 0.697165 0.704737
11 1 0.981493 0.68082 0.752332
60 1 0.768567 0.739305 0.646469
38 1 0.824509 0.790578 0.885908
10 1 0.010547 0.899157 0.758821
ITEM: TIMESTEP
120
ITEM: NUMBER OF ATOMS
64
ITEM: BOX BOUNDS pp pp pp
3.2337809788323568e-02 1.0829062190211872e+01
3.2337809788323568e-02 1.0829062190211872e+01
3.2337809788323568e-02 1.0829062190211872e+01
ITEM: ATOMS id type xs ys zs
5 1 0.169755 0.0575232 0.172133
8 1 0.426363 0.386388 0.0454084
17 1 0.414794 0.0154469 0.235072
29 1 0.534072 0.0139256 0.0260401
44 1 0.119822 0.428091 0.0785068
52 1 0.0340816 0.353377 0.272385
25 1 0.360031 0.396201 0.294914
53 1 0.405207 0.200101 0.389234
32 1 0.186668 0.279666 0.381927
26 1 0.0665873 0.570567 0.606634
49 1 0.774874 0.0661635 0.255655
42 1 0.851241 0.254408 0.0320566
40 1 0.993982 0.144689 0.349104
18 1 0.828541 0.446257 0.203997
20 1 0.659256 0.359364 0.09666
55 1 0.766732 0.252502 0.378459
45 1 0.28191 0.578033 0.153362
23 1 0.32709 0.820962 0.172198
41 1 0.128132 0.966098 0.387494
7 1 0.351788 0.853144 0.403347
46 1 0.291639 0.668006 0.499383
16 1 0.26798 0.982477 0.555569
64 1 0.522925 0.513924 0.207996
47 1 0.784857 0.608184 0.0318213
57 1 0.533331 0.779583 0.193759
27 1 0.987146 0.987148 0.0302346
12 1 0.844095 0.697476 0.214499
63 1 0.821863 0.860379 0.089064
4 1 0.870442 0.551258 0.487227
50 1 0.583113 0.654164 0.355309
28 1 0.666285 0.920855 0.359508
3 1 0.99457 0.755012 0.377544
24 1 0.204569 0.194236 0.584626
21 1 0.505786 0.054097 0.536975
37 1 0.395038 0.195418 0.769569
59 1 0.379287 0.665368 0.693926
56 1 0.193365 0.222544 0.811453
43 1 0.23285 0.236255 0.0599915
9 1 0.374195 0.00647165 0.900556
48 1 0.0418744 0.355637 0.702059
31 1 0.395681 0.451902 0.843302
14 1 0.887527 0.241107 0.541703
30 1 0.932044 0.066625 0.638897
39 1 0.715728 0.400827 0.550844
34 1 0.600316 0.170056 0.832076
1 1 0.66169 0.00827694 0.705642
13 1 0.7269 0.0811838 0.0166409
22 1 0.992294 0.106853 0.853596
15 1 0.765382 0.398942 0.762497
62 1 0.139022 0.800888 0.579166
61 1 0.27917 0.67744 0.919614
51 1 0.189525 0.500986 0.801616
33 1 0.246338 0.889526 0.755394
54 1 0.182087 0.88454 0.0140653
6 1 0.487457 0.801588 0.98201
19 1 0.480612 0.87195 0.736817
2 1 0.859238 0.894452 0.496979
36 1 0.607385 0.55576 0.914536
35 1 0.930924 0.48604 0.948257
58 1 0.574629 0.698659 0.711572
11 1 0.977306 0.680547 0.743952
60 1 0.772275 0.74768 0.631923
38 1 0.827954 0.794735 0.893424
10 1 0.0246055 0.896952 0.747718
ITEM: TIMESTEP
130
ITEM: NUMBER OF ATOMS
64
ITEM: BOX BOUNDS pp pp pp
1.8456526053966194e-02 1.0842943473946228e+01
1.8456526053966194e-02 1.0842943473946228e+01
1.8456526053966194e-02 1.0842943473946228e+01
ITEM: ATOMS id type xs ys zs
5 1 0.169247 0.0532642 0.174985
8 1 0.417252 0.379112 0.0350949
17 1 0.418258 0.00719602 0.234007
29 1 0.53583 0.0138728 0.0243192
44 1 0.117124 0.436629 0.0719552