-6855.7897445239205
-6853.807205001742
-6855.05016142379
-6855.291282992848
-6854.343515254804
-6853.645303118188
-6853.921574448128
-6854.664641965964
-6855.7544086371745
-6854.90772370706
-6854.035669603766
-6855.475051808419
-6855.79023215192
-6854.230943664548
-6855.065170542845
-6855.3804518405805
-6854.598316258645
-6852.94308941152
-6853.247306968747
-6853.8752633939275
-6853.10737188299
-6853.83160694628
-6853.328126139397
-6855.619715960577
-6854.538335701816
-6853.879978582524
-6853.17494210295
-6854.569031095215
-6854.844930173424
-6854.389042349035
-6853.585645968657
-6853.308627958345
-6855.324417342584
-6855.516574883572
-6855.360772159598
-6855.419783310877
-6853.954616823386
-6853.634850409305
-6855.496285803648
-6854.151425470161
-6853.591301174509
-6854.7467010233195
-6854.54633067851
-6855.433655130144
-6855.683903805522
-6853.801482583771
-6854.984409876671
-6853.9863025751
-6854.446399320288
-6853.247604661286
-6855.306908993977
-6853.535963287939
-6853.290412385872
-6855.06835019305
-6854.854032789497
-6855.440698116573
-6854.520013596775
-6855.358065307189
-6854.113580557765
-6855.055779077932
-6853.96853381355
-6855.539285912717
-6854.770266898088
-6853.650163887689
-6854.197117737493
-6855.476157815116
-6855.240191306673
-6854.532291373175
-6854.605924833688
-6853.875252645431
-6855.171663382059
-6855.649051601124
-6854.521132800994
-6854.744527922204
-6854.787857833246
-6854.65509104234
-6852.6986532237925
-6852.886732594681
-6854.85479185105
-6854.371287737405
-6853.826561955711
-6854.003931470137
-6854.5157701175185
-6854.765409530012
-6854.293371341128
-6854.6620668166515
-6854.550946545555
-6854.641736783595
-6854.221268793072
-6854.022014795285
-6854.868151960243
-6855.516343722866
-6854.37744091158
-6853.713131029954
-6855.30222033648
-6854.056781011711
-6853.679636945724
-6853.581607255064
-6854.303120907854
-6854.0494889050615
