0.41406973636719013 -0.3160749675882556 0.16749991475860831 -0.10300482039901616 0.9195488749863131 -0.16896107268516708 0.2727963594052786 0.37489203772646407 -0.1635051917769184 -0.22244387509465563 -0.22241276474640406 0.5207607473685418 0.07465840804583918 -0.5427349376467879 -0.5724859436569754 -0.7276733595968178 -0.40979193492744265 -0.00666429939405304 -0.667719861861321 -0.5115767668764286 -0.20156960274880767 0.6143165065395162 0.5964841063437857 -0.10014112569797592 0.08037859835906802 -0.8444317821365005 -0.08594118004851006 0.05058105538166128 0.007272108181381025 0.36451866491194 -0.02385135269630086 0.7077591371713939 -0.25088310427195504 0.2953338783861623 -0.5541969155398004 0.33451877611574 0.21064019759150818 -0.5696456459947028 -0.6578411692950283 0.4734033411305008 0.7542925048462429 -0.145759180647407 -0.22425470305114925 -0.4579646379779274 0.6116479585684176 -0.20912967448425274 -0.2440833077413022 0.039492401667667466 -0.18757508824192856 -0.8644563048875434 0.43492343988774773 -0.46150453281038584 -0.10189950314997934 -0.22939459538087587 -0.3719586661297529 0.40391619287295594 0.7581280765422492 -0.055958774753806846 0.3659829081622923 -0.024139316250364876 -0.05647325249638016 0.2333983172236303 -0.6259702887283607 0.250647077001749 -0.4515273669930159 0.24167726940297085 0.2263740633869972 0.5965913213456112 -0.10982235754148183 -0.4499757062351799 0.598670315361827 -0.4339574764300526 -0.7350483119046503 0.17466892170322176 -0.4419934593606517 0.472493941942354 -0.5540413637985425 0.7107727271867372 0.3338572312723411 0.4915059642684826 -0.043205845963512686 -0.4544998193577785 0.2373297910675526 -0.43769868864003975 0.9816854964160576 0.6396925234104596 0.5087624373560852 -1.0467007249451779 -0.4097811362941652 -0.3086041131325072 -0.44165021708862 -0.34607177106066206 1.1559325000905125 1.0127433941631268 0.017767608396066174 -0.5729957934138583 -0.006987229951110547 0.5351614961749042 -0.7628463079535249 0.1980057966569493 0.4757924101879677 0.28715159968568615 -0.08555088658862685 -1.041260013545581 -0.551299025166715 0.14621143769347725 0.741805942343458 0.5356847156682258 0.13819885180164587 -0.48367386981857347 0.13048451387652368 -0.3381869689959466 0.2058224644878907 -0.7858448257312273 -0.421331560135926 0.010875509261923206 -0.6488829316604761 -0.12635532219949852 -0.3813485919850852 0.6665245560016392 0.18807028271079224 0.09300605731509144 0.3970222939666001 -0.6593594057117677 -0.15553168665313857 0.10116673874901286 -0.14677039552074078 -0.10970717211985623 0.15074969188346293 0.6803894869091895 0.2723736700455631 -0.10457859264403925 0.2072648533613721 0.5103588353089274 -0.21377848611017375 -0.7653521050945141 -0.4859140720030018 0.6431910234820213 0.45103911450268774 -0.08735117302215924 -0.6907055241232168 0.4003307895145428 0.41323592761198513 0.10736026915423447 0.20784875088930013 -0.23617305175529005 0.06309230047479457 0.4661893398805648 -0.059383998385271926 -0.20583274890053582 0.1561541507284859 0.005932820544667201 -0.37072042284727763 0.6794579762338556 -0.6769344384810535 0.705511735898114 0.06341677369374885 -0.595475205463297 -0.005344552141364989 -0.08544032915269155 0.3784306470073418 0.3358076701304926 0.19571571507119198 -0.011480489835773777 -0.6048124237038229 -0.6212926807470333 0.022331573617664763 0.20114485650656327 -0.2883649032674969 0.006506690770266213 -0.42343215141869656 0.5539030384484653 0.49345126092031144 -0.12788384302888298 0.018820732250928878 -0.040867941858955426 -0.39579819175151193 0.785308493611783 0.21696125471352956 -0.08889357780861465 -1.1468045696473153 0.10241758043697845 0.6644964698280169 0.054021705632094054 0.2640733777099839 0.5834964358348661 -0.16148481891277996 0.46388614566868497 0.44366364797422303 -0.06162291501811969 -0.5664024564670567 -0.3029960229171105
-0.017852197690072482 -1.247527021770058 1.292477361228503 -1.2806762548285169 0.09860129201468179 0.44463269675571165 0.0008651762137727035 -1.5014838798713304 -0.015215788508489925 -0.06831343966441783 -0.5291636267202564 1.8406373265456042 -0.17894878002549827 -0.5644797855230472 -0.6978688746408755 0.44606660098876083 -1.403431518381583 0.9104227443153289 -0.6537945100294804 -0.9265996111855075 -0.8705428774012555 0.18436403750379862 -0.38210423920418707 1.1212956267429333 -0.14574838201412965 -1.093796649991716 -0.5392804034392842 -0.6952234665982285 0.34975436211857186 0.4923451723403262 -1.503124757908863 0.7736441698999773 1.341928159660463 0.025510999786910904 0.1921753060181013 0.34845698346338694 -1.0723441365448954 -0.5025933324308957 1.032380451667764 0.46185857371569494 0.24923374159399012 -0.10566179840588899 -0.2735376084466773 -0.139990653594746 1.5106902289609467 -0.3593296645118328 0.21718982578456789 -0.003935073388348062 1.1255317763114678 0.131744868646186 0.15375685414090293 0.6223062096132121 0.4579800645968951 0.4844523998558109 -0.23346002369950117 -0.14260186596534796 -0.5286560909562185 0.5288535516790054 1.0449305204186328 -0.044871406591393694 -0.5367293548826563 1.5337453110081973 0.33141982547544213 0.6090174629241061 -0.1459368438758519 0.5897534724881714 -0.21737314543996758 0.581606932121637 1.0736420294207123 0.6810026950131562 1.5989027215421365 0.03813228809534723 -1.0826056663719033 -1.323334970039308 0.21713043330154216 0.14364059164250745 0.2391691582691365 0.32921664717653626 -0.2385109558598473 -0.3756255734583788 0.606276152733543 0.2979749155534352 -0.25809864818378775 -0.024698274077628434 -0.020173389624081384 -0.7710689529736333 0.607759936367921 0.3346352470889463 -1.1176734566093138 -0.6485386609471798 1.5208270602846323 -0.15038562367582486 -0.37805937971085213 -0.7333650106649563 0.42922356128949307 0.1731514566174308 -0.02773757512458449 -0.038174968407824576 -0.0535355100242949 -0.3302132067618507 0.016542477739713447 0.2295411482610692 -0.8888182786716757 0.21249756251522117 0.1642646956507623 0.8819979133157327 0.2636118646925331 0.7188696452622587 -0.5235969312657563 0.32596702989098697 -0.30879720297991975 -0.6461164246589325 -0.4518765228023185 0.290572452441777 0.29338009709390117 0.11634601759261255 0.12817746300990182 0.3457087312942885 0.23076422203489289 0.48976738431082106 0.2847527604362064 -0.8169469464526704 -0.6340096140930694 1.1953544535315608 -0.5016949889863423 0.2556100774339791 0.2527103872886809 1.4759911349168646 -0.27276602038797537 0.5185801947774553 0.12732334253972266 -0.01777429326428552 -0.5729222598634456 1.3675404609119286 -0.6494156642354943 0.3023028535048277 1.2214496079567159 0.08367423839120428 0.036529462384601606 0.31282946406776446 1.060918925427089 0.7191594085885357 1.133823584006615 -0.4860110025921824 -0.3304037255061019 0.5628093397991598 -0.665724428697847 0.33741872337135437 -0.5601189374511902 -0.4092774571848693 -0.6701801504763555 -0.703272305044634 -1.558324543009458 -0.2628888704835795 0.5245155864252838 -0.42367023557143163 -0.4274214750837478 -0.7637068561816073 0.10481539124519368 0.8755567856760792 -0.771164083790601 -1.2491596722774747 -0.6051078434570546 -0.504179445971093 -1.6497452581153007 0.8406111228388298 0.0029272009491239912 -0.6171408633621889 0.9039170819863271 -0.26749371624544255 -0.6219979343441739 -0.26588163456331626 0.43554538974246276 -1.228866212135761 -0.7814960618442283 0.2921202565448711 -0.6616145202945315 1.7154199746052907 -0.30128289688074567 -1.0106286618129692 -0.6761620790914032 -0.40268360601743547 -0.5553595683893339 -0.18783219855805716 1.1962846786553138 -0.09366888771007094 -0.5872546173257177 -0.5027262584643342 -0.8649977792133103 0.6092899998592023 1.4444267298470221 -0.5763554539147107
-1.0063467466081637 0.6160939101549131 -0.9964354010317226 -0.9697738325801364 -0.03206062797997059 -0.44307332268839184 -0.40390488001904623 -0.1332916443080156 0.9288557542095357 -0.5363727428741859 -0.11952055866585223 -0.18163866815283558 -0.31581939993402386 1.2364478811377608 -0.37694480649043466 -0.12501577745246856 1.2013374105878731 -0.6413269736900891 -0.18809419397019217 0.03814051562546335 -0.4334339998264148 -0.25894479823416694 0.9715368380178301 -0.6465424564527574 1.04167447537518 0.21925802116750628 -0.27709472967031634 -0.07198574630968246 -0.5564039504934483 -0.16240835916831386 -1.3679076144433604 -0.08257509178975456 -0.5541894593406327 0.5661021516178185 -0.3064546708896722 0.6917730461557828 -0.25483720382369657 0.18969650546030556 -0.8015794628576647 0.363721108711309 -0.31630482421087464 0.22709860025784762 0.6636780876917796 -0.10483775984269687 -0.12228449456423457 -0.49658543567391894 -0.4785000389271178 -0.15490536592304935 1.2226377147275458 0.21759348898088976 0.018594475172735717 -0.346031661851346 -0.5960143657962187 0.08310448193066332 -1.4236041366747159 0.46839971726832236 0.26629686772386396 -0.2224652152508943 0.2201337389042402 -0.6041796752158304 0.5094280959645421 -1.4323178623986301 0.04650508554007475 -0.16259733525066836 0.10892812786198659 -0.4208489640725527 0.2914545979364142 0.47985372474153487 -0.8515467959147269 0.4172157381953395 -1.1054797427565994 0.12112209882501719 -1.2720134369471965 0.20296005533843114 0.005254563530719983 0.5878855660414972 -0.46588029328057834 0.0010037586741660132 0.19309216140541582 -0.21848026246121727 -0.3654668877578222 -0.10125492758744498 0.5711715957209259 0.2688931676961305 1.0084301114997536 0.8875442970552585 -0.23281056304096032 -0.22963602196772068 0.28006821047634345 -0.5434365916995028 0.9808072075761625 0.36672621408622 0.15479635114901083 0.5548013818930188 -0.24709046999874223 0.8533576238712205 -0.36966087123451175 0.6729551421183313 -0.031259472234913904 -0.967305830655618 -0.1499135691354128 -0.4893845470501056 0.3671571309760515 0.6087050738900097 0.18862641232457836 0.046505599760707006 0.341145023183006 -0.8843106206093093 -0.028314016453344786 -0.37942103594506915 -0.6871098363521586 -0.5103950878635016 1.1256395055339259 -0.8197782452538784 -0.31500384601126397 -0.45054829090919823 0.6110640610404896 -0.6915197924943961 -0.063992957912193 1.1896545749333058 1.339248555945771 -0.10326578736988666 0.25672645042660946 0.3112592913671672 0.016792131856674306 -0.29840866065674415 0.5114153015978999 -0.18219608331820236 -0.35332870973339153 -0.6837563464988933 -0.018885009829961025 0.6840422531704283 -0.6128571483851704 -0.7278613072379078 0.8424150088167878 -0.018377731176239316 -1.485925620421757 0.4141070173630288 0.5639251985711579 0.4341778199709748 -0.896304816856708 0.8694840971194381 -0.12088530022386276 0.365870293843828 -1.239295377888885 -0.24041177242698591 0.7622143307964808 -0.39056291149450156 0.9071145058777023 0.2019583535467941 0.5261006715242166 -0.28299489720483517 0.7769449521384362 0.8635471628097128 -0.2993532839582006 0.8345376629512401 0.41637344479970223 0.3682565346878174 -0.37977944772575245 1.0890246825243697 0.5950478881178913 0.47506504510363995 0.209866038429645 -0.10799301764222691 0.6101425776674847 0.010852369333471633 -0.02646487905974797 -0.27626400623890485 -0.7328029675138993 -0.24305023849109755 0.5171210937334255 -0.11845740750866052 0.2961635733763093 0.18633221697376295 -0.05330333940883079 -0.005663111823048311 -0.6077200842689211 1.2804433128821047 0.3646914430443784 1.1389485639380064 -0.4707520195505828 -0.2798877190344212 -0.06882586052446212 -0.14488166313846018 -1.2452343690811394 0.6421468984882232 -0.11826277499935116 -0.5497465930779306 -0.7910821628707666 0.4125697547828959 -0.8476711150094046 1.0291295488306342
0.8622436135069408 -0.5255329719462046 0.38194200259471 1.2204229664644144 -0.4019531556093142 0.12710402744006497 0.3537308302678166 -0.10454773940610383 0.4067423494678414 -0.6129808184472282 -0.3023815292615631 -0.1556710404444803 -0.5896478001482425 0.4993665979634819 -0.9363888293617874 0.5988472072593234 -0.3061181134858599 0.19379664367160818 -0.3350990740992422 -0.4346506458423353 0.49178364340990144 -0.20239569819452882 0.02348651315771439 -0.8478246098681333 -0.40567868409001745 -0.5718097435255572 0.46981973754430056 -0.6320416917334211 -0.005846174368131867 -0.426884114523039 1.1343079798422013 0.077047477103306 -1.5999586736104767 -0.03865165093392699 -0.6566911148509851 -0.2093253354348266 0.28416294937100733 0.4710937191607177 0.45263037024920755 -0.4976434446247881 0.4707011117079894 0.41002333421195836 0.5143923819483528 0.07506129991121266 -1.2046675034023704 -0.1944795286712457 0.354795266976589 0.09241804602210535 -1.2286463828154712 -0.20463487193769275 0.17892872542084023 0.027141850522114545 0.16731659510320862 0.5977601448427318 1.0467220651014166 -0.2299162722123008 -0.004493002774347101 0.35590418377005156 -0.33518546316546144 -0.33790774719263095 0.44141136160493655 -0.3524349942745285 -0.3151005194901283 -0.08328368782100495 0.008236528977179363 -0.9102869900684128 -0.5392791178877034 0.2399530876230125 -0.22105162273281934 -0.49779668237320074 0.7371776995428272 -0.8439869812895981 0.6670428903989544 -0.2382458751239187 -0.429423336005125 -0.6086006871016615 -0.18423676789731494 -0.35242445275156725 -0.018555908625316427 0.6289409413209104 -0.014156751116356264 0.7343546282717353 -0.2996553885796517 0.165803758003108 0.17542354048105918 0.5183143427105783 -0.6575650328155063 -0.5637290233999517 -0.2624173301637997 0.47494188926221437 -0.43283313301762233 -0.28557165679307595 -0.14175263059117524 -0.7339491653032005 0.7100972983862673 -0.30376786808612843 0.3242279357126932 0.31895126069478613 -0.18034823147618617 0.17417475567562263 -0.34667366631071905 -0.21251144647229206 0.07514640342585123 0.8736302580773276 -0.2916255762966397 0.6035194159240123 -0.08687731870953426 0.3015762597514484 -0.6035286718953928 0.4018726800803659 -0.17018466067962304 0.3716596468320954 0.44664432786910174 0.0006900840884891341 0.09131709964844273 -0.7323792497129193 0.062212983193634795 -0.4160872810178512 0.6823643512473733 0.1707407902934092 -1.1166632701772445 -0.4112533499643175 -0.0011312853909657937 -0.42657481081273635 0.1871259165196519 -0.8671449074633001 -0.3744431231145035 0.3163714157827519 0.24978035812607952 0.4658106163849074 -0.11754209478324273 0.7641496001459808 0.6536548991278226 0.573598974215496 0.6609959128739261 -0.8414809270382927 0.10148144177595426 -0.6180965424072387 0.12338415538631656 0.34419280887039433 -0.34166284335968894 -0.6807340147328018 -0.4417700304959359 -0.2640944607559065 1.4460321266609288 -0.6632116895783224 0.03704162613432975 -0.10197586491386955 -0.6860837090804893 0.6999219005151623 -0.13490783975519993 -0.10204142804448232 0.1946924160130002 0.5684107451463372 -0.5326222746928182 -0.5463257403218398 -0.5581834109913741 0.11465423171248641 0.027997256543874364 -0.7951496480719209 -0.06785295508823153 0.5785555468898229 -0.047626086518395394 0.39070149395489484 0.8612416546049878 0.5719987196079116 0.13421672722544628 0.9183743950622377 0.08349760360402395 0.06498694639434614 1.2546068114349749 -0.15434615098546964 0.1354570273904506 0.0542199376858292 -0.09005803043036104 0.585215989629134 0.8580884536879867 -0.5313961155952008 -0.749240030024 0.3177261300384335 1.0361077799206801 0.3173237523936922 0.13439464756420727 -0.23342248559334638 0.4975318587475883 -0.24264914639793694 0.6639285131396888 -0.8655533946064642 0.6973268860944765 -0.3471084398552925 0.03702105730903947 0.3603820170357471
-0.11957635160445214 0.6804617349080216 1.4599597924856145 0.07775453047265965 -0.04471199819539397 0.7531753605226642 0.3456454821565209 1.5306059940482672 -0.879117249333828 0.5160502292667499 -0.6327346040353877 1.3383514980527982 0.5287067416884959 0.033142291079923565 -0.09043443993317328 0.2920791188942905 1.33963910651597 1.01654065642203 -0.2076204369285779 -0.22761590621389835 0.6593612054839805 0.4705535303865316 -0.11816121642448038 -0.3728256421157386 -1.0233597362263924 0.5858302261743653 0.23933190909924593 -0.3615881215287063 -0.17012706796881025 1.0500912386839658 0.3785077801021804 -1.25091393596442 0.8702034917839658 -0.14413964276611307 -0.536085036430438 0.5295055834407074 0.5891616045404434 -0.05267624734779315 -0.5109411901749588 -0.17318899472358562 0.7151837117702392 -0.300841695578269 -0.30019917689826364 -0.4720020899076 0.9722721735219578 0.07774758849412416 -0.13694029680419642 0.6209656364249176 -0.1992980331058116 0.9497786204051322 -0.022537261870567638 0.0006440613419021166 -0.23417479037833863 -0.4956161297821141 0.31418983475040085 0.9167911097355179 0.68259369364936 0.584927768964754 -0.7563162201444911 1.4583608234296108 -0.6729996222030216 -1.1377432307759954 0.6004448907637465 -0.18540482006348713 -0.3235810461573137 0.415755094489413 0.08913577572640778 -0.08654744617394128 0.46056376616367134 0.21371549408272228 -1.0721145370325922 -0.4109605013142471 0.10633234211035236 1.8826609792755575 -0.4254774639834995 -0.2907714558264605 -0.5483911074913007 -0.17483630051902146 0.4567914436054326 0.5959578015266704 0.18857190493755913 0.46003848978782064 0.049048677897534886 0.45210432254240845 -1.1810691472571402 1.8698314316110571 0.5064738984322245 0.09559901485324826 0.8574438781254523 -0.15804468288297943 0.47249137083919274 0.9877399301402537 0.4637884437485561 -0.3222942090250901 -0.32662548941059233 -0.5727322553398265 0.4380483586699746 -0.039486231020080385 -0.42812801423246916 -0.2627603153255152 0.5987806156874462 0.6188994979245083 -0.06477225928037876 -0.1694652660150952 -0.4045034328349936 0.06858880481299155 0.0003717815171219404 0.5396706968991674 0.5550986014184633 -0.26000486406756507 -0.545266702929706 -0.1278887281248894 0.4649253855664767 0.22607067321396548 -0.11461515094443486 -0.4111700462218919 -0.5302995400969125 0.3627731429757429 0.32065127410502847 0.3944645605417529 -0.3368137427975038 -0.4665333534835449 0.23180269060173628 0.3065040360703689 -0.059262642316059225 0.08811710465390632 -0.04213138195241131 -2.453547182545581 0.05698335936357928 -0.7745777374578401 0.2803140079385624 0.17876751725262763 0.8239272344252455 -1.4828120144934398 -1.2511355650569225 0.8252027587035594 -1.7062799599772356 0.04446722917443954 0.5748780980382358 0.29763244461235194 0.6556745006610127 -0.9608441341906742 -2.3587436670104345 0.26308658831668236 -0.08526266592424671 0.05079522827499639 -0.563015799383011 -0.4799534835441928 1.238389321134848 -0.16508384911794796 -0.3826068898722185 0.8054937103104063 -0.9152286503444044 -0.2739361294366766 -0.4853281175925448 -0.23842328124204745 0.4804170534441726 1.2006637815596162 0.3071588960455484 -0.2700144257847672 0.01109173903778735 -1.4125540495081415 -0.5685326154361822 1.0946484564690502 -0.7344795838853737 0.1324084703721139 -0.5367278122207595 -0.36865685545002963 0.48059703066546267 0.4554182174069899 -1.2803654084563176 -0.21462232216770777 0.42790715647091465 -0.738556839278541 -0.26363140507655886 -0.3748370161188125 0.11557802907833643 -0.2982510520329573 0.7123220739517281 -1.192535753135843 0.10379363484889867 0.08712337328206932 0.034914552488997934 -0.4059651049821847 -0.7740730299072798 -1.831987107069774 -0.6757746138449974 0.1776503729290489 -0.8079974505688665 0.5621555082652447 -1.5125609636210984 -0.6714883277648178
1.5628795093699923 -0.9725159141016476 0.41696659829901095 2.155595149810281 -0.89808453446495 0.8417768610121567 -0.5320394056061547 -1.0640996371479157 -0.385545146564936 0.3610183650681653 0.11801594909586771 1.1335608172635316 0.4606725238273937 0.4672098107252793 0.2978795276261515 0.7255678832180408 -0.6738611988723685 0.33992966271866615 0.34013175142714325 -0.6699065850999947 0.6518317298761549 0.1420948444219424 0.12572411637340283 -0.1612351647958191 -0.7811091108184548 -0.21867129542610084 0.053637839930114076 0.3993242026268994 -0.8611642643998332 0.9297304435050053 2.501586959562627 -1.4495339691666005 1.4478732936347256 0.3526106006204443 -0.1063498256118491 0.030451117401005617 0.4773013906333263 0.6937124292703408 0.18544467216248708 -0.851473005253998 0.37078135799220013 -0.5800655557764461 -0.3161382167260233 -0.005431969648848709 -0.5203817667625683 0.26918395946367196 0.4172728166855201 0.32856487252515026 -2.574060444142005 0.9863577050807466 -0.6337674161752762 -0.16202706456949514 -0.5078620370290028 0.011926319123940751 2.2016896301754985 0.26286213101070216 -1.0233605075573406 -0.7355705029567075 -0.5815889343995081 0.12368317468397406 0.11726904362751417 0.7749778011097362 0.7611565789559279 0.3725371643410422 0.09695527177082656 -1.050149859836043 -0.1605209123376139 -0.305440627802861 0.824028278779484 -1.3718367742944375 0.25516373392517994 0.07220171897523049 2.3998167829016603 -0.6959729431697433 0.34069687990199393 -0.49801214081811646 -0.47479559349233713 0.1627775695822745 -0.24673282954900733 0.3159561826222042 0.2259493171447528 0.41037634667600287 0.7950822851690952 -0.3221134604728517 -0.10983521305728827 -0.7074678311832203 0.4419518074894389 0.23853846666367304 0.30721417476351603 -0.4229837510273683 -1.6469828648788152 0.8096360146135542 -0.9228409154740237 -0.20392730434770684 -0.0688626272996685 0.7112604654564332 0.3258567295653679 -0.40810194881952944 -0.2976974935223325 1.4347598961812194 0.554258107795039 0.2902361521482808 -0.183960888528109 -0.5190069979022288 0.13747842869585353 0.6498468382356422 -0.396432225791085 -0.7962020005958352 -0.5177756965982889 -0.798107188038348 0.780013820871747 0.4621151698111912 0.19286384744469368 0.5710566674096166 -0.6573135789263325 0.785208734809125 0.07530504049090257 0.6261201840426637 -0.9747232061656116 0.13331324157457042 -2.0727513777401723 -0.7409788184564723 0.8562462582729254 -2.1963792737061785 0.028598894683615265 -0.34653739784317095 0.5341975895997381 0.6249534174280721 0.5442174357295853 -0.2096654923830647 0.388368474946344 -0.7532424663151737 0.7446603810731175 0.25797549234236217 0.5515993300159532 0.7201045461106242 0.4439446695497516 -0.16269092340573915 -0.7394215012716814 0.37064997462065846 -0.6980866470786364 -1.5277757236883236 0.5117140637852413 0.4774260891366487 2.6249562025506084 -0.14470168591717014 -0.4423595844508188 0.06338952000023922 0.06153575462095209 0.1333034713825575 -0.6086099430730422 -0.5956181587990644 -0.5849887041096764 -0.2200859163854403 0.13647595557326817 -0.7620256118244425 0.07842610261838752 -0.43188516728205617 -0.25138009851303156 -2.2051845307026343 0.2865936702996871 -0.1663801993318683 -0.3011445715306684 0.37421480915378136 -0.7496892017462766 -0.02358627196037228 0.09346654189127773 -0.2506061964614845 -0.781339481661706 0.790225471297426 0.07989780206790756 0.6970314663412447 -0.6108648005454899 0.02880509715715039 0.07410844907964012 0.7399490916403773 -0.5548116663056638 -2.820953196307645 0.82269233357688 -1.531909286240723 1.3997792663409763 -0.374581962685213 -0.5047700283672404 0.6380015088612818 0.8604489835003633 -0.02957822787774906 -0.6589032920109554 0.5582862551178257 0.3863280474775476 -0.6464311276858739 0.5772648531028575 -0.473107664266953
-1.8379559230586993 -0.6903620247408692 0.354975244197879 -1.24886245275203 0.48198568348287313 0.8645347235339625 -0.705229685881321 -0.16177252535652786 0.29979911324636754 -0.12509445320920393 -0.7804308538045076 0.8279276138338902 0.702636728343164 0.004326138179179646 0.06477508749385619 -0.5872276207425241 0.033994611777889844 1.7188408273613818 -0.4219877056626861 0.35258463247851535 0.08629599228476752 -0.2656985720182327 0.17914546941733664 -0.4865601902274329 0.6139966613062523 -0.7486972701466525 1.0356390678143776 -0.23948103308260044 -0.5611039270722789 0.4860308000865242 -1.1095595692529279 -0.6278214830044864 0.14414967006844207 0.22910714604744412 -0.48722430617399315 -0.6151503152947212 0.5246842507926641 0.6319822992503955 0.2885639066521804 -0.039573134306931844 0.01623343113972688 1.1405547320828615 0.6478249227096069 -0.1793928095414523 0.7768302809374428 -0.4351229574930635 0.8700327705340565 0.3097937625652342 1.4675270633099113 0.17232407562012905 0.708275157575864 0.3159998913759461 -0.09045038077277326 0.5395704238758772 -1.6205357264308802 0.5153853419892414 0.3013775134770809 -0.2512983374325027 -0.3559854306299482 1.999400632762163 0.1501747932165994 0.7881953282412748 -0.47231345050043166 0.8363299789649724 -0.7346737021740508 -0.48879473598490664 -0.6538927261702416 -0.008741493638055911 1.0743768507042077 1.7543793865876238 0.3805302098488479 0.5684292570890985 -1.1451351523646922 -0.3780357255617683 0.21090245011395936 -0.6126856558043126 0.15567952508491253 -0.018113164660942996 0.3178955657367622 -0.18634455826893712 0.019920907293643108 0.5060635503676834 -0.11781771704213258 -0.5255080322455401 -0.08334050920086937 -1.0886158771217251 0.4956495541232109 -0.32806633562217696 -0.6661507176019882 0.327390649711391 0.8977060680796088 -0.38002370252607454 -0.7260635919075367 0.7691822774738818 0.0004237178009799154 0.062466751075653706 -0.414831297123563 -0.5580800526442905 -0.16738318667508592 -2.1368047565766553 -0.3744068705599294 -0.5680312503197315 0.2785414894191719 0.9190958466092944 0.6915375331062089 -0.24375472075728988 0.2920127844327293 -0.585595741566056 -0.5418173109285249 0.28524666935348936 0.4035801496897759 0.7585273688631969 -0.6296798763694639 -0.27568473669666715 0.4863768705720334 0.20405920193988084 0.09195319057054487 0.007825666692005878 0.023766763402294555 -0.20371544544721687 1.557030506788383 -0.10986040986826887 -0.10539388945648301 1.6537340675597199 0.13649266774381655 0.26430991920082225 -0.25190357511666944 0.4946607078473804 -0.7120644494149673 0.3266324313891278 -0.051860179204401 0.5031600035676431 0.1306575491192782 1.3497389139541336 -0.06323114004550401 -0.45511662700617106 1.193825418481544 -0.8631918363528231 0.169108911116941 -0.09177115646672583 0.3635683851835287 0.9702823967854386 0.18586273353651217 -0.37797119087242 -1.3606817861188822 0.2718404232499125 -0.36037456083657937 -0.7510932811826548 -1.3875395297416748 -0.38952264315544527 0.40475462961385134 0.7170721870422037 -0.7025855633902545 -0.25454178407046485 0.02523434908675654 -0.05991955917376778 -0.016758964625893717 -0.17174814851200096 -0.007840836200657465 1.1752720809593888 -0.23156794888311089 -0.5118282207656023 -0.6058105259510341 0.5943817152888021 -0.8640552127943829 -0.8478716610559849 0.09256305624040187 0.5234187538166791 -0.524735929966206 -0.25593815019735927 -0.5922070762349865 0.19515598591298003 -0.16053891005974286 -1.5157064512286156 0.5119925142576086 0.36880212277864227 -0.31708386846874426 1.6981863843358238 -0.20912993159456886 -1.6624609059097561 -1.1589820855501138 -0.5054359440860134 -0.14900211306473693 -0.012610746785475056 1.427467476284864 -1.7204629363458368 0.6191545513581078 0.03992177589560221 0.44799544258035745 0.6113204000256698 -0.22366694886847932 -1.888177538218413