An instance of this daemon is already running
An instance of this daemon is already running

     Program PWSCF v.7.1 starts on  8May2023 at 15:15:42 

     This program is part of the open-source Quantum ESPRESSO suite
     for quantum simulation of materials; please cite
         "P. Giannozzi et al., J. Phys.:Condens. Matter 21 395502 (2009);
         "P. Giannozzi et al., J. Phys.:Condens. Matter 29 465901 (2017);
         "P. Giannozzi et al., J. Chem. Phys. 152 154105 (2020);
          URL http://www.quantum-espresso.org", 
     in publications or presentations arising from this work. More details at
     http://www.quantum-espresso.org/quote

     Parallel version (MPI & OpenMP), running on       4 processor cores
     Number of MPI processes:                 4
     Threads/MPI process:                     1

     MPI processes distributed on     1 nodes
     183909 MiB available memory on the printing compute node when the environment starts
 
     Reading input from pw-si-43.in
Warning: card &CELL ignored
Warning: card / ignored

     Current dimensions of program PWSCF are:
     Max number of different atomic species (ntypx) = 10
     Max number of k-points (npk) =  40000
     Max angular momentum in pseudopotentials (lmaxx) =  4

     IMPORTANT: XC functional enforced from input :
     Exchange-correlation= PBE
                           (   1   4   3   4   0   0   0)
     Any further DFT definition will be discarded
     Please, verify this is what you really want


     gamma-point specific algorithms are used
 
     K-points division:     npool     =       2
     R & G space division:  proc/nbgrp/npool/nimage =       2
     Subspace diagonalization in iterative solution of the eigenvalue problem:
     a serial algorithm will be used

     Message from routine divide_et_impera:
     suboptimal parallelization: some nodes have no k-points
 
     Parallelization info
     --------------------
     sticks:   dense  smooth     PW     G-vecs:    dense   smooth      PW
     Min        2061    2061    544                99265    99265   13489
     Max        2064    2064    545                99268    99268   13496
     Sum        4125    4125   1089               198533   198533   26985
 
     Using Slab Decomposition
 


     bravais-lattice index     =            0
     lattice parameter (alat)  =      20.7286  a.u.
     unit-cell volume          =    8943.7750 (a.u.)^3
     number of atoms/cell      =           64
     number of atomic types    =            1
     number of electrons       =       256.00
     number of Kohn-Sham states=          128
     kinetic-energy cutoff     =      30.0000  Ry
     charge density cutoff     =     120.0000  Ry
     scf convergence threshold =      1.0E-06
     mixing beta               =       0.5000
     number of iterations used =            8  plain     mixing
     Exchange-correlation= PBE
                           (   1   4   3   4   0   0   0)

     GPU acceleration is ACTIVE.
     GPU-aware MPI enabled

     Message from routine print_cuda_info:
     High GPU oversubscription detected. Are you sure this is what you want?

     celldm(1)=  20.728619  celldm(2)=   0.000000  celldm(3)=   0.000000
     celldm(4)=   0.000000  celldm(5)=   0.000000  celldm(6)=   0.000000

     crystal axes: (cart. coord. in units of alat)
               a(1) = (   1.000000   0.000000   0.000000 )  
               a(2) = (   0.000000   1.003501   0.000000 )  
               a(3) = (   0.000000   0.000000   1.000673 )  

     reciprocal axes: (cart. coord. in units 2 pi/alat)
               b(1) = (  1.000000  0.000000  0.000000 )  
               b(2) = (  0.000000  0.996511  0.000000 )  
               b(3) = (  0.000000  0.000000  0.999328 )  


     PseudoPot. # 1 for Si read from file:
     /home/ppiaggi/pseudos/Si_ONCV_PBE_sr.upf
     MD5 check sum: 8553c464762ac42b85b1eed164b4d029
     Pseudo is Norm-conserving, Zval =  4.0
     Generated using ONCVPSP code by D. R. Hamann
     Using radial grid of 1510 points,  4 beta functions with: 
                l(1) =   0
                l(2) =   0
                l(3) =   1
                l(4) =   1

     atomic species   valence    mass     pseudopotential
        Si             4.00    28.08500     Si( 1.00)

     No symmetry found



   Cartesian axes

     site n.     atom                  positions (alat units)
         1           Si  tau(   1) = (   0.0005885   0.0027932  -0.0039661  )
         2           Si  tau(   2) = (  -0.0012866   0.2548140   0.2492826  )
         3           Si  tau(   3) = (   0.2551407  -0.0038640   0.2540087  )
         4           Si  tau(   4) = (   0.2536620   0.2522519   0.0036038  )
         5           Si  tau(   5) = (   0.1275493   0.1232371   0.1223386  )
         6           Si  tau(   6) = (   0.5003449  -0.0043835  -0.0020054  )
         7           Si  tau(   7) = (   0.5042891   0.2549348   0.2451750  )
         8           Si  tau(   8) = (   0.6282141   0.1297769   0.1224630  )
         9           Si  tau(   9) = (   0.7530410   0.0019039   0.2494896  )
        10           Si  tau(  10) = (   0.7584621   0.2526637   0.0031895  )
        11           Si  tau(  11) = (  -0.0016797   0.5057642   0.0011184  )
        12           Si  tau(  12) = (   0.2497145   0.5038647   0.2510161  )
        13           Si  tau(  13) = (   0.1274015   0.6380437   0.1207807  )
        14           Si  tau(  14) = (   0.3772227   0.3767214   0.1255381  )
        15           Si  tau(  15) = (   0.4998856   0.5118927  -0.0020143  )
        16           Si  tau(  16) = (   0.6264021   0.6355360   0.1209395  )
        17           Si  tau(  17) = (   0.8799448   0.3779506   0.1205873  )
        18           Si  tau(  18) = (   0.7548482   0.5063720   0.2472876  )
        19           Si  tau(  19) = (  -0.0006379   0.7596947   0.2470542  )
        20           Si  tau(  20) = (   0.2536387   0.7634150   0.0015838  )
        21           Si  tau(  21) = (   0.3747017   0.8871043   0.1207058  )
        22           Si  tau(  22) = (   0.5081651   0.7626281   0.2541740  )
        23           Si  tau(  23) = (   0.7555560   0.7663685   0.0043117  )
        24           Si  tau(  24) = (   0.8851720   0.8857188   0.1234924  )
        25           Si  tau(  25) = (  -0.0017709  -0.0028248   0.4953878  )
        26           Si  tau(  26) = (   0.2529822   0.2581533   0.4952399  )
        27           Si  tau(  27) = (   0.1256786   0.1271232   0.6216254  )
        28           Si  tau(  28) = (   0.3742138   0.1251357   0.3703993  )
        29           Si  tau(  29) = (   0.5031799  -0.0032286   0.4985728  )
        30           Si  tau(  30) = (   0.6311450   0.1285032   0.6201899  )
        31           Si  tau(  31) = (   0.8866998   0.1296185   0.3768150  )
        32           Si  tau(  32) = (   0.7540788   0.2562155   0.4960673  )
        33           Si  tau(  33) = (   0.1287396   0.3800071   0.3779827  )
        34           Si  tau(  34) = (  -0.0007284   0.5083604   0.4959747  )
        35           Si  tau(  35) = (   0.1233929   0.6392784   0.6214507  )
        36           Si  tau(  36) = (   0.6264456   0.3822707   0.3736823  )
        37           Si  tau(  37) = (   0.3752492   0.6317989   0.3756080  )
        38           Si  tau(  38) = (   0.3824082   0.3774532   0.6245130  )
        39           Si  tau(  39) = (   0.5009111   0.5055317   0.4996169  )
        40           Si  tau(  40) = (   0.6314628   0.6379576   0.6206428  )
        41           Si  tau(  41) = (   0.8830924   0.6369378   0.3748907  )
        42           Si  tau(  42) = (   0.8843394   0.3827080   0.6226395  )
        43           Si  tau(  43) = (   0.1220580   0.8859727   0.3712898  )
        44           Si  tau(  44) = (   0.2554277   0.7624912   0.4975421  )
        45           Si  tau(  45) = (   0.6329475   0.8912945   0.3716151  )
        46           Si  tau(  46) = (   0.3816218   0.8874223   0.6252760  )
        47           Si  tau(  47) = (   0.7571402   0.7653955   0.4958280  )
        48           Si  tau(  48) = (   0.8834102   0.8867388   0.6222771  )
        49           Si  tau(  49) = (   0.0020012   0.2561265   0.7454219  )
        50           Si  tau(  50) = (   0.2524898   0.0043934   0.7466416  )
        51           Si  tau(  51) = (   0.3788734   0.1271434   0.8769268  )
        52           Si  tau(  52) = (   0.5061875   0.2534429   0.7475139  )
        53           Si  tau(  53) = (   0.7517816   0.0024285   0.7508646  )
        54           Si  tau(  54) = (   0.8821854   0.1241825   0.8715068  )
        55           Si  tau(  55) = (   0.1274923   0.3856514   0.8733079  )
        56           Si  tau(  56) = (   0.2526198   0.5091876   0.7485679  )
        57           Si  tau(  57) = (   0.6341603   0.3844350   0.8767060  )
        58           Si  tau(  58) = (   0.3748390   0.6376412   0.8759538  )
        59           Si  tau(  59) = (   0.7560741   0.5044657   0.7529656  )
        60           Si  tau(  60) = (   0.8820330   0.6387458   0.8749394  )
        61           Si  tau(  61) = (  -0.0003138   0.7605362   0.7489123  )
        62           Si  tau(  62) = (   0.1302287   0.8871115   0.8776314  )
        63           Si  tau(  63) = (   0.5054256   0.7609185   0.7476594  )
        64           Si  tau(  64) = (   0.6278500   0.8895555   0.8766020  )

     number of k points=     1
                       cart. coord. in units 2pi/alat
        k(    1) = (   0.0000000   0.0000000   0.0000000), wk =   2.0000000

     Dense  grid:    99267 G-vectors     FFT dimensions: (  75,  75,  75)

     Estimated max dynamical RAM per process >     146.62 MB

     Estimated total dynamical RAM >     562.25 MB

     Initial potential from superposition of free atoms

     starting charge     255.9608, renormalised to     256.0000
     Starting wfcs are  256 randomized atomic wfcs

     total cpu time spent up to now is        4.4 secs

     Self-consistent Calculation

     iteration #  1     ecut=    30.00 Ry     beta= 0.50
     Davidson diagonalization with overlap
     ethr =  1.00E-02,  avg # of iterations =  2.0

     Threshold (ethr) on eigenvalues was too large:
     Diagonalizing with lowered threshold

     Davidson diagonalization with overlap
     ethr =  6.44E-04,  avg # of iterations =  2.0

     total cpu time spent up to now is        4.6 secs

     total energy              =    -503.86096142 Ry
     estimated scf accuracy    <       1.84199858 Ry

     iteration #  2     ecut=    30.00 Ry     beta= 0.50
     Davidson diagonalization with overlap
     ethr =  7.20E-04,  avg # of iterations =  1.0

     total cpu time spent up to now is        4.6 secs

     total energy              =    -503.83445961 Ry
     estimated scf accuracy    <       0.36273996 Ry

     iteration #  3     ecut=    30.00 Ry     beta= 0.50
     Davidson diagonalization with overlap
     ethr =  1.42E-04,  avg # of iterations =  2.0

     total cpu time spent up to now is        4.7 secs

     total energy              =    -503.86076528 Ry
     estimated scf accuracy    <       0.00625976 Ry

     iteration #  4     ecut=    30.00 Ry     beta= 0.50
     Davidson diagonalization with overlap
     ethr =  2.45E-06,  avg # of iterations =  8.0

     total cpu time spent up to now is        4.9 secs

     total energy              =    -503.86491038 Ry
     estimated scf accuracy    <       0.00037875 Ry

     iteration #  5     ecut=    30.00 Ry     beta= 0.50
     Davidson diagonalization with overlap
     ethr =  1.48E-07,  avg # of iterations =  7.0

     total cpu time spent up to now is        5.0 secs

     total energy              =    -503.86510160 Ry
     estimated scf accuracy    <       0.00004665 Ry

     iteration #  6     ecut=    30.00 Ry     beta= 0.50
     Davidson diagonalization with overlap
     ethr =  1.82E-08,  avg # of iterations =  5.0

     total cpu time spent up to now is        5.1 secs

     total energy              =    -503.86511702 Ry
     estimated scf accuracy    <       0.00003201 Ry

     iteration #  7     ecut=    30.00 Ry     beta= 0.50
     Davidson diagonalization with overlap
     ethr =  1.25E-08,  avg # of iterations =  3.0

     total cpu time spent up to now is        5.2 secs

     total energy              =    -503.86512344 Ry
     estimated scf accuracy    <       0.00000238 Ry

     iteration #  8     ecut=    30.00 Ry     beta= 0.50
     Davidson diagonalization with overlap
     ethr =  9.31E-10,  avg # of iterations =  7.0

     total cpu time spent up to now is        5.4 secs

     total energy              =    -503.86512405 Ry
     estimated scf accuracy    <       0.00000131 Ry

     iteration #  9     ecut=    30.00 Ry     beta= 0.50
     Davidson diagonalization with overlap
     ethr =  5.11E-10,  avg # of iterations =  6.0

     total cpu time spent up to now is        5.5 secs

     End of self-consistent calculation

          k = 0.0000 0.0000 0.0000 ( 12427 PWs)   bands (ev):

    -5.8589  -4.8925  -4.8613  -4.8302  -4.7710  -4.7396  -4.6962  -4.0573
    -4.0166  -3.9833  -3.9084  -3.8984  -3.8665  -3.8451  -3.8141  -3.7672
    -3.7554  -3.6955  -3.6894  -3.6258  -3.5448  -3.4945  -3.4426  -2.0083
    -1.9529  -1.8783  -1.8081  -1.7970  -1.7687  -1.7361  -1.7096  -1.6858
    -1.6820  -1.6437  -1.6177  -1.5948  -1.5819  -1.5597  -1.5471  -1.5010
    -1.4877  -1.0030  -0.9129  -0.8994  -0.7735   0.3539   0.3733   0.4404
     0.4508   0.4586   0.4773   0.5024   0.5132   0.5338   0.5420   0.6017
     0.6368   2.0116   2.0193   2.0406   2.0700   2.1141   2.1205   2.1341
     2.1408   2.1701   2.1855   2.1992   2.2218   2.2341   2.2674   2.2900
     2.3001   2.3234   2.3326   2.3394   2.3453   2.3673   2.3759   2.3911
     2.4093   2.4251   2.4548   2.4674   2.4800   2.5048   2.5357   3.0722
     3.1014   3.1415   3.1597   3.1824   3.2134   3.9454   3.9725   4.0197
     4.0317   4.0582   4.0809   4.1131   4.1362   4.1574   4.1782   4.2081
     4.2380   4.2941   4.3494   4.5426   4.5510   4.5948   4.6283   4.6498
     4.6877   4.6953   4.7233   4.7496   4.7597   4.7635   4.7713   4.7988
     4.8129   4.8429   4.8754   4.9012   4.9749   5.8350   5.9668   6.0536

     highest occupied level (ev):     6.0536

!    total energy              =    -503.86512417 Ry
     estimated scf accuracy    <       0.00000017 Ry

     The total energy is the sum of the following terms:
     one-electron contribution =     142.70259239 Ry
     hartree contribution      =      37.54098410 Ry
     xc contribution           =    -153.34538551 Ry
     ewald contribution        =    -530.76331516 Ry

     convergence has been achieved in   9 iterations

     Forces acting on atoms (cartesian axes, Ry/au):

     atom    1 type  1   force =     0.02829662    0.01275050    0.00563862
     atom    2 type  1   force =     0.04774029   -0.00221368   -0.00735895
     atom    3 type  1   force =    -0.02860408    0.03520207   -0.03487201
     atom    4 type  1   force =    -0.01312629    0.00734118   -0.02743493
     atom    5 type  1   force =    -0.00096664    0.01291620    0.02401945
     atom    6 type  1   force =     0.00794148    0.06426453    0.00659084
     atom    7 type  1   force =    -0.00449073   -0.01102581    0.02206036
     atom    8 type  1   force =    -0.00229168   -0.02062898   -0.00124635
     atom    9 type  1   force =     0.03757555    0.04923311   -0.02064022
     atom   10 type  1   force =    -0.01310492   -0.00747244   -0.03779328
     atom   11 type  1   force =     0.03063035    0.02346902   -0.02007440
     atom   12 type  1   force =     0.00668007    0.01765990   -0.01588103
     atom   13 type  1   force =    -0.00475166   -0.03145912    0.01877540
     atom   14 type  1   force =     0.00187956    0.02976920   -0.00591081
     atom   15 type  1   force =     0.00338715   -0.02200692    0.00174783
     atom   16 type  1   force =     0.01241155    0.00091069    0.02104689
     atom   17 type  1   force =    -0.01318655    0.01249746    0.03359381
     atom   18 type  1   force =    -0.00379101    0.01102796   -0.00181667
     atom   19 type  1   force =     0.03287522   -0.00727576    0.00023667
     atom   20 type  1   force =    -0.00900539   -0.01419985   -0.01658466
     atom   21 type  1   force =     0.02550055   -0.03754909    0.04526636
     atom   22 type  1   force =    -0.02705987   -0.01486586   -0.02444288
     atom   23 type  1   force =    -0.00569433   -0.02157883   -0.02689191
     atom   24 type  1   force =    -0.04001200    0.00141900    0.01217443
     atom   25 type  1   force =     0.04106569    0.04908882    0.01475059
     atom   26 type  1   force =     0.01056291   -0.03170176    0.02532532
     atom   27 type  1   force =     0.00374831    0.00761132   -0.01402599
     atom   28 type  1   force =     0.02988842    0.01942243    0.01746440
     atom   29 type  1   force =     0.00639156    0.05740993   -0.00928139
     atom   30 type  1   force =    -0.00983674   -0.00347966    0.00478483
     atom   31 type  1   force =    -0.05941527   -0.00193236   -0.01631273
     atom   32 type  1   force =     0.01429627    0.00310152    0.00838590
     atom   33 type  1   force =    -0.02846104    0.00976450   -0.02583636
     atom   34 type  1   force =     0.03478169    0.00594217    0.01343392
     atom   35 type  1   force =     0.01877003   -0.02125517    0.00065497
     atom   36 type  1   force =     0.00608519   -0.00312732   -0.00841810
     atom   37 type  1   force =     0.01351369    0.00345388   -0.01041445
     atom   38 type  1   force =    -0.02171465    0.01349267    0.00501074
     atom   39 type  1   force =     0.01315131    0.01659098    0.00284526
     atom   40 type  1   force =     0.00001768   -0.02569161    0.00822578
     atom   41 type  1   force =    -0.03921601   -0.01455673   -0.01797382
     atom   42 type  1   force =    -0.04431693   -0.00341952    0.00055667
     atom   43 type  1   force =     0.02338353   -0.04003965    0.00819345
     atom   44 type  1   force =    -0.01966253    0.00095899    0.00677163
     atom   45 type  1   force =    -0.01568236   -0.04180831    0.01992318
     atom   46 type  1   force =    -0.01884378   -0.02997847    0.00231146
     atom   47 type  1   force =    -0.00176095   -0.01218484    0.00694376
     atom   48 type  1   force =    -0.04641453   -0.02319102    0.02770329
     atom   49 type  1   force =     0.02274279   -0.00863849    0.01715846
     atom   50 type  1   force =     0.00413202    0.01675407    0.01328055
     atom   51 type  1   force =    -0.00098998    0.00888587   -0.01495140
     atom   52 type  1   force =     0.01074367   -0.00144520    0.02283525
     atom   53 type  1   force =     0.01394721    0.01925332   -0.02278154
     atom   54 type  1   force =    -0.02451101    0.03327492   -0.00062536
     atom   55 type  1   force =     0.00135053   -0.02473595    0.01193878
     atom   56 type  1   force =    -0.00056182    0.00587642   -0.01288559
     atom   57 type  1   force =    -0.02777362   -0.02254417    0.00807874
     atom   58 type  1   force =     0.00994381   -0.00411874   -0.01728573
     atom   59 type  1   force =     0.01285720    0.03559721   -0.02560396
     atom   60 type  1   force =    -0.03599662   -0.02000956    0.01422396
     atom   61 type  1   force =     0.03528780    0.01184829    0.00664750
     atom   62 type  1   force =    -0.01044437   -0.02017277   -0.02610468
     atom   63 type  1   force =     0.00035058   -0.00482677    0.01476338
     atom   64 type  1   force =     0.00975711   -0.04765372   -0.00991324

     Total force =     0.300226     Total SCF correction =     0.000674


     Computing stress (Cartesian axis) and pressure

          total   stress  (Ry/bohr**3)                   (kbar)     P=        2.09
   0.00002289   0.00001532  -0.00004142            3.37        2.25       -6.09
   0.00001532  -0.00000495  -0.00004163            2.25       -0.73       -6.12
  -0.00004142  -0.00004163   0.00002471           -6.09       -6.12        3.63

 
     init_run     :      0.82s CPU      4.31s WALL (       1 calls)
     electrons    :      0.97s CPU      1.10s WALL (       1 calls)
     forces       :      0.04s CPU      0.04s WALL (       1 calls)
     stress       :      0.13s CPU      0.14s WALL (       1 calls)

     Called by init_run:
     wfcinit      :      0.47s CPU      3.81s WALL (       1 calls)
                                        3.81s GPU  (       1 calls)
     potinit      :      0.15s CPU      0.23s WALL (       1 calls)
     hinit0       :      0.17s CPU      0.20s WALL (       1 calls)

     Called by electrons:
     c_bands      :      0.67s CPU      0.72s WALL (      10 calls)
     sum_band     :      0.16s CPU      0.22s WALL (      10 calls)
     v_of_rho     :      0.08s CPU      0.16s WALL (      10 calls)
     mix_rho      :      0.06s CPU      0.07s WALL (      10 calls)

     Called by c_bands:
     init_us_2    :      0.03s CPU      0.03s WALL (      21 calls)
     init_us_2:gp :      0.03s CPU      0.03s WALL (      21 calls)
     regterg      :      0.59s CPU      0.63s WALL (      10 calls)

     Called by *egterg:
     rdiaghg      :      0.21s CPU      0.91s WALL (      52 calls)
                                        0.90s GPU  (      52 calls)
     h_psi        :      0.75s CPU      3.41s WALL (      54 calls)
                                        3.41s GPU  (      54 calls)
     g_psi        :      0.00s CPU      0.00s WALL (      43 calls)
                                        0.00s GPU  (      43 calls)

     Called by h_psi:
     h_psi:calbec :      0.42s CPU      3.01s WALL (      54 calls)
                                        3.01s GPU  (      54 calls)
     vloc_psi     :      0.30s CPU      0.37s WALL (      54 calls)
                                        0.37s GPU  (      54 calls)
     add_vuspsi   :      0.02s CPU      0.03s WALL (      54 calls)
                                        0.03s GPU  (      54 calls)

     General routines
     calbec       :      0.43s CPU      3.01s WALL (      59 calls)
     fft          :      0.19s CPU      0.31s WALL (      87 calls)
                                        0.10s GPU  (      56 calls)
     ffts         :      0.02s CPU      0.02s WALL (      10 calls)
     fftw         :      0.33s CPU      0.45s WALL (     928 calls)
                                        0.41s GPU  (     928 calls)
 
     Parallel routines
 
     PWSCF        :      2.00s CPU      5.68s WALL

 
   This run was terminated on:  15:15:47   8May2023            

=------------------------------------------------------------------------------=
   JOB DONE.
=------------------------------------------------------------------------------=
