An instance of this daemon is already running
An instance of this daemon is already running
An instance of this daemon is already running

     Program PWSCF v.7.1 starts on  8May2023 at 15:15:26 

     This program is part of the open-source Quantum ESPRESSO suite
     for quantum simulation of materials; please cite
         "P. Giannozzi et al., J. Phys.:Condens. Matter 21 395502 (2009);
         "P. Giannozzi et al., J. Phys.:Condens. Matter 29 465901 (2017);
         "P. Giannozzi et al., J. Chem. Phys. 152 154105 (2020);
          URL http://www.quantum-espresso.org", 
     in publications or presentations arising from this work. More details at
     http://www.quantum-espresso.org/quote

     Parallel version (MPI & OpenMP), running on       4 processor cores
     Number of MPI processes:                 4
     Threads/MPI process:                     1

     MPI processes distributed on     1 nodes
     183924 MiB available memory on the printing compute node when the environment starts
 
     Reading input from pw-si-41.in
Warning: card &CELL ignored
Warning: card / ignored

     Current dimensions of program PWSCF are:
     Max number of different atomic species (ntypx) = 10
     Max number of k-points (npk) =  40000
     Max angular momentum in pseudopotentials (lmaxx) =  4

     IMPORTANT: XC functional enforced from input :
     Exchange-correlation= PBE
                           (   1   4   3   4   0   0   0)
     Any further DFT definition will be discarded
     Please, verify this is what you really want


     gamma-point specific algorithms are used
 
     K-points division:     npool     =       2
     R & G space division:  proc/nbgrp/npool/nimage =       2
     Subspace diagonalization in iterative solution of the eigenvalue problem:
     a serial algorithm will be used

     Message from routine divide_et_impera:
     suboptimal parallelization: some nodes have no k-points
 
     Parallelization info
     --------------------
     sticks:   dense  smooth     PW     G-vecs:    dense   smooth      PW
     Min        2025    2025    533                98189    98189   13325
     Max        2026    2026    536                98190    98190   13328
     Sum        4051    4051   1069               196379   196379   26653
 
     Using Slab Decomposition
 


     bravais-lattice index     =            0
     lattice parameter (alat)  =      20.3516  a.u.
     unit-cell volume          =    8845.4837 (a.u.)^3
     number of atoms/cell      =           64
     number of atomic types    =            1
     number of electrons       =       256.00
     number of Kohn-Sham states=          128
     kinetic-energy cutoff     =      30.0000  Ry
     charge density cutoff     =     120.0000  Ry
     scf convergence threshold =      1.0E-06
     mixing beta               =       0.5000
     number of iterations used =            8  plain     mixing
     Exchange-correlation= PBE
                           (   1   4   3   4   0   0   0)

     GPU acceleration is ACTIVE.
     GPU-aware MPI enabled

     Message from routine print_cuda_info:
     High GPU oversubscription detected. Are you sure this is what you want?

     celldm(1)=  20.351554  celldm(2)=   0.000000  celldm(3)=   0.000000
     celldm(4)=   0.000000  celldm(5)=   0.000000  celldm(6)=   0.000000

     crystal axes: (cart. coord. in units of alat)
               a(1) = (   1.000000   0.000000   0.000000 )  
               a(2) = (   0.000000   1.025096   0.000000 )  
               a(3) = (   0.000000   0.000000   1.023680 )  

     reciprocal axes: (cart. coord. in units 2 pi/alat)
               b(1) = (  1.000000  0.000000  0.000000 )  
               b(2) = (  0.000000  0.975518  0.000000 )  
               b(3) = (  0.000000  0.000000  0.976868 )  


     PseudoPot. # 1 for Si read from file:
     /home/ppiaggi/pseudos/Si_ONCV_PBE_sr.upf
     MD5 check sum: 8553c464762ac42b85b1eed164b4d029
     Pseudo is Norm-conserving, Zval =  4.0
     Generated using ONCVPSP code by D. R. Hamann
     Using radial grid of 1510 points,  4 beta functions with: 
                l(1) =   0
                l(2) =   0
                l(3) =   1
                l(4) =   1

     atomic species   valence    mass     pseudopotential
        Si             4.00    28.08500     Si( 1.00)

     No symmetry found



   Cartesian axes

     site n.     atom                  positions (alat units)
         1           Si  tau(   1) = (   0.0019127   0.0009480  -0.0006746  )
         2           Si  tau(   2) = (  -0.0011576   0.2549683   0.2532515  )
         3           Si  tau(   3) = (   0.2568214  -0.0043328   0.2560074  )
         4           Si  tau(   4) = (   0.2500531   0.2566159   0.0022063  )
         5           Si  tau(   5) = (   0.1305264   0.1252734   0.1238986  )
         6           Si  tau(   6) = (   0.5067143  -0.0035672   0.0023700  )
         7           Si  tau(   7) = (   0.5107473   0.2576633   0.2515016  )
         8           Si  tau(   8) = (   0.6322138   0.1314810   0.1231260  )
         9           Si  tau(   9) = (   0.7573060   0.0031506   0.2539300  )
        10           Si  tau(  10) = (   0.7633171   0.2550740   0.0044269  )
        11           Si  tau(  11) = (  -0.0026934   0.5161865  -0.0008441  )
        12           Si  tau(  12) = (   0.2570765   0.5138212   0.2502358  )
        13           Si  tau(  13) = (   0.1308954   0.6369075   0.1289224  )
        14           Si  tau(  14) = (   0.3796858   0.3881719   0.1306628  )
        15           Si  tau(  15) = (   0.5068160   0.5097201   0.0018801  )
        16           Si  tau(  16) = (   0.6300348   0.6355995   0.1272157  )
        17           Si  tau(  17) = (   0.8907730   0.3809796   0.1267699  )
        18           Si  tau(  18) = (   0.7619609   0.5089598   0.2553440  )
        19           Si  tau(  19) = (  -0.0026693   0.7630426   0.2578019  )
        20           Si  tau(  20) = (   0.2522867   0.7693361  -0.0019906  )
        21           Si  tau(  21) = (   0.3759487   0.8916041   0.1246763  )
        22           Si  tau(  22) = (   0.5073608   0.7712496   0.2512968  )
        23           Si  tau(  23) = (   0.7620294   0.7632336   0.0009817  )
        24           Si  tau(  24) = (   0.8877708   0.8912612   0.1277690  )
        25           Si  tau(  25) = (  -0.0035381  -0.0029508   0.5058620  )
        26           Si  tau(  26) = (   0.2563934   0.2587988   0.5105968  )
        27           Si  tau(  27) = (   0.1282235   0.1289509   0.6348398  )
        28           Si  tau(  28) = (   0.3763015   0.1251604   0.3846246  )
        29           Si  tau(  29) = (   0.5062020  -0.0013726   0.5134024  )
        30           Si  tau(  30) = (   0.6356194   0.1324791   0.6348621  )
        31           Si  tau(  31) = (   0.8877305   0.1309587   0.3854846  )
        32           Si  tau(  32) = (   0.7605070   0.2529503   0.5050490  )
        33           Si  tau(  33) = (   0.1243200   0.3837065   0.3805351  )
        34           Si  tau(  34) = (   0.0043128   0.5133910   0.5117106  )
        35           Si  tau(  35) = (   0.1229036   0.6437064   0.6348011  )
        36           Si  tau(  36) = (   0.6315527   0.3878107   0.3827196  )
        37           Si  tau(  37) = (   0.3768392   0.6357489   0.3820470  )
        38           Si  tau(  38) = (   0.3801332   0.3829462   0.6328609  )
        39           Si  tau(  39) = (   0.5062644   0.5083092   0.5099792  )
        40           Si  tau(  40) = (   0.6337932   0.6436830   0.6343147  )
        41           Si  tau(  41) = (   0.8848824   0.6396074   0.3827278  )
        42           Si  tau(  42) = (   0.8895196   0.3861100   0.6399418  )
        43           Si  tau(  43) = (   0.1285173   0.8977312   0.3787723  )
        44           Si  tau(  44) = (   0.2554899   0.7645539   0.5092318  )
        45           Si  tau(  45) = (   0.6356041   0.8968673   0.3786572  )
        46           Si  tau(  46) = (   0.3831386   0.8915992   0.6314836  )
        47           Si  tau(  47) = (   0.7632153   0.7672467   0.5065890  )
        48           Si  tau(  48) = (   0.8920503   0.8919262   0.6394400  )
        49           Si  tau(  49) = (  -0.0029987   0.2594594   0.7651944  )
        50           Si  tau(  50) = (   0.2497727   0.0008902   0.7649647  )
        51           Si  tau(  51) = (   0.3799047   0.1300640   0.8908429  )
        52           Si  tau(  52) = (   0.5037774   0.2554965   0.7627556  )
        53           Si  tau(  53) = (   0.7588209  -0.0007456   0.7616526  )
        54           Si  tau(  54) = (   0.8899447   0.1296681   0.8921925  )
        55           Si  tau(  55) = (   0.1262194   0.3860512   0.8899712  )
        56           Si  tau(  56) = (   0.2555689   0.5079130   0.7665435  )
        57           Si  tau(  57) = (   0.6330815   0.3839731   0.8881899  )
        58           Si  tau(  58) = (   0.3833333   0.6381296   0.8884456  )
        59           Si  tau(  59) = (   0.7591804   0.5159049   0.7618184  )
        60           Si  tau(  60) = (   0.8905865   0.6395317   0.8869250  )
        61           Si  tau(  61) = (  -0.0028580   0.7684778   0.7656643  )
        62           Si  tau(  62) = (   0.1262936   0.8942820   0.8945422  )
        63           Si  tau(  63) = (   0.5096822   0.7651444   0.7634205  )
        64           Si  tau(  64) = (   0.6303742   0.8923731   0.8927631  )

     number of k points=     1
                       cart. coord. in units 2pi/alat
        k(    1) = (   0.0000000   0.0000000   0.0000000), wk =   2.0000000

     Dense  grid:    98190 G-vectors     FFT dimensions: (  72,  75,  75)

     Estimated max dynamical RAM per process >     144.61 MB

     Estimated total dynamical RAM >     554.49 MB

     Initial potential from superposition of free atoms

     starting charge     255.9608, renormalised to     256.0000
     Starting wfcs are  256 randomized atomic wfcs

     total cpu time spent up to now is        4.2 secs

     Self-consistent Calculation

     iteration #  1     ecut=    30.00 Ry     beta= 0.50
     Davidson diagonalization with overlap
     ethr =  1.00E-02,  avg # of iterations =  2.0

     Threshold (ethr) on eigenvalues was too large:
     Diagonalizing with lowered threshold

     Davidson diagonalization with overlap
     ethr =  6.56E-04,  avg # of iterations =  2.0

     total cpu time spent up to now is        4.4 secs

     total energy              =    -503.80871202 Ry
     estimated scf accuracy    <       1.87625340 Ry

     iteration #  2     ecut=    30.00 Ry     beta= 0.50
     Davidson diagonalization with overlap
     ethr =  7.33E-04,  avg # of iterations =  1.0

     total cpu time spent up to now is        4.4 secs

     total energy              =    -503.78248249 Ry
     estimated scf accuracy    <       0.36626071 Ry

     iteration #  3     ecut=    30.00 Ry     beta= 0.50
     Davidson diagonalization with overlap
     ethr =  1.43E-04,  avg # of iterations =  2.0

     total cpu time spent up to now is        4.5 secs

     total energy              =    -503.80969672 Ry
     estimated scf accuracy    <       0.00644186 Ry

     iteration #  4     ecut=    30.00 Ry     beta= 0.50
     Davidson diagonalization with overlap
     ethr =  2.52E-06,  avg # of iterations = 10.0

     total cpu time spent up to now is        4.7 secs

     total energy              =    -503.81432312 Ry
     estimated scf accuracy    <       0.00082485 Ry

     iteration #  5     ecut=    30.00 Ry     beta= 0.50
     Davidson diagonalization with overlap
     ethr =  3.22E-07,  avg # of iterations =  7.0

     total cpu time spent up to now is        4.8 secs

     total energy              =    -503.81455226 Ry
     estimated scf accuracy    <       0.00021599 Ry

     iteration #  6     ecut=    30.00 Ry     beta= 0.50
     Davidson diagonalization with overlap
     ethr =  8.44E-08,  avg # of iterations =  4.0

     total cpu time spent up to now is        4.9 secs

     total energy              =    -503.81461423 Ry
     estimated scf accuracy    <       0.00009684 Ry

     iteration #  7     ecut=    30.00 Ry     beta= 0.50
     Davidson diagonalization with overlap
     ethr =  3.78E-08,  avg # of iterations =  6.0

     total cpu time spent up to now is        5.0 secs

     total energy              =    -503.81463223 Ry
     estimated scf accuracy    <       0.00000303 Ry

     iteration #  8     ecut=    30.00 Ry     beta= 0.50
     Davidson diagonalization with overlap
     ethr =  1.18E-09,  avg # of iterations = 11.0

     total cpu time spent up to now is        5.1 secs

     total energy              =    -503.81463339 Ry
     estimated scf accuracy    <       0.00000501 Ry

     iteration #  9     ecut=    30.00 Ry     beta= 0.50
     Davidson diagonalization with overlap
     ethr =  1.18E-09,  avg # of iterations =  3.0

     total cpu time spent up to now is        5.2 secs

     End of self-consistent calculation

          k = 0.0000 0.0000 0.0000 ( 12294 PWs)   bands (ev):

    -5.8259  -4.8715  -4.8072  -4.7830  -4.7493  -4.7365  -4.5957  -4.0635
    -3.9451  -3.9201  -3.8684  -3.8523  -3.8147  -3.7963  -3.7405  -3.7125
    -3.6761  -3.6487  -3.6170  -3.5440  -3.4952  -3.4062  -3.3667  -1.9886
    -1.9551  -1.7776  -1.7374  -1.6834  -1.6560  -1.6437  -1.6162  -1.6019
    -1.5983  -1.5721  -1.5488  -1.5340  -1.5050  -1.4880  -1.4294  -1.4117
    -1.3988  -0.9296  -0.8652  -0.8298  -0.7101   0.4556   0.4791   0.4990
     0.5120   0.5279   0.5550   0.5827   0.5925   0.6199   0.6714   0.7256
     0.7609   1.9780   2.0079   2.1009   2.1157   2.1877   2.2143   2.2206
     2.2258   2.2370   2.2690   2.2840   2.2917   2.3238   2.3301   2.3578
     2.3685   2.3881   2.3935   2.4176   2.4329   2.4480   2.4644   2.4740
     2.4971   2.5179   2.5455   2.5815   2.6224   2.6591   2.6840   2.9978
     3.1470   3.2777   3.2882   3.3217   3.3581   3.8938   4.0291   4.0834
     4.1347   4.1447   4.1835   4.2067   4.2202   4.2454   4.2627   4.2786
     4.2868   4.3593   4.6296   4.6569   4.7036   4.7168   4.7241   4.7414
     4.7792   4.8006   4.8036   4.8189   4.8468   4.8530   4.8691   4.9076
     4.9153   4.9590   5.0358   5.0544   5.1611   5.9338   6.0895   6.1919

     highest occupied level (ev):     6.1919

!    total energy              =    -503.81463397 Ry
     estimated scf accuracy    <       0.00000045 Ry

     The total energy is the sum of the following terms:
     one-electron contribution =     145.31620827 Ry
     hartree contribution      =      37.23289643 Ry
     xc contribution           =    -153.69726987 Ry
     ewald contribution        =    -532.66646880 Ry

     convergence has been achieved in   9 iterations

     Forces acting on atoms (cartesian axes, Ry/au):

     atom    1 type  1   force =     0.02956707   -0.02106460   -0.00483804
     atom    2 type  1   force =     0.06794962   -0.01738652    0.00641303
     atom    3 type  1   force =    -0.00997277    0.01388726   -0.01913207
     atom    4 type  1   force =     0.02420918    0.01634185   -0.02745399
     atom    5 type  1   force =    -0.00850963   -0.00232986    0.02943182
     atom    6 type  1   force =    -0.01302905    0.01045738   -0.02951544
     atom    7 type  1   force =    -0.03073568   -0.00509585    0.02383268
     atom    8 type  1   force =     0.00255852   -0.02192962    0.01168672
     atom    9 type  1   force =     0.01801152   -0.00312636   -0.00753398
     atom   10 type  1   force =    -0.00995196    0.00909989   -0.05122146
     atom   11 type  1   force =     0.06517808   -0.01811302   -0.00914066
     atom   12 type  1   force =    -0.02417057   -0.01695823    0.03326753
     atom   13 type  1   force =    -0.02371932    0.02433617   -0.01718302
     atom   14 type  1   force =     0.00794463   -0.03466553   -0.02433243
     atom   15 type  1   force =    -0.00443674   -0.00002663   -0.03506254
     atom   16 type  1   force =     0.02268621    0.01171988    0.00545774
     atom   17 type  1   force =    -0.05753607    0.02492292   -0.00400670
     atom   18 type  1   force =    -0.00933301    0.00757584   -0.00795923
     atom   19 type  1   force =     0.07256172    0.01779049   -0.01692772
     atom   20 type  1   force =     0.00451874   -0.02955983   -0.01884339
     atom   21 type  1   force =     0.02056110    0.02076424    0.00870311
     atom   22 type  1   force =    -0.01013511   -0.02718940    0.01610006
     atom   23 type  1   force =    -0.01292040    0.00307174   -0.02368035
     atom   24 type  1   force =    -0.04567348    0.02849788   -0.00324408
     atom   25 type  1   force =     0.07165014    0.00246306    0.01941456
     atom   26 type  1   force =    -0.02588291   -0.01452907   -0.02112930
     atom   27 type  1   force =    -0.02073977    0.00122278    0.00308610
     atom   28 type  1   force =     0.03403380    0.01296052   -0.01066971
     atom   29 type  1   force =     0.01541455    0.00560257   -0.02446229
     atom   30 type  1   force =    -0.01466939   -0.02271201    0.00860055
     atom   31 type  1   force =    -0.05095554   -0.02124449   -0.03327969
     atom   32 type  1   force =    -0.00340813    0.04505999    0.02382336
     atom   33 type  1   force =     0.02537054    0.00656847   -0.00381676
     atom   34 type  1   force =     0.01665771   -0.00541793   -0.01691489
     atom   35 type  1   force =     0.03405463   -0.01168016    0.02834140
     atom   36 type  1   force =     0.01746770   -0.02790457   -0.00832080
     atom   37 type  1   force =     0.03111236    0.01891807   -0.00596849
     atom   38 type  1   force =     0.00478441    0.00539360    0.02855118
     atom   39 type  1   force =    -0.00175420    0.02940782    0.00060468
     atom   40 type  1   force =     0.00130725   -0.01716099   -0.00825932
     atom   41 type  1   force =    -0.03349928   -0.02938674    0.01098974
     atom   42 type  1   force =    -0.06833477    0.00219676   -0.02981948
     atom   43 type  1   force =    -0.00981736   -0.02325910    0.01525797
     atom   44 type  1   force =    -0.01595227    0.01475859   -0.01191200
     atom   45 type  1   force =    -0.01230638    0.00854376    0.01618111
     atom   46 type  1   force =    -0.01601483    0.01244328    0.04062740
     atom   47 type  1   force =    -0.01332589    0.01598058    0.00959845
     atom   48 type  1   force =    -0.08091160    0.03285703   -0.02725386
     atom   49 type  1   force =     0.07243016   -0.01791518   -0.00175661
     atom   50 type  1   force =     0.02363261   -0.01812670   -0.00935736
     atom   51 type  1   force =    -0.00710118   -0.01703904    0.02753881
     atom   52 type  1   force =     0.01466107    0.00572586   -0.00296698
     atom   53 type  1   force =     0.00539149   -0.00235038    0.01616702
     atom   54 type  1   force =    -0.06205595   -0.01723775    0.01385982
     atom   55 type  1   force =    -0.00629946   -0.00842644    0.03360786
     atom   56 type  1   force =    -0.00848772    0.02468061   -0.02769973
     atom   57 type  1   force =     0.00562472   -0.00246530    0.02970000
     atom   58 type  1   force =    -0.00724403    0.00038055    0.03138171
     atom   59 type  1   force =    -0.00146402   -0.01083640    0.00222318
     atom   60 type  1   force =    -0.07668948   -0.00674073    0.03732670
     atom   61 type  1   force =     0.08476046   -0.00152034    0.00638243
     atom   62 type  1   force =    -0.00333944    0.01566265   -0.00423433
     atom   63 type  1   force =    -0.01597517    0.01187926   -0.00435134
     atom   64 type  1   force =     0.02225258    0.01222739    0.01409131

     Total force =     0.352138     Total SCF correction =     0.001191


     Computing stress (Cartesian axis) and pressure

          total   stress  (Ry/bohr**3)                   (kbar)     P=       12.49
   0.00015951   0.00002788  -0.00000322           23.46        4.10       -0.47
   0.00002788   0.00004486  -0.00006043            4.10        6.60       -8.89
  -0.00000322  -0.00006043   0.00005030           -0.47       -8.89        7.40

 
     init_run     :      0.95s CPU      4.13s WALL (       1 calls)
     electrons    :      0.96s CPU      1.03s WALL (       1 calls)
     forces       :      0.04s CPU      0.04s WALL (       1 calls)
     stress       :      0.13s CPU      0.14s WALL (       1 calls)

     Called by init_run:
     wfcinit      :      0.48s CPU      3.50s WALL (       1 calls)
                                        3.50s GPU  (       1 calls)
     potinit      :      0.14s CPU      0.23s WALL (       1 calls)
     hinit0       :      0.30s CPU      0.33s WALL (       1 calls)

     Called by electrons:
     c_bands      :      0.65s CPU      0.68s WALL (      10 calls)
     sum_band     :      0.17s CPU      0.20s WALL (      10 calls)
     v_of_rho     :      0.07s CPU      0.17s WALL (      10 calls)
     mix_rho      :      0.06s CPU      0.07s WALL (      10 calls)

     Called by c_bands:
     init_us_2    :      0.03s CPU      0.03s WALL (      21 calls)
     init_us_2:gp :      0.03s CPU      0.03s WALL (      21 calls)
     regterg      :      0.57s CPU      0.59s WALL (      10 calls)

     Called by *egterg:
     rdiaghg      :      0.22s CPU      0.84s WALL (      57 calls)
                                        0.83s GPU  (      57 calls)
     h_psi        :      0.72s CPU      3.14s WALL (      59 calls)
                                        3.14s GPU  (      59 calls)
     g_psi        :      0.00s CPU      0.00s WALL (      48 calls)
                                        0.00s GPU  (      48 calls)

     Called by h_psi:
     h_psi:calbec :      0.43s CPU      2.79s WALL (      59 calls)
                                        2.79s GPU  (      59 calls)
     vloc_psi     :      0.25s CPU      0.32s WALL (      59 calls)
                                        0.32s GPU  (      59 calls)
     add_vuspsi   :      0.02s CPU      0.03s WALL (      59 calls)
                                        0.03s GPU  (      59 calls)

     General routines
     calbec       :      0.44s CPU      2.79s WALL (      64 calls)
     fft          :      0.32s CPU      0.43s WALL (      87 calls)
                                        0.10s GPU  (      56 calls)
     ffts         :      0.02s CPU      0.02s WALL (      10 calls)
     fftw         :      0.28s CPU      0.39s WALL (     940 calls)
                                        0.35s GPU  (     940 calls)
 
     Parallel routines
 
     PWSCF        :      2.12s CPU      5.42s WALL

 
   This run was terminated on:  15:15:31   8May2023            

=------------------------------------------------------------------------------=
   JOB DONE.
=------------------------------------------------------------------------------=
