An instance of this daemon is already running

     Program PWSCF v.7.1 starts on  8May2023 at 15:19:37 

     This program is part of the open-source Quantum ESPRESSO suite
     for quantum simulation of materials; please cite
         "P. Giannozzi et al., J. Phys.:Condens. Matter 21 395502 (2009);
         "P. Giannozzi et al., J. Phys.:Condens. Matter 29 465901 (2017);
         "P. Giannozzi et al., J. Chem. Phys. 152 154105 (2020);
          URL http://www.quantum-espresso.org", 
     in publications or presentations arising from this work. More details at
     http://www.quantum-espresso.org/quote

     Parallel version (MPI & OpenMP), running on       4 processor cores
     Number of MPI processes:                 4
     Threads/MPI process:                     1

     MPI processes distributed on     1 nodes
     183904 MiB available memory on the printing compute node when the environment starts
 
     Reading input from pw-si-72.in
Warning: card &CELL ignored
Warning: card / ignored

     Current dimensions of program PWSCF are:
     Max number of different atomic species (ntypx) = 10
     Max number of k-points (npk) =  40000
     Max angular momentum in pseudopotentials (lmaxx) =  4

     IMPORTANT: XC functional enforced from input :
     Exchange-correlation= PBE
                           (   1   4   3   4   0   0   0)
     Any further DFT definition will be discarded
     Please, verify this is what you really want


     gamma-point specific algorithms are used
 
     K-points division:     npool     =       2
     R & G space division:  proc/nbgrp/npool/nimage =       2
     Subspace diagonalization in iterative solution of the eigenvalue problem:
     a serial algorithm will be used

     Message from routine divide_et_impera:
     suboptimal parallelization: some nodes have no k-points
 
     Parallelization info
     --------------------
     sticks:   dense  smooth     PW     G-vecs:    dense   smooth      PW
     Min        2059    2059    546               101219   101219   13723
     Max        2062    2062    547               101222   101222   13726
     Sum        4121    4121   1093               202441   202441   27449
 
     Using Slab Decomposition
 


     bravais-lattice index     =            0
     lattice parameter (alat)  =      20.7723  a.u.
     unit-cell volume          =    9125.0172 (a.u.)^3
     number of atoms/cell      =           64
     number of atomic types    =            1
     number of electrons       =       256.00
     number of Kohn-Sham states=          128
     kinetic-energy cutoff     =      30.0000  Ry
     charge density cutoff     =     120.0000  Ry
     scf convergence threshold =      1.0E-06
     mixing beta               =       0.5000
     number of iterations used =            8  plain     mixing
     Exchange-correlation= PBE
                           (   1   4   3   4   0   0   0)

     GPU acceleration is ACTIVE.
     GPU-aware MPI enabled

     Message from routine print_cuda_info:
     High GPU oversubscription detected. Are you sure this is what you want?

     celldm(1)=  20.772340  celldm(2)=   0.000000  celldm(3)=   0.000000
     celldm(4)=   0.000000  celldm(5)=   0.000000  celldm(6)=   0.000000

     crystal axes: (cart. coord. in units of alat)
               a(1) = (   1.000000   0.000000   0.000000 )  
               a(2) = (   0.000000   1.000662   0.000000 )  
               a(3) = (   0.000000   0.000000   1.017396 )  

     reciprocal axes: (cart. coord. in units 2 pi/alat)
               b(1) = (  1.000000  0.000000  0.000000 )  
               b(2) = (  0.000000  0.999338  0.000000 )  
               b(3) = (  0.000000  0.000000  0.982902 )  


     PseudoPot. # 1 for Si read from file:
     /home/ppiaggi/pseudos/Si_ONCV_PBE_sr.upf
     MD5 check sum: 8553c464762ac42b85b1eed164b4d029
     Pseudo is Norm-conserving, Zval =  4.0
     Generated using ONCVPSP code by D. R. Hamann
     Using radial grid of 1510 points,  4 beta functions with: 
                l(1) =   0
                l(2) =   0
                l(3) =   1
                l(4) =   1

     atomic species   valence    mass     pseudopotential
        Si             4.00    28.08500     Si( 1.00)

     No symmetry found



   Cartesian axes

     site n.     atom                  positions (alat units)
         1           Si  tau(   1) = (  -0.0016428  -0.0013923  -0.0002920  )
         2           Si  tau(   2) = (   0.0020835   0.2529257   0.2483081  )
         3           Si  tau(   3) = (   0.2510932   0.0037208   0.2469972  )
         4           Si  tau(   4) = (   0.2483264   0.2546054   0.0011603  )
         5           Si  tau(   5) = (   0.1240468   0.1309333   0.1240862  )
         6           Si  tau(   6) = (   0.4960628   0.0038953   0.0027351  )
         7           Si  tau(   7) = (   0.4979783   0.2569770   0.2497702  )
         8           Si  tau(   8) = (   0.6156401   0.1309107   0.1207996  )
         9           Si  tau(   9) = (   0.7456470  -0.0024320   0.2499418  )
        10           Si  tau(  10) = (   0.7444005   0.2542486  -0.0006704  )
        11           Si  tau(  11) = (   0.0015823   0.5056194   0.0011554  )
        12           Si  tau(  12) = (   0.2520331   0.5119183   0.2507028  )
        13           Si  tau(  13) = (   0.1255126   0.6296317   0.1213917  )
        14           Si  tau(  14) = (   0.3728124   0.3790476   0.1275835  )
        15           Si  tau(  15) = (   0.4962184   0.5091955   0.0039982  )
        16           Si  tau(  16) = (   0.6210474   0.6326336   0.1284973  )
        17           Si  tau(  17) = (   0.8682325   0.3767018   0.1208982  )
        18           Si  tau(  18) = (   0.7479419   0.5041685   0.2522596  )
        19           Si  tau(  19) = (  -0.0033426   0.7604482   0.2507470  )
        20           Si  tau(  20) = (   0.2499278   0.7607928  -0.0012881  )
        21           Si  tau(  21) = (   0.3680185   0.8897049   0.1265690  )
        22           Si  tau(  22) = (   0.4972467   0.7576996   0.2519614  )
        23           Si  tau(  23) = (   0.7397810   0.7616538   0.0015841  )
        24           Si  tau(  24) = (   0.8694095   0.8889317   0.1241551  )
        25           Si  tau(  25) = (  -0.0045122  -0.0010456   0.4964973  )
        26           Si  tau(  26) = (   0.2458671   0.2497231   0.5018580  )
        27           Si  tau(  27) = (   0.1256228   0.1279821   0.6259056  )
        28           Si  tau(  28) = (   0.3713586   0.1268604   0.3790182  )
        29           Si  tau(  29) = (   0.4920695  -0.0025198   0.5017720  )
        30           Si  tau(  30) = (   0.6202381   0.1238830   0.6245765  )
        31           Si  tau(  31) = (   0.8683796   0.1240886   0.3766627  )
        32           Si  tau(  32) = (   0.7460096   0.2506510   0.5048406  )
        33           Si  tau(  33) = (   0.1249734   0.3759373   0.3741193  )
        34           Si  tau(  34) = (  -0.0006453   0.5047709   0.5047512  )
        35           Si  tau(  35) = (   0.1258989   0.6331375   0.6299823  )
        36           Si  tau(  36) = (   0.6218262   0.3802029   0.3718380  )
        37           Si  tau(  37) = (   0.3743485   0.6355197   0.3760404  )
        38           Si  tau(  38) = (   0.3755441   0.3813517   0.6258170  )
        39           Si  tau(  39) = (   0.4961574   0.5116512   0.4992653  )
        40           Si  tau(  40) = (   0.6171212   0.6303457   0.6264063  )
        41           Si  tau(  41) = (   0.8717186   0.6360770   0.3788562  )
        42           Si  tau(  42) = (   0.8713448   0.3806756   0.6306155  )
        43           Si  tau(  43) = (   0.1241433   0.8890188   0.3774568  )
        44           Si  tau(  44) = (   0.2522026   0.7651117   0.5030735  )
        45           Si  tau(  45) = (   0.6169192   0.8847083   0.3747627  )
        46           Si  tau(  46) = (   0.3745423   0.8854956   0.6241572  )
        47           Si  tau(  47) = (   0.7411745   0.7607103   0.4975168  )
        48           Si  tau(  48) = (   0.8710586   0.8868570   0.6241637  )
        49           Si  tau(  49) = (  -0.0019488   0.2517958   0.7561031  )
        50           Si  tau(  50) = (   0.2438316  -0.0017554   0.7477887  )
        51           Si  tau(  51) = (   0.3757740   0.1274168   0.8730634  )
        52           Si  tau(  52) = (   0.4976956   0.2535532   0.7541705  )
        53           Si  tau(  53) = (   0.7413920  -0.0029690   0.7507116  )
        54           Si  tau(  54) = (   0.8672728   0.1226164   0.8746924  )
        55           Si  tau(  55) = (   0.1237835   0.3832604   0.8784953  )
        56           Si  tau(  56) = (   0.2486025   0.5104319   0.7521104  )
        57           Si  tau(  57) = (   0.6174703   0.3826282   0.8736201  )
        58           Si  tau(  58) = (   0.3735855   0.6332325   0.8811724  )
        59           Si  tau(  59) = (   0.7469697   0.5117567   0.7523381  )
        60           Si  tau(  60) = (   0.8704678   0.6338958   0.8795721  )
        61           Si  tau(  61) = (  -0.0040005   0.7603869   0.7554265  )
        62           Si  tau(  62) = (   0.1202870   0.8918161   0.8791217  )
        63           Si  tau(  63) = (   0.4960675   0.7638063   0.7493562  )
        64           Si  tau(  64) = (   0.6229975   0.8833564   0.8761231  )

     number of k points=     1
                       cart. coord. in units 2pi/alat
        k(    1) = (   0.0000000   0.0000000   0.0000000), wk =   2.0000000

     Dense  grid:   101221 G-vectors     FFT dimensions: (  75,  75,  75)

     Estimated max dynamical RAM per process >     149.24 MB

     Estimated total dynamical RAM >     572.26 MB

     Initial potential from superposition of free atoms

     starting charge     255.9608, renormalised to     256.0000
     Starting wfcs are  256 randomized atomic wfcs

     total cpu time spent up to now is        4.3 secs

     Self-consistent Calculation

     iteration #  1     ecut=    30.00 Ry     beta= 0.50
     Davidson diagonalization with overlap
     ethr =  1.00E-02,  avg # of iterations =  2.0

     Threshold (ethr) on eigenvalues was too large:
     Diagonalizing with lowered threshold

     Davidson diagonalization with overlap
     ethr =  6.24E-04,  avg # of iterations =  2.0

     total cpu time spent up to now is        4.5 secs

     total energy              =    -503.79280629 Ry
     estimated scf accuracy    <       1.78615255 Ry

     iteration #  2     ecut=    30.00 Ry     beta= 0.50
     Davidson diagonalization with overlap
     ethr =  6.98E-04,  avg # of iterations =  1.0

     total cpu time spent up to now is        4.6 secs

     total energy              =    -503.76887787 Ry
     estimated scf accuracy    <       0.35448511 Ry

     iteration #  3     ecut=    30.00 Ry     beta= 0.50
     Davidson diagonalization with overlap
     ethr =  1.38E-04,  avg # of iterations =  2.0

     total cpu time spent up to now is        4.7 secs

     total energy              =    -503.79336381 Ry
     estimated scf accuracy    <       0.00590578 Ry

     iteration #  4     ecut=    30.00 Ry     beta= 0.50
     Davidson diagonalization with overlap
     ethr =  2.31E-06,  avg # of iterations =  9.0

     total cpu time spent up to now is        4.8 secs

     total energy              =    -503.79779938 Ry
     estimated scf accuracy    <       0.00082262 Ry

     iteration #  5     ecut=    30.00 Ry     beta= 0.50
     Davidson diagonalization with overlap
     ethr =  3.21E-07,  avg # of iterations =  7.0

     total cpu time spent up to now is        5.0 secs

     total energy              =    -503.79798357 Ry
     estimated scf accuracy    <       0.00025607 Ry

     iteration #  6     ecut=    30.00 Ry     beta= 0.50
     Davidson diagonalization with overlap
     ethr =  1.00E-07,  avg # of iterations =  4.0

     total cpu time spent up to now is        5.1 secs

     total energy              =    -503.79804602 Ry
     estimated scf accuracy    <       0.00004306 Ry

     iteration #  7     ecut=    30.00 Ry     beta= 0.50
     Davidson diagonalization with overlap
     ethr =  1.68E-08,  avg # of iterations =  4.0

     total cpu time spent up to now is        5.2 secs

     total energy              =    -503.79805374 Ry
     estimated scf accuracy    <       0.00000273 Ry

     iteration #  8     ecut=    30.00 Ry     beta= 0.50
     Davidson diagonalization with overlap
     ethr =  1.07E-09,  avg # of iterations =  8.0

     total cpu time spent up to now is        5.3 secs

     total energy              =    -503.79805492 Ry
     estimated scf accuracy    <       0.00000434 Ry

     iteration #  9     ecut=    30.00 Ry     beta= 0.50
     Davidson diagonalization with overlap
     ethr =  1.07E-09,  avg # of iterations =  3.0

     total cpu time spent up to now is        5.4 secs

     End of self-consistent calculation

          k = 0.0000 0.0000 0.0000 ( 12637 PWs)   bands (ev):

    -5.9607  -5.0418  -4.9478  -4.9284  -4.9168  -4.7951  -4.7942  -4.2158
    -4.1278  -4.0842  -4.0595  -4.0260  -3.9812  -3.9501  -3.9284  -3.8986
    -3.8739  -3.8112  -3.7866  -3.7404  -3.6853  -3.6251  -3.4181  -2.2080
    -2.1450  -2.0443  -1.9953  -1.9568  -1.9131  -1.8930  -1.8537  -1.8491
    -1.8361  -1.8112  -1.7847  -1.7603  -1.7314  -1.6684  -1.6175  -1.6101
    -1.5722  -1.1585  -1.0315  -0.9985  -0.9019   0.1627   0.1865   0.2492
     0.2960   0.3071   0.3238   0.3355   0.3500   0.3747   0.3903   0.4128
     0.4503   1.8001   1.8283   1.8737   1.8950   1.9437   1.9780   1.9910
     2.0160   2.0285   2.0537   2.0572   2.0834   2.0841   2.1016   2.1281
     2.1397   2.1557   2.1710   2.1934   2.2034   2.2166   2.2258   2.2325
     2.2555   2.2641   2.2998   2.4133   2.4316   2.4537   2.4699   2.8643
     2.9407   2.9860   3.0146   3.0476   3.0920   3.7650   3.8079   3.8409
     3.8649   3.8715   3.8981   3.9102   3.9350   3.9869   3.9995   4.0065
     4.0381   4.1888   4.2915   4.3679   4.3829   4.4242   4.4380   4.4397
     4.4580   4.4697   4.5186   4.5232   4.5335   4.5511   4.5820   4.6148
     4.6329   4.6412   4.6880   4.7045   5.1713   5.6508   5.6867   5.9469

     highest occupied level (ev):     5.9469

!    total energy              =    -503.79805501 Ry
     estimated scf accuracy    <       0.00000075 Ry

     The total energy is the sum of the following terms:
     one-electron contribution =     136.96816980 Ry
     hartree contribution      =      38.57005971 Ry
     xc contribution           =    -152.69092323 Ry
     ewald contribution        =    -526.64536129 Ry

     convergence has been achieved in   9 iterations

     Forces acting on atoms (cartesian axes, Ry/au):

     atom    1 type  1   force =    -0.00884929    0.05728829   -0.03434654
     atom    2 type  1   force =    -0.04072559   -0.00016019    0.00701155
     atom    3 type  1   force =    -0.03624334    0.04579181    0.03309881
     atom    4 type  1   force =     0.00676536    0.00549397   -0.05632477
     atom    5 type  1   force =    -0.00111339   -0.02041231   -0.01095278
     atom    6 type  1   force =    -0.00234181    0.01050789   -0.07293320
     atom    7 type  1   force =    -0.01254800   -0.01965808    0.01152581
     atom    8 type  1   force =     0.03241779   -0.00541179    0.02412797
     atom    9 type  1   force =    -0.02465176    0.06143110   -0.00193895
     atom   10 type  1   force =    -0.00953825   -0.00646700   -0.06389938
     atom   11 type  1   force =    -0.02862094   -0.00831191   -0.04940443
     atom   12 type  1   force =    -0.01532034   -0.02881204    0.00334515
     atom   13 type  1   force =    -0.00569170    0.02907065    0.01726908
     atom   14 type  1   force =    -0.00442995    0.01631360   -0.00972741
     atom   15 type  1   force =     0.00007688   -0.01508829   -0.05039148
     atom   16 type  1   force =     0.00670815   -0.00343104   -0.00385364
     atom   17 type  1   force =     0.03007301    0.01395288    0.01695223
     atom   18 type  1   force =     0.01231686    0.01276182   -0.00989398
     atom   19 type  1   force =     0.00964437   -0.00689174   -0.00770868
     atom   20 type  1   force =    -0.01447915    0.00142336   -0.03816699
     atom   21 type  1   force =     0.03594148   -0.06403815   -0.01968462
     atom   22 type  1   force =    -0.01310855    0.01284625   -0.01674174
     atom   23 type  1   force =     0.02511434   -0.01159610   -0.03996393
     atom   24 type  1   force =     0.01082692   -0.05691325   -0.00548505
     atom   25 type  1   force =     0.00378371    0.05258211    0.02738342
     atom   26 type  1   force =     0.01785119    0.02710854    0.00129103
     atom   27 type  1   force =    -0.03827303   -0.00901424    0.00028074
     atom   28 type  1   force =     0.00999353    0.00881546   -0.02035441
     atom   29 type  1   force =     0.02771086    0.05752104   -0.01788156
     atom   30 type  1   force =    -0.01127890    0.00747771    0.01234107
     atom   31 type  1   force =     0.01517444    0.01784038   -0.01510553
     atom   32 type  1   force =     0.00081102    0.01722914   -0.01445494
     atom   33 type  1   force =     0.00013627    0.02892731    0.00586081
     atom   34 type  1   force =    -0.00124008    0.00285824   -0.01079101
     atom   35 type  1   force =    -0.01247710    0.01870686   -0.01235852
     atom   36 type  1   force =     0.00454368    0.00128464    0.03270589
     atom   37 type  1   force =    -0.01330152    0.00923090    0.00635369
     atom   38 type  1   force =    -0.01625111   -0.00296973   -0.00052956
     atom   39 type  1   force =     0.00423284   -0.03568530   -0.00436305
     atom   40 type  1   force =     0.01983937    0.02845856   -0.00007332
     atom   41 type  1   force =     0.00573298   -0.01889341   -0.00649989
     atom   42 type  1   force =     0.00489401   -0.00654315   -0.00154003
     atom   43 type  1   force =     0.01060614   -0.04320052   -0.02697942
     atom   44 type  1   force =    -0.02490607   -0.03230137   -0.01112984
     atom   45 type  1   force =     0.00983498   -0.02494383   -0.00293359
     atom   46 type  1   force =    -0.02275480   -0.02941392    0.03142027
     atom   47 type  1   force =     0.00942055   -0.01007380    0.02367478
     atom   48 type  1   force =    -0.00464659   -0.04790433    0.00523511
     atom   49 type  1   force =    -0.00223632    0.00487562   -0.00455842
     atom   50 type  1   force =     0.02637841    0.04601472    0.01403620
     atom   51 type  1   force =    -0.02848227   -0.01048619    0.05592733
     atom   52 type  1   force =     0.00367872    0.00191206   -0.02591893
     atom   53 type  1   force =     0.02414518    0.04296274   -0.00864701
     atom   54 type  1   force =     0.00992260    0.01153611    0.05070160
     atom   55 type  1   force =     0.00176519   -0.00982186    0.03566027
     atom   56 type  1   force =     0.01248955   -0.02016472    0.01260918
     atom   57 type  1   force =     0.02183637    0.01091209    0.06077817
     atom   58 type  1   force =     0.00315255    0.01339077    0.02331403
     atom   59 type  1   force =    -0.00825633   -0.01911496    0.00351915
     atom   60 type  1   force =     0.00562320    0.00542176    0.04945006
     atom   61 type  1   force =     0.00126577    0.00107092   -0.00705306
     atom   62 type  1   force =     0.00410479   -0.06170160    0.03302416
     atom   63 type  1   force =     0.00180283   -0.03304773    0.02211953
     atom   64 type  1   force =    -0.02884970   -0.02054673    0.06157257

     Total force =     0.346496     Total SCF correction =     0.001607


     Computing stress (Cartesian axis) and pressure

          total   stress  (Ry/bohr**3)                   (kbar)     P=      -13.53
  -0.00004402   0.00004092  -0.00003311           -6.48        6.02       -4.87
   0.00004092  -0.00006533   0.00000655            6.02       -9.61        0.96
  -0.00003311   0.00000655  -0.00016666           -4.87        0.96      -24.52

 
     init_run     :      1.03s CPU      4.29s WALL (       1 calls)
     electrons    :      1.00s CPU      1.08s WALL (       1 calls)
     forces       :      0.04s CPU      0.04s WALL (       1 calls)
     stress       :      0.14s CPU      0.14s WALL (       1 calls)

     Called by init_run:
     wfcinit      :      0.68s CPU      3.77s WALL (       1 calls)
                                        3.77s GPU  (       1 calls)
     potinit      :      0.16s CPU      0.22s WALL (       1 calls)
     hinit0       :      0.18s CPU      0.20s WALL (       1 calls)

     Called by electrons:
     c_bands      :      0.69s CPU      0.72s WALL (      10 calls)
     sum_band     :      0.17s CPU      0.20s WALL (      10 calls)
     v_of_rho     :      0.09s CPU      0.16s WALL (      10 calls)
     mix_rho      :      0.06s CPU      0.07s WALL (      10 calls)

     Called by c_bands:
     init_us_2    :      0.03s CPU      0.03s WALL (      21 calls)
     init_us_2:gp :      0.03s CPU      0.03s WALL (      21 calls)
     regterg      :      0.60s CPU      0.63s WALL (      10 calls)

     Called by *egterg:
     rdiaghg      :      0.23s CPU      0.85s WALL (      51 calls)
                                        0.84s GPU  (      51 calls)
     h_psi        :      0.95s CPU      3.44s WALL (      53 calls)
                                        3.43s GPU  (      53 calls)
     g_psi        :      0.00s CPU      0.00s WALL (      42 calls)
                                        0.00s GPU  (      42 calls)

     Called by h_psi:
     h_psi:calbec :      0.62s CPU      3.03s WALL (      53 calls)
                                        3.03s GPU  (      53 calls)
     vloc_psi     :      0.31s CPU      0.37s WALL (      53 calls)
                                        0.37s GPU  (      53 calls)
     add_vuspsi   :      0.02s CPU      0.03s WALL (      53 calls)
                                        0.03s GPU  (      53 calls)

     General routines
     calbec       :      0.62s CPU      3.03s WALL (      58 calls)
     fft          :      0.21s CPU      0.30s WALL (      87 calls)
                                        0.10s GPU  (      56 calls)
     ffts         :      0.02s CPU      0.02s WALL (      10 calls)
     fftw         :      0.33s CPU      0.46s WALL (     924 calls)
                                        0.41s GPU  (     924 calls)
 
     Parallel routines
 
     PWSCF        :      2.24s CPU      5.63s WALL

 
   This run was terminated on:  15:19:43   8May2023            

=------------------------------------------------------------------------------=
   JOB DONE.
=------------------------------------------------------------------------------=
