An instance of this daemon is already running
An instance of this daemon is already running

     Program PWSCF v.7.1 starts on  8May2023 at 15:22:34 

     This program is part of the open-source Quantum ESPRESSO suite
     for quantum simulation of materials; please cite
         "P. Giannozzi et al., J. Phys.:Condens. Matter 21 395502 (2009);
         "P. Giannozzi et al., J. Phys.:Condens. Matter 29 465901 (2017);
         "P. Giannozzi et al., J. Chem. Phys. 152 154105 (2020);
          URL http://www.quantum-espresso.org", 
     in publications or presentations arising from this work. More details at
     http://www.quantum-espresso.org/quote

     Parallel version (MPI & OpenMP), running on       4 processor cores
     Number of MPI processes:                 4
     Threads/MPI process:                     1

     MPI processes distributed on     1 nodes
     183914 MiB available memory on the printing compute node when the environment starts
 
     Reading input from pw-si-94.in
Warning: card &CELL ignored
Warning: card / ignored

     Current dimensions of program PWSCF are:
     Max number of different atomic species (ntypx) = 10
     Max number of k-points (npk) =  40000
     Max angular momentum in pseudopotentials (lmaxx) =  4

     IMPORTANT: XC functional enforced from input :
     Exchange-correlation= PBE
                           (   1   4   3   4   0   0   0)
     Any further DFT definition will be discarded
     Please, verify this is what you really want


     gamma-point specific algorithms are used
 
     K-points division:     npool     =       2
     R & G space division:  proc/nbgrp/npool/nimage =       2
     Subspace diagonalization in iterative solution of the eigenvalue problem:
     a serial algorithm will be used

     Message from routine divide_et_impera:
     suboptimal parallelization: some nodes have no k-points
 
     Parallelization info
     --------------------
     sticks:   dense  smooth     PW     G-vecs:    dense   smooth      PW
     Min        2029    2029    539                97481    97481   13234
     Max        2030    2030    542                97482    97482   13235
     Sum        4059    4059   1081               194963   194963   26469
 
     Using Slab Decomposition
 


     bravais-lattice index     =            0
     lattice parameter (alat)  =      20.3594  a.u.
     unit-cell volume          =    8781.2812 (a.u.)^3
     number of atoms/cell      =           64
     number of atomic types    =            1
     number of electrons       =       256.00
     number of Kohn-Sham states=          128
     kinetic-energy cutoff     =      30.0000  Ry
     charge density cutoff     =     120.0000  Ry
     scf convergence threshold =      1.0E-06
     mixing beta               =       0.5000
     number of iterations used =            8  plain     mixing
     Exchange-correlation= PBE
                           (   1   4   3   4   0   0   0)

     GPU acceleration is ACTIVE.
     GPU-aware MPI enabled

     Message from routine print_cuda_info:
     High GPU oversubscription detected. Are you sure this is what you want?

     celldm(1)=  20.359396  celldm(2)=   0.000000  celldm(3)=   0.000000
     celldm(4)=   0.000000  celldm(5)=   0.000000  celldm(6)=   0.000000

     crystal axes: (cart. coord. in units of alat)
               a(1) = (   1.000000   0.000000   0.000000 )  
               a(2) = (   0.000000   1.025785   0.000000 )  
               a(3) = (   0.000000   0.000000   1.014395 )  

     reciprocal axes: (cart. coord. in units 2 pi/alat)
               b(1) = (  1.000000  0.000000  0.000000 )  
               b(2) = (  0.000000  0.974863  0.000000 )  
               b(3) = (  0.000000  0.000000  0.985810 )  


     PseudoPot. # 1 for Si read from file:
     /home/ppiaggi/pseudos/Si_ONCV_PBE_sr.upf
     MD5 check sum: 8553c464762ac42b85b1eed164b4d029
     Pseudo is Norm-conserving, Zval =  4.0
     Generated using ONCVPSP code by D. R. Hamann
     Using radial grid of 1510 points,  4 beta functions with: 
                l(1) =   0
                l(2) =   0
                l(3) =   1
                l(4) =   1

     atomic species   valence    mass     pseudopotential
        Si             4.00    28.08500     Si( 1.00)

     No symmetry found



   Cartesian axes

     site n.     atom                  positions (alat units)
         1           Si  tau(   1) = (   0.0022917   0.0017968   0.0033998  )
         2           Si  tau(   2) = (  -0.0004870   0.2538473   0.2529261  )
         3           Si  tau(   3) = (   0.2475035  -0.0043081   0.2498821  )
         4           Si  tau(   4) = (   0.2495735   0.2534064  -0.0032234  )
         5           Si  tau(   5) = (   0.1213025   0.1264491   0.1212690  )
         6           Si  tau(   6) = (   0.4922990   0.0038296   0.0036662  )
         7           Si  tau(   7) = (   0.4994525   0.2541773   0.2522924  )
         8           Si  tau(   8) = (   0.6180815   0.1314859   0.1282533  )
         9           Si  tau(   9) = (   0.7421464  -0.0042132   0.2501067  )
        10           Si  tau(  10) = (   0.7450436   0.2608851  -0.0000246  )
        11           Si  tau(  11) = (  -0.0004073   0.5179485   0.0032427  )
        12           Si  tau(  12) = (   0.2511235   0.5135868   0.2530533  )
        13           Si  tau(  13) = (   0.1276191   0.6434108   0.1298009  )
        14           Si  tau(  14) = (   0.3765291   0.3810103   0.1228673  )
        15           Si  tau(  15) = (   0.4980219   0.5124089  -0.0029651  )
        16           Si  tau(  16) = (   0.6171605   0.6396717   0.1293740  )
        17           Si  tau(  17) = (   0.8683557   0.3836512   0.1277768  )
        18           Si  tau(  18) = (   0.7488011   0.5113146   0.2508343  )
        19           Si  tau(  19) = (   0.0030726   0.7739214   0.2502686  )
        20           Si  tau(  20) = (   0.2517323   0.7745489  -0.0023126  )
        21           Si  tau(  21) = (   0.3737656   0.8999712   0.1256333  )
        22           Si  tau(  22) = (   0.4992327   0.7746236   0.2548366  )
        23           Si  tau(  23) = (   0.7462475   0.7675863  -0.0017531  )
        24           Si  tau(  24) = (   0.8705490   0.9000133   0.1264196  )
        25           Si  tau(  25) = (   0.0013084  -0.0027734   0.5026049  )
        26           Si  tau(  26) = (   0.2483243   0.2592186   0.5015014  )
        27           Si  tau(  27) = (   0.1200361   0.1305450   0.6235656  )
        28           Si  tau(  28) = (   0.3748630   0.1244997   0.3765485  )
        29           Si  tau(  29) = (   0.4927367   0.0040798   0.5041082  )
        30           Si  tau(  30) = (   0.6192292   0.1304232   0.6283826  )
        31           Si  tau(  31) = (   0.8727385   0.1297904   0.3734572  )
        32           Si  tau(  32) = (   0.7465874   0.2565617   0.4991546  )
        33           Si  tau(  33) = (   0.1212644   0.3864491   0.3791340  )
        34           Si  tau(  34) = (  -0.0043432   0.5123442   0.4990848  )
        35           Si  tau(  35) = (   0.1213178   0.6418360   0.6253132  )
        36           Si  tau(  36) = (   0.6242848   0.3884894   0.3737553  )
        37           Si  tau(  37) = (   0.3714514   0.6459035   0.3802735  )
        38           Si  tau(  38) = (   0.3767818   0.3891859   0.6234245  )
        39           Si  tau(  39) = (   0.5003776   0.5171344   0.5003043  )
        40           Si  tau(  40) = (   0.6180119   0.6402320   0.6242601  )
        41           Si  tau(  41) = (   0.8674915   0.6396757   0.3799363  )
        42           Si  tau(  42) = (   0.8723336   0.3873090   0.6233921  )
        43           Si  tau(  43) = (   0.1255808   0.9017476   0.3749409  )
        44           Si  tau(  44) = (   0.2482862   0.7720681   0.5033189  )
        45           Si  tau(  45) = (   0.6206652   0.8985903   0.3731599  )
        46           Si  tau(  46) = (   0.3702564   0.8958402   0.6267765  )
        47           Si  tau(  47) = (   0.7441300   0.7701190   0.4971110  )
        48           Si  tau(  48) = (   0.8679400   0.9039357   0.6227308  )
        49           Si  tau(  49) = (  -0.0035019   0.2599491   0.7555410  )
        50           Si  tau(  50) = (   0.2458149  -0.0041398   0.7485726  )
        51           Si  tau(  51) = (   0.3766894   0.1264927   0.8788019  )
        52           Si  tau(  52) = (   0.4971259   0.2583496   0.7511934  )
        53           Si  tau(  53) = (   0.7426220   0.0031470   0.7482269  )
        54           Si  tau(  54) = (   0.8668455   0.1305557   0.8822271  )
        55           Si  tau(  55) = (   0.1237579   0.3892342   0.8803200  )
        56           Si  tau(  56) = (   0.2468364   0.5170889   0.7479408  )
        57           Si  tau(  57) = (   0.6182668   0.3829106   0.8805436  )
        58           Si  tau(  58) = (   0.3702870   0.6381118   0.8739452  )
        59           Si  tau(  59) = (   0.7485696   0.5142249   0.7560016  )
        60           Si  tau(  60) = (   0.8680909   0.6405220   0.8801409  )
        61           Si  tau(  61) = (   0.0027488   0.7733287   0.7502493  )
        62           Si  tau(  62) = (   0.1202685   0.9027497   0.8750244  )
        63           Si  tau(  63) = (   0.4940618   0.7711852   0.7487446  )
        64           Si  tau(  64) = (   0.6230913   0.8970622   0.8748043  )

     number of k points=     1
                       cart. coord. in units 2pi/alat
        k(    1) = (   0.0000000   0.0000000   0.0000000), wk =   2.0000000

     Dense  grid:    97482 G-vectors     FFT dimensions: (  72,  75,  75)

     Estimated max dynamical RAM per process >     143.68 MB

     Estimated total dynamical RAM >     550.91 MB

     Initial potential from superposition of free atoms

     starting charge     255.9608, renormalised to     256.0000
     Starting wfcs are  256 randomized atomic wfcs

     total cpu time spent up to now is        4.5 secs

     Self-consistent Calculation

     iteration #  1     ecut=    30.00 Ry     beta= 0.50
     Davidson diagonalization with overlap
     ethr =  1.00E-02,  avg # of iterations =  2.0

     Threshold (ethr) on eigenvalues was too large:
     Diagonalizing with lowered threshold

     Davidson diagonalization with overlap
     ethr =  6.65E-04,  avg # of iterations =  2.0

     total cpu time spent up to now is        4.7 secs

     total energy              =    -503.84985350 Ry
     estimated scf accuracy    <       1.90118939 Ry

     iteration #  2     ecut=    30.00 Ry     beta= 0.50
     Davidson diagonalization with overlap
     ethr =  7.43E-04,  avg # of iterations =  1.0

     total cpu time spent up to now is        4.8 secs

     total energy              =    -503.82400964 Ry
     estimated scf accuracy    <       0.36903141 Ry

     iteration #  3     ecut=    30.00 Ry     beta= 0.50
     Davidson diagonalization with overlap
     ethr =  1.44E-04,  avg # of iterations =  2.0

     total cpu time spent up to now is        4.8 secs

     total energy              =    -503.85129687 Ry
     estimated scf accuracy    <       0.00628505 Ry

     iteration #  4     ecut=    30.00 Ry     beta= 0.50
     Davidson diagonalization with overlap
     ethr =  2.46E-06,  avg # of iterations =  8.0

     total cpu time spent up to now is        5.0 secs

     total energy              =    -503.85520397 Ry
     estimated scf accuracy    <       0.00079160 Ry

     iteration #  5     ecut=    30.00 Ry     beta= 0.50
     Davidson diagonalization with overlap
     ethr =  3.09E-07,  avg # of iterations =  6.0

     total cpu time spent up to now is        5.1 secs

     total energy              =    -503.85538168 Ry
     estimated scf accuracy    <       0.00036478 Ry

     iteration #  6     ecut=    30.00 Ry     beta= 0.50
     Davidson diagonalization with overlap
     ethr =  1.42E-07,  avg # of iterations =  4.0

     total cpu time spent up to now is        5.2 secs

     total energy              =    -503.85545656 Ry
     estimated scf accuracy    <       0.00001285 Ry

     iteration #  7     ecut=    30.00 Ry     beta= 0.50
     Davidson diagonalization with overlap
     ethr =  5.02E-09,  avg # of iterations =  7.0

     total cpu time spent up to now is        5.3 secs

     total energy              =    -503.85546108 Ry
     estimated scf accuracy    <       0.00001082 Ry

     iteration #  8     ecut=    30.00 Ry     beta= 0.50
     Davidson diagonalization with overlap
     ethr =  4.23E-09,  avg # of iterations =  3.0

     total cpu time spent up to now is        5.4 secs

     total energy              =    -503.85546364 Ry
     estimated scf accuracy    <       0.00000146 Ry

     iteration #  9     ecut=    30.00 Ry     beta= 0.50
     Davidson diagonalization with overlap
     ethr =  5.71E-10,  avg # of iterations =  4.0

     total cpu time spent up to now is        5.5 secs

     total energy              =    -503.85546367 Ry
     estimated scf accuracy    <       0.00000133 Ry

     iteration # 10     ecut=    30.00 Ry     beta= 0.50
     Davidson diagonalization with overlap
     ethr =  5.20E-10,  avg # of iterations =  2.0

     total cpu time spent up to now is        5.6 secs

     End of self-consistent calculation

          k = 0.0000 0.0000 0.0000 ( 12192 PWs)   bands (ev):

    -5.7934  -4.8092  -4.7988  -4.7238  -4.7118  -4.6481  -4.6014  -3.9174
    -3.8834  -3.8626  -3.8056  -3.8023  -3.7666  -3.7398  -3.7078  -3.7042
    -3.6686  -3.6361  -3.6064  -3.5027  -3.4756  -3.4045  -3.2866  -1.8470
    -1.8045  -1.7541  -1.7042  -1.6882  -1.6402  -1.6212  -1.5923  -1.5428
    -1.5403  -1.5237  -1.5047  -1.5035  -1.4370  -1.3923  -1.3775  -1.3400
    -1.3017  -0.8870  -0.7980  -0.7718  -0.7207   0.5246   0.5493   0.5607
     0.6025   0.6192   0.6219   0.6502   0.6787   0.7143   0.7326   0.7458
     0.7895   2.1609   2.1703   2.2012   2.2128   2.2186   2.2356   2.2485
     2.2680   2.2737   2.2791   2.2992   2.3323   2.3441   2.3678   2.3827
     2.4023   2.4175   2.4414   2.4547   2.4681   2.4924   2.5028   2.5206
     2.5301   2.5886   2.6090   2.6379   2.6638   2.7172   2.7582   3.1751
     3.2036   3.2767   3.2898   3.4003   3.4057   4.0898   4.1438   4.1615
     4.1769   4.1946   4.2308   4.2667   4.2846   4.3150   4.3510   4.3781
     4.4002   4.6003   4.6376   4.6776   4.6854   4.7076   4.7288   4.7602
     4.7725   4.8063   4.8111   4.8452   4.9143   4.9201   4.9448   4.9570
     4.9836   5.0159   5.0843   5.1463   5.3095   5.9957   6.1570   6.2583

     highest occupied level (ev):     6.2583

!    total energy              =    -503.85546389 Ry
     estimated scf accuracy    <       0.00000005 Ry

     The total energy is the sum of the following terms:
     one-electron contribution =     146.82351776 Ry
     hartree contribution      =      37.17231895 Ry
     xc contribution           =    -153.95777671 Ry
     ewald contribution        =    -533.89352389 Ry

     convergence has been achieved in  10 iterations

     Forces acting on atoms (cartesian axes, Ry/au):

     atom    1 type  1   force =    -0.05124895   -0.01528391   -0.06039642
     atom    2 type  1   force =    -0.00435719    0.01732142   -0.02012127
     atom    3 type  1   force =     0.00579261    0.03725678   -0.01003333
     atom    4 type  1   force =    -0.00462294    0.01212520   -0.02675448
     atom    5 type  1   force =     0.03193543    0.02098388    0.03060487
     atom    6 type  1   force =     0.03633141   -0.00852421   -0.04726887
     atom    7 type  1   force =    -0.01363815    0.02228541    0.01367338
     atom    8 type  1   force =     0.02806207   -0.01765003   -0.02348992
     atom    9 type  1   force =     0.01979641    0.03981962   -0.00608714
     atom   10 type  1   force =    -0.01273439   -0.01939941   -0.01827016
     atom   11 type  1   force =    -0.01391758   -0.01361436   -0.02414278
     atom   12 type  1   force =     0.00219190   -0.01143390   -0.00472474
     atom   13 type  1   force =     0.00343512    0.00938662   -0.02353068
     atom   14 type  1   force =    -0.01520989    0.00729446    0.00767947
     atom   15 type  1   force =    -0.01436135    0.00356282   -0.02074299
     atom   16 type  1   force =     0.02039693    0.01006732   -0.01694735
     atom   17 type  1   force =     0.04216150    0.00397506   -0.01385994
     atom   18 type  1   force =    -0.01139011    0.01992016   -0.00512822
     atom   19 type  1   force =    -0.03575007   -0.01829284    0.01479771
     atom   20 type  1   force =    -0.01899841   -0.02015941   -0.03323803
     atom   21 type  1   force =     0.00100103   -0.01643577    0.00005702
     atom   22 type  1   force =    -0.02844650   -0.02657335   -0.02224684
     atom   23 type  1   force =    -0.00930654    0.00679920   -0.01271893
     atom   24 type  1   force =     0.01435846   -0.01744546   -0.01684952
     atom   25 type  1   force =    -0.02464080    0.03012651   -0.02117512
     atom   26 type  1   force =     0.00729826   -0.00981301   -0.00322184
     atom   27 type  1   force =     0.01212649    0.00301657    0.02775749
     atom   28 type  1   force =    -0.03132264    0.02585454   -0.01298278
     atom   29 type  1   force =     0.02509091   -0.03076243    0.00182234
     atom   30 type  1   force =     0.00496531    0.00970724   -0.01944017
     atom   31 type  1   force =    -0.00507441   -0.03402357    0.01364285
     atom   32 type  1   force =    -0.00057083    0.00452689    0.00653209
     atom   33 type  1   force =     0.01381540   -0.00551207   -0.02208738
     atom   34 type  1   force =     0.00065919    0.01538513    0.01400669
     atom   35 type  1   force =    -0.00208350    0.00621590   -0.01065143
     atom   36 type  1   force =    -0.01179879   -0.01819060    0.01148162
     atom   37 type  1   force =     0.01148451   -0.00758280   -0.01550092
     atom   38 type  1   force =    -0.01676634   -0.00757930    0.00995038
     atom   39 type  1   force =    -0.01246035   -0.01640175   -0.01862282
     atom   40 type  1   force =     0.03425843    0.02170150    0.02793669
     atom   41 type  1   force =     0.03339395    0.01825645   -0.03433205
     atom   42 type  1   force =    -0.00599789   -0.01337884    0.02478104
     atom   43 type  1   force =    -0.00554506   -0.02450418    0.01674569
     atom   44 type  1   force =    -0.02092429   -0.00697280   -0.01044369
     atom   45 type  1   force =    -0.00377847    0.01643831    0.04048525
     atom   46 type  1   force =     0.00748221    0.01514282   -0.00318263
     atom   47 type  1   force =    -0.00457212    0.00428269    0.02475074
     atom   48 type  1   force =     0.01612652   -0.03313483    0.01210750
     atom   49 type  1   force =    -0.00608702   -0.00565489   -0.00305152
     atom   50 type  1   force =     0.00688773    0.04198157    0.01108599
     atom   51 type  1   force =    -0.02859561   -0.00230152    0.00382836
     atom   52 type  1   force =    -0.00915368    0.00066214    0.01177498
     atom   53 type  1   force =     0.01571849   -0.00094747    0.02814739
     atom   54 type  1   force =     0.02026289   -0.00616083    0.01497451
     atom   55 type  1   force =     0.00193611   -0.00495843    0.02248728
     atom   56 type  1   force =    -0.00311011   -0.02723396    0.00787574
     atom   57 type  1   force =     0.02306157    0.01646098    0.01293401
     atom   58 type  1   force =     0.01353712    0.02648888    0.04337911
     atom   59 type  1   force =    -0.02506164   -0.01455033   -0.02043399
     atom   60 type  1   force =     0.04299975    0.02081836    0.02182627
     atom   61 type  1   force =    -0.05589080   -0.00995348    0.00782301
     atom   62 type  1   force =     0.01393281   -0.01254547    0.05305844
     atom   63 type  1   force =     0.01268719   -0.01701793    0.01976255
     atom   64 type  1   force =    -0.01577127    0.00612867    0.04390747

     Total force =     0.285172     Total SCF correction =     0.000332


     Computing stress (Cartesian axis) and pressure

          total   stress  (Ry/bohr**3)                   (kbar)     P=       18.96
   0.00021004   0.00003039   0.00000168           30.90        4.47        0.25
   0.00003039   0.00005563   0.00003529            4.47        8.18        5.19
   0.00000168   0.00003529   0.00012107            0.25        5.19       17.81

 
     init_run     :      0.91s CPU      4.46s WALL (       1 calls)
     electrons    :      1.00s CPU      1.08s WALL (       1 calls)
     forces       :      0.04s CPU      0.04s WALL (       1 calls)
     stress       :      0.13s CPU      0.13s WALL (       1 calls)

     Called by init_run:
     wfcinit      :      0.44s CPU      3.82s WALL (       1 calls)
                                        3.82s GPU  (       1 calls)
     potinit      :      0.15s CPU      0.24s WALL (       1 calls)
     hinit0       :      0.30s CPU      0.33s WALL (       1 calls)

     Called by electrons:
     c_bands      :      0.65s CPU      0.69s WALL (      11 calls)
     sum_band     :      0.19s CPU      0.21s WALL (      11 calls)
     v_of_rho     :      0.09s CPU      0.19s WALL (      11 calls)
     mix_rho      :      0.06s CPU      0.08s WALL (      11 calls)

     Called by c_bands:
     init_us_2    :      0.03s CPU      0.03s WALL (      23 calls)
     init_us_2:gp :      0.03s CPU      0.03s WALL (      23 calls)
     regterg      :      0.56s CPU      0.60s WALL (      11 calls)

     Called by *egterg:
     rdiaghg      :      0.21s CPU      0.88s WALL (      51 calls)
                                        0.87s GPU  (      51 calls)
     h_psi        :      0.69s CPU      3.42s WALL (      53 calls)
                                        3.42s GPU  (      53 calls)
     g_psi        :      0.00s CPU      0.00s WALL (      41 calls)
                                        0.00s GPU  (      41 calls)

     Called by h_psi:
     h_psi:calbec :      0.40s CPU      3.05s WALL (      53 calls)
                                        3.05s GPU  (      53 calls)
     vloc_psi     :      0.26s CPU      0.33s WALL (      53 calls)
                                        0.33s GPU  (      53 calls)
     add_vuspsi   :      0.02s CPU      0.03s WALL (      53 calls)
                                        0.03s GPU  (      53 calls)

     General routines
     calbec       :      0.40s CPU      3.06s WALL (      58 calls)
     fft          :      0.33s CPU      0.45s WALL (      95 calls)
                                        0.11s GPU  (      61 calls)
     ffts         :      0.02s CPU      0.03s WALL (      11 calls)
     fftw         :      0.30s CPU      0.42s WALL (    1002 calls)
                                        0.37s GPU  (    1002 calls)
 
     Parallel routines
 
     PWSCF        :      2.11s CPU      5.79s WALL

 
   This run was terminated on:  15:22:40   8May2023            

=------------------------------------------------------------------------------=
   JOB DONE.
=------------------------------------------------------------------------------=
