An instance of this daemon is already running

     Program PWSCF v.7.1 starts on  8May2023 at 15:16:31 

     This program is part of the open-source Quantum ESPRESSO suite
     for quantum simulation of materials; please cite
         "P. Giannozzi et al., J. Phys.:Condens. Matter 21 395502 (2009);
         "P. Giannozzi et al., J. Phys.:Condens. Matter 29 465901 (2017);
         "P. Giannozzi et al., J. Chem. Phys. 152 154105 (2020);
          URL http://www.quantum-espresso.org", 
     in publications or presentations arising from this work. More details at
     http://www.quantum-espresso.org/quote

     Parallel version (MPI & OpenMP), running on       4 processor cores
     Number of MPI processes:                 4
     Threads/MPI process:                     1

     MPI processes distributed on     1 nodes
     183919 MiB available memory on the printing compute node when the environment starts
 
     Reading input from pw-si-49.in
Warning: card &CELL ignored
Warning: card / ignored

     Current dimensions of program PWSCF are:
     Max number of different atomic species (ntypx) = 10
     Max number of k-points (npk) =  40000
     Max angular momentum in pseudopotentials (lmaxx) =  4

     IMPORTANT: XC functional enforced from input :
     Exchange-correlation= PBE
                           (   1   4   3   4   0   0   0)
     Any further DFT definition will be discarded
     Please, verify this is what you really want


     gamma-point specific algorithms are used
 
     K-points division:     npool     =       2
     R & G space division:  proc/nbgrp/npool/nimage =       2
     Subspace diagonalization in iterative solution of the eigenvalue problem:
     a serial algorithm will be used

     Message from routine divide_et_impera:
     suboptimal parallelization: some nodes have no k-points
 
     Parallelization info
     --------------------
     sticks:   dense  smooth     PW     G-vecs:    dense   smooth      PW
     Min        2052    2052    544                98899    98899   13448
     Max        2055    2055    545                98900    98900   13453
     Sum        4107    4107   1089               197799   197799   26901
 
     Using Slab Decomposition
 


     bravais-lattice index     =            0
     lattice parameter (alat)  =      20.9370  a.u.
     unit-cell volume          =    8912.1631 (a.u.)^3
     number of atoms/cell      =           64
     number of atomic types    =            1
     number of electrons       =       256.00
     number of Kohn-Sham states=          128
     kinetic-energy cutoff     =      30.0000  Ry
     charge density cutoff     =     120.0000  Ry
     scf convergence threshold =      1.0E-06
     mixing beta               =       0.5000
     number of iterations used =            8  plain     mixing
     Exchange-correlation= PBE
                           (   1   4   3   4   0   0   0)

     GPU acceleration is ACTIVE.
     GPU-aware MPI enabled

     Message from routine print_cuda_info:
     High GPU oversubscription detected. Are you sure this is what you want?

     celldm(1)=  20.937036  celldm(2)=   0.000000  celldm(3)=   0.000000
     celldm(4)=   0.000000  celldm(5)=   0.000000  celldm(6)=   0.000000

     crystal axes: (cart. coord. in units of alat)
               a(1) = (   1.000000   0.000000   0.000000 )  
               a(2) = (   0.000000   0.980334   0.000000 )  
               a(3) = (   0.000000   0.000000   0.990521 )  

     reciprocal axes: (cart. coord. in units 2 pi/alat)
               b(1) = (  1.000000  0.000000  0.000000 )  
               b(2) = (  0.000000  1.020061  0.000000 )  
               b(3) = (  0.000000  0.000000  1.009570 )  


     PseudoPot. # 1 for Si read from file:
     /home/ppiaggi/pseudos/Si_ONCV_PBE_sr.upf
     MD5 check sum: 8553c464762ac42b85b1eed164b4d029
     Pseudo is Norm-conserving, Zval =  4.0
     Generated using ONCVPSP code by D. R. Hamann
     Using radial grid of 1510 points,  4 beta functions with: 
                l(1) =   0
                l(2) =   0
                l(3) =   1
                l(4) =   1

     atomic species   valence    mass     pseudopotential
        Si             4.00    28.08500     Si( 1.00)

     No symmetry found



   Cartesian axes

     site n.     atom                  positions (alat units)
         1           Si  tau(   1) = (  -0.0029643  -0.0018187   0.0027062  )
         2           Si  tau(   2) = (   0.0044483   0.2375924   0.2490922  )
         3           Si  tau(   3) = (   0.2590073  -0.0000926   0.2514998  )
         4           Si  tau(   4) = (   0.2500210   0.2374449  -0.0040365  )
         5           Si  tau(   5) = (   0.1279187   0.1215941   0.1287206  )
         6           Si  tau(   6) = (   0.5050851  -0.0016379   0.0007402  )
         7           Si  tau(   7) = (   0.5091086   0.2397279   0.2468713  )
         8           Si  tau(   8) = (   0.6343593   0.1173048   0.1219423  )
         9           Si  tau(   9) = (   0.7659226   0.0030749   0.2517790  )
        10           Si  tau(  10) = (   0.7604771   0.2448974  -0.0033652  )
        11           Si  tau(  11) = (  -0.0034432   0.4791660  -0.0006936  )
        12           Si  tau(  12) = (   0.2550803   0.4827971   0.2493885  )
        13           Si  tau(  13) = (   0.1310405   0.6039388   0.1262464  )
        14           Si  tau(  14) = (   0.3818725   0.3607721   0.1230110  )
        15           Si  tau(  15) = (   0.5051736   0.4861092   0.0017152  )
        16           Si  tau(  16) = (   0.6385702   0.6005915   0.1266174  )
        17           Si  tau(  17) = (   0.8951276   0.3586184   0.1286867  )
        18           Si  tau(  18) = (   0.7649814   0.4841114   0.2479398  )
        19           Si  tau(  19) = (   0.0035002   0.7200965   0.2521965  )
        20           Si  tau(  20) = (   0.2521818   0.7221668  -0.0012312  )
        21           Si  tau(  21) = (   0.3778889   0.8483479   0.1291071  )
        22           Si  tau(  22) = (   0.5135609   0.7265319   0.2470628  )
        23           Si  tau(  23) = (   0.7609049   0.7219759  -0.0023453  )
        24           Si  tau(  24) = (   0.8933020   0.8464493   0.1272918  )
        25           Si  tau(  25) = (  -0.0003795  -0.0012179   0.5042067  )
        26           Si  tau(  26) = (   0.2589352   0.2421004   0.5040659  )
        27           Si  tau(  27) = (   0.1298056   0.1213262   0.6296714  )
        28           Si  tau(  28) = (   0.3840640   0.1225710   0.3777905  )
        29           Si  tau(  29) = (   0.5086935  -0.0009006   0.5065112  )
        30           Si  tau(  30) = (   0.6367001   0.1249557   0.6322483  )
        31           Si  tau(  31) = (   0.8878558   0.1236842   0.3729061  )
        32           Si  tau(  32) = (   0.7612772   0.2439098   0.4984534  )
        33           Si  tau(  33) = (   0.1263980   0.3631919   0.3761523  )
        34           Si  tau(  34) = (   0.0042615   0.4820107   0.5010435  )
        35           Si  tau(  35) = (   0.1282662   0.6072576   0.6239271  )
        36           Si  tau(  36) = (   0.6362191   0.3589011   0.3746560  )
        37           Si  tau(  37) = (   0.3798738   0.6022899   0.3755247  )
        38           Si  tau(  38) = (   0.3827523   0.3603083   0.6311667  )
        39           Si  tau(  39) = (   0.5076241   0.4801703   0.4984815  )
        40           Si  tau(  40) = (   0.6354105   0.6053944   0.6289589  )
        41           Si  tau(  41) = (   0.8946830   0.6028700   0.3743034  )
        42           Si  tau(  42) = (   0.8899812   0.3594970   0.6301218  )
        43           Si  tau(  43) = (   0.1243491   0.8411329   0.3751195  )
        44           Si  tau(  44) = (   0.2542420   0.7273942   0.5013596  )
        45           Si  tau(  45) = (   0.6343866   0.8398405   0.3758700  )
        46           Si  tau(  46) = (   0.3860051   0.8458120   0.6267996  )
        47           Si  tau(  47) = (   0.7646083   0.7236994   0.5063599  )
        48           Si  tau(  48) = (   0.8894863   0.8459168   0.6243706  )
        49           Si  tau(  49) = (   0.0020192   0.2427942   0.7509231  )
        50           Si  tau(  50) = (   0.2531485  -0.0036022   0.7554248  )
        51           Si  tau(  51) = (   0.3858938   0.1196925   0.8801183  )
        52           Si  tau(  52) = (   0.5128364   0.2453248   0.7543625  )
        53           Si  tau(  53) = (   0.7648753  -0.0025234   0.7522738  )
        54           Si  tau(  54) = (   0.8949729   0.1168799   0.8826075  )
        55           Si  tau(  55) = (   0.1232832   0.3638176   0.8829420  )
        56           Si  tau(  56) = (   0.2574921   0.4802970   0.7521091  )
        57           Si  tau(  57) = (   0.6326298   0.3649309   0.8812563  )
        58           Si  tau(  58) = (   0.3793790   0.6070776   0.8809231  )
        59           Si  tau(  59) = (   0.7615442   0.4815109   0.7547302  )
        60           Si  tau(  60) = (   0.8879838   0.5997755   0.8793950  )
        61           Si  tau(  61) = (  -0.0043623   0.7234291   0.7542341  )
        62           Si  tau(  62) = (   0.1230226   0.8402979   0.8753739  )
        63           Si  tau(  63) = (   0.5081878   0.7211076   0.7553511  )
        64           Si  tau(  64) = (   0.6337751   0.8425383   0.8762067  )

     number of k points=     1
                       cart. coord. in units 2pi/alat
        k(    1) = (   0.0000000   0.0000000   0.0000000), wk =   2.0000000

     Dense  grid:    98900 G-vectors     FFT dimensions: (  75,  72,  75)

     Estimated max dynamical RAM per process >     145.57 MB

     Estimated total dynamical RAM >     558.14 MB

     Initial potential from superposition of free atoms

     starting charge     255.9608, renormalised to     256.0000
     Starting wfcs are  256 randomized atomic wfcs

     total cpu time spent up to now is        4.6 secs

     Self-consistent Calculation

     iteration #  1     ecut=    30.00 Ry     beta= 0.50
     Davidson diagonalization with overlap
     ethr =  1.00E-02,  avg # of iterations =  2.0

     Threshold (ethr) on eigenvalues was too large:
     Diagonalizing with lowered threshold

     Davidson diagonalization with overlap
     ethr =  6.50E-04,  avg # of iterations =  2.0

     total cpu time spent up to now is        4.8 secs

     total energy              =    -503.69623340 Ry
     estimated scf accuracy    <       1.85802371 Ry

     iteration #  2     ecut=    30.00 Ry     beta= 0.50
     Davidson diagonalization with overlap
     ethr =  7.26E-04,  avg # of iterations =  1.0

     total cpu time spent up to now is        4.8 secs

     total energy              =    -503.67122023 Ry
     estimated scf accuracy    <       0.36344017 Ry

     iteration #  3     ecut=    30.00 Ry     beta= 0.50
     Davidson diagonalization with overlap
     ethr =  1.42E-04,  avg # of iterations =  2.0

     total cpu time spent up to now is        4.9 secs

     total energy              =    -503.69833792 Ry
     estimated scf accuracy    <       0.00657352 Ry

     iteration #  4     ecut=    30.00 Ry     beta= 0.50
     Davidson diagonalization with overlap
     ethr =  2.57E-06,  avg # of iterations = 15.0

     total cpu time spent up to now is        5.1 secs

     total energy              =    -503.70404010 Ry
     estimated scf accuracy    <       0.00172417 Ry

     iteration #  5     ecut=    30.00 Ry     beta= 0.50
     Davidson diagonalization with overlap
     ethr =  6.74E-07,  avg # of iterations =  8.0

     total cpu time spent up to now is        5.2 secs

     total energy              =    -503.70437784 Ry
     estimated scf accuracy    <       0.00019189 Ry

     iteration #  6     ecut=    30.00 Ry     beta= 0.50
     Davidson diagonalization with overlap
     ethr =  7.50E-08,  avg # of iterations =  9.0

     total cpu time spent up to now is        5.4 secs

     total energy              =    -503.70442671 Ry
     estimated scf accuracy    <       0.00011574 Ry

     iteration #  7     ecut=    30.00 Ry     beta= 0.50
     Davidson diagonalization with overlap
     ethr =  4.52E-08,  avg # of iterations =  3.0

     total cpu time spent up to now is        5.5 secs

     total energy              =    -503.70445105 Ry
     estimated scf accuracy    <       0.00000904 Ry

     iteration #  8     ecut=    30.00 Ry     beta= 0.50
     Davidson diagonalization with overlap
     ethr =  3.53E-09,  avg # of iterations =  9.0

     total cpu time spent up to now is        5.6 secs

     total energy              =    -503.70445148 Ry
     estimated scf accuracy    <       0.00000607 Ry

     iteration #  9     ecut=    30.00 Ry     beta= 0.50
     Davidson diagonalization with overlap
     ethr =  2.37E-09,  avg # of iterations =  4.0

     total cpu time spent up to now is        5.7 secs

     End of self-consistent calculation

          k = 0.0000 0.0000 0.0000 ( 12384 PWs)   bands (ev):

    -5.9269  -4.9719  -4.9354  -4.9005  -4.7743  -4.7411  -4.6913  -4.1915
    -4.1270  -4.0086  -3.9440  -3.9201  -3.8842  -3.8377  -3.8055  -3.7878
    -3.6999  -3.6179  -3.6044  -3.5773  -3.4833  -3.4296  -3.2483  -2.1598
    -2.0440  -1.9599  -1.8992  -1.7890  -1.7651  -1.7187  -1.6991  -1.6548
    -1.6164  -1.6083  -1.5936  -1.5558  -1.5376  -1.4737  -1.4168  -1.3914
    -1.3650  -1.0848  -0.9400  -0.8270  -0.7221   0.3543   0.3916   0.4135
     0.4267   0.4569   0.4845   0.5098   0.5280   0.5702   0.5800   0.6236
     0.7048   1.8731   1.9312   1.9446   1.9995   2.0306   2.0399   2.0936
     2.1395   2.1602   2.1866   2.1989   2.2091   2.2336   2.2385   2.2900
     2.3083   2.3554   2.3828   2.4116   2.4202   2.4371   2.4405   2.4711
     2.5097   2.5349   2.5651   2.5717   2.6067   2.6350   2.6913   3.0503
     3.0960   3.0999   3.1138   3.2480   3.2919   3.9142   3.9491   3.9704
     4.0305   4.0363   4.0973   4.1211   4.1536   4.1791   4.2347   4.2532
     4.3041   4.3280   4.3470   4.4816   4.5289   4.5839   4.6049   4.6602
     4.6917   4.7205   4.7554   4.7727   4.7916   4.8405   4.8784   4.9244
     4.9447   4.9759   5.0366   5.0541   5.2522   5.7948   6.0759   6.1486

     highest occupied level (ev):     6.1486

!    total energy              =    -503.70445241 Ry
     estimated scf accuracy    <       0.00000097 Ry

     The total energy is the sum of the following terms:
     one-electron contribution =     141.43023120 Ry
     hartree contribution      =      38.43476129 Ry
     xc contribution           =    -153.45060954 Ry
     ewald contribution        =    -530.11883536 Ry

     convergence has been achieved in   9 iterations

     Forces acting on atoms (cartesian axes, Ry/au):

     atom    1 type  1   force =     0.11038434   -0.07805580    0.07160437
     atom    2 type  1   force =     0.05067598    0.01298164    0.02693661
     atom    3 type  1   force =    -0.02494493   -0.03017975    0.01627595
     atom    4 type  1   force =     0.01992542    0.00950634    0.05747991
     atom    5 type  1   force =     0.01952874   -0.03405770   -0.01880940
     atom    6 type  1   force =     0.02188138   -0.05966558    0.04283330
     atom    7 type  1   force =     0.00284488   -0.00332819    0.00741488
     atom    8 type  1   force =     0.01323191    0.00741618    0.00718741
     atom    9 type  1   force =    -0.02705749   -0.06101553   -0.00927963
     atom   10 type  1   force =     0.01863597   -0.03011672    0.06085749
     atom   11 type  1   force =     0.07463730    0.01526720    0.07874655
     atom   12 type  1   force =     0.00349477   -0.00931977    0.00502736
     atom   13 type  1   force =    -0.01533977   -0.01691478   -0.00919109
     atom   14 type  1   force =    -0.01624364   -0.00709443    0.00388735
     atom   15 type  1   force =     0.00833471   -0.00322287    0.04527661
     atom   16 type  1   force =    -0.01189818    0.01618506   -0.01273960
     atom   17 type  1   force =    -0.08709766    0.00551252   -0.01216347
     atom   18 type  1   force =     0.00392455   -0.01988970    0.02400212
     atom   19 type  1   force =     0.05018284    0.02594477   -0.02677150
     atom   20 type  1   force =    -0.00419215    0.03522647    0.05783055
     atom   21 type  1   force =     0.01408607    0.01548813   -0.01923836
     atom   22 type  1   force =    -0.03068444   -0.01764392    0.01033619
     atom   23 type  1   force =     0.00636068    0.01558662    0.05865909
     atom   24 type  1   force =    -0.06855310    0.01780979    0.00281159
     atom   25 type  1   force =     0.04940809   -0.01944522   -0.01900536
     atom   26 type  1   force =    -0.01874749   -0.00165887   -0.00838691
     atom   27 type  1   force =     0.00607658   -0.01123818   -0.01084876
     atom   28 type  1   force =     0.00440916   -0.01323157    0.00118976
     atom   29 type  1   force =     0.01229356   -0.02576896   -0.01432054
     atom   30 type  1   force =     0.00948927   -0.02126901   -0.02216358
     atom   31 type  1   force =    -0.03444132   -0.01813825    0.03175064
     atom   32 type  1   force =     0.00550431   -0.01266521    0.02064147
     atom   33 type  1   force =     0.02626325   -0.01579876   -0.00021436
     atom   34 type  1   force =     0.03192013   -0.00097486    0.01539381
     atom   35 type  1   force =     0.00777518   -0.01285157    0.02192829
     atom   36 type  1   force =    -0.00659893    0.02059580   -0.01588115
     atom   37 type  1   force =     0.01317602    0.01708013   -0.00595172
     atom   38 type  1   force =     0.01243763    0.00554907   -0.01672999
     atom   39 type  1   force =     0.00414478    0.00994859    0.01591170
     atom   40 type  1   force =    -0.00215100   -0.02312127   -0.00831757
     atom   41 type  1   force =    -0.08279864   -0.00989157    0.02564514
     atom   42 type  1   force =    -0.06046022    0.02424191   -0.03100821
     atom   43 type  1   force =     0.02191694    0.06308803    0.01037638
     atom   44 type  1   force =     0.01418261   -0.00008654   -0.00455585
     atom   45 type  1   force =     0.02093232    0.06717835    0.01917903
     atom   46 type  1   force =    -0.01915292    0.02829671    0.01109543
     atom   47 type  1   force =    -0.00884077   -0.00342417   -0.03306209
     atom   48 type  1   force =    -0.04645638    0.03777760    0.01571488
     atom   49 type  1   force =     0.05515371   -0.02752568    0.02880805
     atom   50 type  1   force =     0.01480916   -0.03145726   -0.00700197
     atom   51 type  1   force =    -0.02686546    0.00688834   -0.06513661
     atom   52 type  1   force =    -0.01785076   -0.01582727    0.00666512
     atom   53 type  1   force =    -0.00661568   -0.02645682    0.00590009
     atom   54 type  1   force =    -0.10257714    0.05549147   -0.09618868
     atom   55 type  1   force =     0.03028225   -0.01132402   -0.08132366
     atom   56 type  1   force =    -0.02461667    0.02170401    0.01063605
     atom   57 type  1   force =     0.00130408    0.01296331   -0.04871653
     atom   58 type  1   force =     0.00829284   -0.02323619   -0.06119666
     atom   59 type  1   force =    -0.00956583    0.00119581   -0.01260616
     atom   60 type  1   force =    -0.06657959    0.02399959   -0.05890357
     atom   61 type  1   force =     0.05689937   -0.00594073   -0.02398544
     atom   62 type  1   force =     0.00513319    0.06019294   -0.01883142
     atom   63 type  1   force =    -0.00542216    0.01529525   -0.01578373
     atom   64 type  1   force =    -0.00418169    0.05342507   -0.02968960

     Total force =     0.458073     Total SCF correction =     0.001723


     Computing stress (Cartesian axis) and pressure

          total   stress  (Ry/bohr**3)                   (kbar)     P=        8.17
  -0.00001228  -0.00007903   0.00004013           -1.81      -11.63        5.90
  -0.00007903   0.00012084  -0.00007270          -11.63       17.78      -10.69
   0.00004013  -0.00007270   0.00005812            5.90      -10.69        8.55

 
     init_run     :      1.01s CPU      4.54s WALL (       1 calls)
     electrons    :      1.02s CPU      1.09s WALL (       1 calls)
     forces       :      0.03s CPU      0.04s WALL (       1 calls)
     stress       :      0.13s CPU      0.13s WALL (       1 calls)

     Called by init_run:
     wfcinit      :      0.45s CPU      3.79s WALL (       1 calls)
                                        3.79s GPU  (       1 calls)
     potinit      :      0.15s CPU      0.25s WALL (       1 calls)
     hinit0       :      0.40s CPU      0.42s WALL (       1 calls)

     Called by electrons:
     c_bands      :      0.70s CPU      0.73s WALL (      10 calls)
     sum_band     :      0.17s CPU      0.20s WALL (      10 calls)
     v_of_rho     :      0.09s CPU      0.18s WALL (      10 calls)
     mix_rho      :      0.06s CPU      0.07s WALL (      10 calls)

     Called by c_bands:
     init_us_2    :      0.03s CPU      0.03s WALL (      21 calls)
     init_us_2:gp :      0.03s CPU      0.03s WALL (      21 calls)
     regterg      :      0.61s CPU      0.65s WALL (      10 calls)

     Called by *egterg:
     rdiaghg      :      0.27s CPU      0.94s WALL (      64 calls)
                                        0.93s GPU  (      64 calls)
     h_psi        :      0.68s CPU      3.38s WALL (      66 calls)
                                        3.38s GPU  (      66 calls)
     g_psi        :      0.00s CPU      0.00s WALL (      55 calls)
                                        0.00s GPU  (      55 calls)

     Called by h_psi:
     h_psi:calbec :      0.39s CPU      3.02s WALL (      66 calls)
                                        3.01s GPU  (      66 calls)
     vloc_psi     :      0.25s CPU      0.32s WALL (      66 calls)
                                        0.32s GPU  (      66 calls)
     add_vuspsi   :      0.03s CPU      0.04s WALL (      66 calls)
                                        0.04s GPU  (      66 calls)

     General routines
     calbec       :      0.40s CPU      3.02s WALL (      71 calls)
     fft          :      0.43s CPU      0.55s WALL (      87 calls)
                                        0.12s GPU  (      56 calls)
     ffts         :      0.02s CPU      0.02s WALL (      10 calls)
     fftw         :      0.28s CPU      0.40s WALL (     948 calls)
                                        0.36s GPU  (     948 calls)
 
     Parallel routines
 
     PWSCF        :      2.23s CPU      5.87s WALL

 
   This run was terminated on:  15:16:37   8May2023            

=------------------------------------------------------------------------------=
   JOB DONE.
=------------------------------------------------------------------------------=
