An instance of this daemon is already running
An instance of this daemon is already running

     Program PWSCF v.7.1 starts on 10May2023 at 11:43:42 

     This program is part of the open-source Quantum ESPRESSO suite
     for quantum simulation of materials; please cite
         "P. Giannozzi et al., J. Phys.:Condens. Matter 21 395502 (2009);
         "P. Giannozzi et al., J. Phys.:Condens. Matter 29 465901 (2017);
         "P. Giannozzi et al., J. Chem. Phys. 152 154105 (2020);
          URL http://www.quantum-espresso.org", 
     in publications or presentations arising from this work. More details at
     http://www.quantum-espresso.org/quote

     Parallel version (MPI & OpenMP), running on       4 processor cores
     Number of MPI processes:                 4
     Threads/MPI process:                     1

     MPI processes distributed on     1 nodes
     707041 MiB available memory on the printing compute node when the environment starts
 
     Reading input from pw-si-83.in
Warning: card &CELL ignored
Warning: card / ignored

     Current dimensions of program PWSCF are:
     Max number of different atomic species (ntypx) = 10
     Max number of k-points (npk) =  40000
     Max angular momentum in pseudopotentials (lmaxx) =  4

     IMPORTANT: XC functional enforced from input :
     Exchange-correlation= PBE
                           (   1   4   3   4   0   0   0)
     Any further DFT definition will be discarded
     Please, verify this is what you really want


     gamma-point specific algorithms are used
 
     K-points division:     npool     =       2
     R & G space division:  proc/nbgrp/npool/nimage =       2
     Subspace diagonalization in iterative solution of the eigenvalue problem:
     a serial algorithm will be used

     Message from routine divide_et_impera:
     suboptimal parallelization: some nodes have no k-points
 
     Parallelization info
     --------------------
     sticks:   dense  smooth     PW     G-vecs:    dense   smooth      PW
     Min        2041    2041    541                97242    97242   13208
     Max        2042    2042    544                97243    97243   13209
     Sum        4083    4083   1085               194485   194485   26417
 
     Using Slab Decomposition
 


     bravais-lattice index     =            0
     lattice parameter (alat)  =      20.0524  a.u.
     unit-cell volume          =    8759.3547 (a.u.)^3
     number of atoms/cell      =           64
     number of atomic types    =            1
     number of electrons       =       256.00
     number of Kohn-Sham states=          154
     kinetic-energy cutoff     =      30.0000  Ry
     charge density cutoff     =     120.0000  Ry
     scf convergence threshold =      1.0E-06
     mixing beta               =       0.5000
     number of iterations used =            8  plain     mixing
     Exchange-correlation= PBE
                           (   1   4   3   4   0   0   0)

     GPU acceleration is ACTIVE.
     GPU-aware MPI enabled

     Message from routine print_cuda_info:
     High GPU oversubscription detected. Are you sure this is what you want?

     celldm(1)=  20.052387  celldm(2)=   0.000000  celldm(3)=   0.000000
     celldm(4)=   0.000000  celldm(5)=   0.000000  celldm(6)=   0.000000

     crystal axes: (cart. coord. in units of alat)
               a(1) = (   1.000000   0.000000   0.000000 )  
               a(2) = (   0.000000   1.064953   0.000000 )  
               a(3) = (   0.000000   0.000000   1.020102 )  

     reciprocal axes: (cart. coord. in units 2 pi/alat)
               b(1) = (  1.000000  0.000000  0.000000 )  
               b(2) = (  0.000000  0.939008  0.000000 )  
               b(3) = (  0.000000  0.000000  0.980295 )  


     PseudoPot. # 1 for Si read from file:
     /home/ppiaggi/pseudos/Si_ONCV_PBE_sr.upf
     MD5 check sum: 8553c464762ac42b85b1eed164b4d029
     Pseudo is Norm-conserving, Zval =  4.0
     Generated using ONCVPSP code by D. R. Hamann
     Using radial grid of 1510 points,  4 beta functions with: 
                l(1) =   0
                l(2) =   0
                l(3) =   1
                l(4) =   1

     atomic species   valence    mass     pseudopotential
        Si             4.00    28.08500     Si( 1.00)

     No symmetry found



   Cartesian axes

     site n.     atom                  positions (alat units)
         1           Si  tau(   1) = (   0.0100405  -0.0172533  -0.0129658  )
         2           Si  tau(   2) = (   0.0057317   0.2786197   0.2663938  )
         3           Si  tau(   3) = (   0.2585883  -0.0174051   0.2536281  )
         4           Si  tau(   4) = (   0.2557717   0.2736746   0.0054459  )
         5           Si  tau(   5) = (   0.1326167   0.1206179   0.1382884  )
         6           Si  tau(   6) = (   0.4860110   0.0170919  -0.0155808  )
         7           Si  tau(   7) = (   0.4660103   0.2510315   0.2591086  )
         8           Si  tau(   8) = (   0.5938910   0.1453168   0.1099907  )
         9           Si  tau(   9) = (   0.7360499  -0.0159665   0.2628107  )
        10           Si  tau(  10) = (   0.7325177   0.2487365  -0.0017231  )
        11           Si  tau(  11) = (   0.0013223   0.5171177   0.0164878  )
        12           Si  tau(  12) = (   0.2259958   0.5208200   0.2676097  )
        13           Si  tau(  13) = (   0.1059563   0.6705440   0.1321269  )
        14           Si  tau(  14) = (   0.3660446   0.4009929   0.1131889  )
        15           Si  tau(  15) = (   0.4911366   0.5134624   0.0039946  )
        16           Si  tau(  16) = (   0.6101916   0.6552170   0.1412432  )
        17           Si  tau(  17) = (   0.8420509   0.4023458   0.1406177  )
        18           Si  tau(  18) = (   0.7123682   0.5154729   0.2575361  )
        19           Si  tau(  19) = (   0.0063000   0.7691603   0.2429482  )
        20           Si  tau(  20) = (   0.2543788   0.7716129  -0.0157634  )
        21           Si  tau(  21) = (   0.3745080   0.9064832   0.1179079  )
        22           Si  tau(  22) = (   0.4787990   0.7724072   0.2470629  )
        23           Si  tau(  23) = (   0.7174178   0.7703101   0.0037729  )
        24           Si  tau(  24) = (   0.8377255   0.9040879   0.1182186  )
        25           Si  tau(  25) = (   0.0126290   0.0083004   0.5121473  )
        26           Si  tau(  26) = (   0.2531811   0.2574703   0.4933751  )
        27           Si  tau(  27) = (   0.1114827   0.1218813   0.6093205  )
        28           Si  tau(  28) = (   0.3656543   0.1202977   0.3730541  )
        29           Si  tau(  29) = (   0.4764583  -0.0091022   0.4828578  )
        30           Si  tau(  30) = (   0.6126513   0.1317106   0.6292597  )
        31           Si  tau(  31) = (   0.8298730   0.1189184   0.3914463  )
        32           Si  tau(  32) = (   0.7213563   0.2590071   0.5116133  )
        33           Si  tau(  33) = (   0.1361865   0.4069744   0.3789969  )
        34           Si  tau(  34) = (   0.0066461   0.5075641   0.4868084  )
        35           Si  tau(  35) = (   0.1283281   0.6742595   0.6190830  )
        36           Si  tau(  36) = (   0.5994117   0.3850860   0.3628723  )
        37           Si  tau(  37) = (   0.3581701   0.6378133   0.3871192  )
        38           Si  tau(  38) = (   0.3686772   0.3934892   0.6113040  )
        39           Si  tau(  39) = (   0.4980023   0.5354971   0.5149293  )
        40           Si  tau(  40) = (   0.5974678   0.6694865   0.6365177  )
        41           Si  tau(  41) = (   0.8373034   0.6490061   0.3758966  )
        42           Si  tau(  42) = (   0.8453273   0.3750269   0.6205270  )
        43           Si  tau(  43) = (   0.1227106   0.8991224   0.3775213  )
        44           Si  tau(  44) = (   0.2540515   0.7948370   0.5038570  )
        45           Si  tau(  45) = (   0.6062259   0.9004280   0.3835939  )
        46           Si  tau(  46) = (   0.3754156   0.9266156   0.6126693  )
        47           Si  tau(  47) = (   0.7425814   0.7876200   0.5073798  )
        48           Si  tau(  48) = (   0.8424418   0.9045158   0.6322131  )
        49           Si  tau(  49) = (  -0.0019945   0.2450234   0.7546967  )
        50           Si  tau(  50) = (   0.2303266   0.0167935   0.7407329  )
        51           Si  tau(  51) = (   0.3791463   0.1294883   0.8821536  )
        52           Si  tau(  52) = (   0.4888501   0.2547667   0.7376995  )
        53           Si  tau(  53) = (   0.7186576   0.0093802   0.7391965  )
        54           Si  tau(  54) = (   0.8346065   0.1359086   0.8869222  )
        55           Si  tau(  55) = (   0.1110665   0.3969675   0.8620696  )
        56           Si  tau(  56) = (   0.2424804   0.5109052   0.7401282  )
        57           Si  tau(  57) = (   0.5982708   0.3843486   0.8858257  )
        58           Si  tau(  58) = (   0.3744626   0.6626812   0.8814525  )
        59           Si  tau(  59) = (   0.7310153   0.5201522   0.7560945  )
        60           Si  tau(  60) = (   0.8315330   0.6737159   0.8908929  )
        61           Si  tau(  61) = (   0.0042712   0.7948078   0.7383641  )
        62           Si  tau(  62) = (   0.1265834   0.9176012   0.8575489  )
        63           Si  tau(  63) = (   0.4856853   0.8048395   0.7601971  )
        64           Si  tau(  64) = (   0.5996416   0.9062882   0.8923097  )

     number of k points=     1  Fermi-Dirac smearing, width (Ry)=  0.0100
                       cart. coord. in units 2pi/alat
        k(    1) = (   0.0000000   0.0000000   0.0000000), wk =   2.0000000

     Dense  grid:    97243 G-vectors     FFT dimensions: (  72,  75,  72)

     Estimated max dynamical RAM per process >     155.45 MB

     Estimated total dynamical RAM >     598.05 MB

     Initial potential from superposition of free atoms

     starting charge     255.9608, renormalised to     256.0000
     Starting wfcs are  256 randomized atomic wfcs

     total cpu time spent up to now is        5.2 secs

     Self-consistent Calculation

     iteration #  1     ecut=    30.00 Ry     beta= 0.50
     Davidson diagonalization with overlap
     ethr =  1.00E-02,  avg # of iterations =  3.0

     Threshold (ethr) on eigenvalues was too large:
     Diagonalizing with lowered threshold

     Davidson diagonalization with overlap
     ethr =  7.39E-04,  avg # of iterations =  4.0

     total cpu time spent up to now is        5.4 secs

     total energy              =    -502.04733096 Ry
     estimated scf accuracy    <       2.17020498 Ry

     iteration #  2     ecut=    30.00 Ry     beta= 0.50
     Davidson diagonalization with overlap
     ethr =  8.48E-04,  avg # of iterations =  4.0

     total cpu time spent up to now is        5.6 secs

     total energy              =    -501.86130969 Ry
     estimated scf accuracy    <       1.50124887 Ry

     iteration #  3     ecut=    30.00 Ry     beta= 0.50
     Davidson diagonalization with overlap
     ethr =  5.86E-04,  avg # of iterations =  5.0

     total cpu time spent up to now is        5.7 secs

     total energy              =    -501.93499508 Ry
     estimated scf accuracy    <       2.35640521 Ry

     iteration #  4     ecut=    30.00 Ry     beta= 0.50
     Davidson diagonalization with overlap
     ethr =  5.86E-04,  avg # of iterations =  3.0

     total cpu time spent up to now is        5.8 secs

     total energy              =    -502.21204928 Ry
     estimated scf accuracy    <       0.24612472 Ry

     iteration #  5     ecut=    30.00 Ry     beta= 0.50
     Davidson diagonalization with overlap
     ethr =  9.61E-05,  avg # of iterations = 14.0

     total cpu time spent up to now is        6.0 secs

     total energy              =    -502.24147300 Ry
     estimated scf accuracy    <       0.04954404 Ry

     iteration #  6     ecut=    30.00 Ry     beta= 0.50
     Davidson diagonalization with overlap
     ethr =  1.94E-05,  avg # of iterations = 10.0

     total cpu time spent up to now is        6.1 secs

     total energy              =    -502.24568500 Ry
     estimated scf accuracy    <       0.03097961 Ry

     iteration #  7     ecut=    30.00 Ry     beta= 0.50
     Davidson diagonalization with overlap
     ethr =  1.21E-05,  avg # of iterations =  3.0

     total cpu time spent up to now is        6.2 secs

     total energy              =    -502.24913316 Ry
     estimated scf accuracy    <       0.00184305 Ry

     iteration #  8     ecut=    30.00 Ry     beta= 0.50
     Davidson diagonalization with overlap
     ethr =  7.20E-07,  avg # of iterations =  8.0

     total cpu time spent up to now is        6.4 secs

     total energy              =    -502.24952096 Ry
     estimated scf accuracy    <       0.00110166 Ry

     iteration #  9     ecut=    30.00 Ry     beta= 0.50
     Davidson diagonalization with overlap
     ethr =  4.30E-07,  avg # of iterations =  3.0

     total cpu time spent up to now is        6.5 secs

     total energy              =    -502.24958981 Ry
     estimated scf accuracy    <       0.00087616 Ry

     iteration # 10     ecut=    30.00 Ry     beta= 0.50
     Davidson diagonalization with overlap
     ethr =  3.42E-07,  avg # of iterations =  2.0

     total cpu time spent up to now is        6.6 secs

     total energy              =    -502.24966671 Ry
     estimated scf accuracy    <       0.00009622 Ry

     iteration # 11     ecut=    30.00 Ry     beta= 0.50
     Davidson diagonalization with overlap
     ethr =  3.76E-08,  avg # of iterations =  4.0

     total cpu time spent up to now is        6.7 secs

     total energy              =    -502.24968278 Ry
     estimated scf accuracy    <       0.00002106 Ry

     iteration # 12     ecut=    30.00 Ry     beta= 0.50
     Davidson diagonalization with overlap
     ethr =  8.23E-09,  avg # of iterations =  4.0

     total cpu time spent up to now is        6.8 secs

     total energy              =    -502.24968627 Ry
     estimated scf accuracy    <       0.00001715 Ry

     iteration # 13     ecut=    30.00 Ry     beta= 0.50
     Davidson diagonalization with overlap
     ethr =  6.70E-09,  avg # of iterations =  2.0

     total cpu time spent up to now is        7.0 secs

     total energy              =    -502.24968816 Ry
     estimated scf accuracy    <       0.00000252 Ry

     iteration # 14     ecut=    30.00 Ry     beta= 0.50
     Davidson diagonalization with overlap
     ethr =  9.85E-10,  avg # of iterations =  4.0

     total cpu time spent up to now is        7.1 secs

     End of self-consistent calculation

          k = 0.0000 0.0000 0.0000 ( 12191 PWs)   bands (ev):

    -6.1458  -5.3483  -5.3306  -5.1580  -4.9574  -4.8683  -4.7919  -4.6351
    -4.4236  -4.3637  -4.2087  -4.1026  -4.0780  -4.0245  -3.8796  -3.8517
    -3.7948  -3.6381  -3.5775  -3.4696  -3.3384  -3.2884  -2.9364  -2.3041
    -2.2599  -2.1528  -2.1170  -2.0887  -1.9456  -1.8774  -1.7300  -1.6511
    -1.6049  -1.5297  -1.5134  -1.4817  -1.3821  -1.2994  -1.2735  -1.1639
    -1.0838  -1.0324  -0.8912  -0.7264  -0.5899   0.0830   0.2790   0.3828
     0.4240   0.4611   0.4970   0.6081   0.6198   0.6830   0.7936   0.9001
     1.0704   1.5993   1.7113   1.8081   1.8195   1.8839   1.9073   1.9808
     2.0039   2.0461   2.0721   2.0908   2.1189   2.2011   2.2282   2.2558
     2.2907   2.3886   2.4119   2.4373   2.5047   2.5798   2.6084   2.6487
     2.7094   2.7768   2.8382   2.8925   2.9397   2.9727   3.0420   3.0813
     3.0958   3.2458   3.2801   3.5237   3.6215   3.7064   3.7755   3.8523
     3.9346   4.0457   4.0795   4.1322   4.1976   4.2475   4.2864   4.3884
     4.3988   4.4373   4.4984   4.5502   4.5658   4.7018   4.7521   4.7776
     4.7912   4.8584   4.8979   4.9237   5.0606   5.1099   5.2014   5.2942
     5.3052   5.4728   5.5059   5.8823   5.9039   6.0044   6.1299   6.2125
     6.3002   6.4066   6.5450   6.6683   6.7314   6.8446   6.8722   6.9739
     7.0682   7.1439   7.1569   7.1772   7.2664   7.3067   7.3643   7.4474
     7.7591   7.8152   7.9114   7.9909   8.0295   8.1599   8.2073   8.2208
     8.2551   8.3346

     the Fermi energy is     6.2655 ev

!    total energy              =    -502.24968826 Ry
     estimated scf accuracy    <       0.00000038 Ry
     smearing contrib. (-TS)   =      -0.08703400 Ry
     internal energy E=F+TS    =    -502.16265426 Ry

     The total energy is F=E-TS. E is the sum of the following terms:
     one-electron contribution =     132.23964420 Ry
     hartree contribution      =      43.66734456 Ry
     xc contribution           =    -153.79207914 Ry
     ewald contribution        =    -524.27756389 Ry

     convergence has been achieved in  14 iterations

     Forces acting on atoms (cartesian axes, Ry/au):

     atom    1 type  1   force =    -0.06368434    0.00425264    0.01268832
     atom    2 type  1   force =    -0.07496302   -0.07098073   -0.04391084
     atom    3 type  1   force =    -0.04841102   -0.05684945   -0.02443525
     atom    4 type  1   force =    -0.08853510   -0.09814590   -0.10100502
     atom    5 type  1   force =    -0.03338075    0.03511100   -0.04147213
     atom    6 type  1   force =     0.04858406   -0.15992080    0.05382140
     atom    7 type  1   force =     0.06267305    0.08045408   -0.10872286
     atom    8 type  1   force =     0.00894624   -0.05051404    0.10039667
     atom    9 type  1   force =    -0.06183783   -0.03768149   -0.06810072
     atom   10 type  1   force =    -0.00675143    0.13330661    0.03350706
     atom   11 type  1   force =    -0.06102702    0.00629836   -0.05601916
     atom   12 type  1   force =     0.15750192    0.17242916   -0.23698804
     atom   13 type  1   force =     0.23454750   -0.21438988   -0.22973403
     atom   14 type  1   force =    -0.03662316    0.00599551    0.15209304
     atom   15 type  1   force =     0.05300617    0.10200402   -0.06223719
     atom   16 type  1   force =    -0.03198375   -0.05740958   -0.05878257
     atom   17 type  1   force =     0.09309115   -0.07165176   -0.05863324
     atom   18 type  1   force =     0.05345699    0.05164867    0.00143499
     atom   19 type  1   force =    -0.28038977    0.21284164    0.22631032
     atom   20 type  1   force =    -0.08396617    0.08139678    0.04673645
     atom   21 type  1   force =    -0.01652784    0.05520403   -0.03125864
     atom   22 type  1   force =    -0.01501113    0.02530141    0.07275565
     atom   23 type  1   force =    -0.03868935    0.07920640    0.01530444
     atom   24 type  1   force =     0.10463159    0.05887864    0.02893986
     atom   25 type  1   force =    -0.25109859   -0.26614121   -0.22976047
     atom   26 type  1   force =    -0.03904125   -0.00186123    0.01441274
     atom   27 type  1   force =     0.16162783    0.25938052    0.15422828
     atom   28 type  1   force =    -0.06963298   -0.00974249    0.01454077
     atom   29 type  1   force =     0.12823887   -0.02443256    0.06113869
     atom   30 type  1   force =    -0.10871276   -0.02415473   -0.09718066
     atom   31 type  1   force =     0.13126169    0.02493317    0.00692442
     atom   32 type  1   force =    -0.02881243    0.01148218   -0.10668418
     atom   33 type  1   force =    -0.06844304   -0.25467672    0.10338554
     atom   34 type  1   force =    -0.14536499    0.11900207    0.12167203
     atom   35 type  1   force =    -0.02588920   -0.11944804   -0.00124466
     atom   36 type  1   force =    -0.03725512   -0.04115467    0.11068929
     atom   37 type  1   force =     0.01578316    0.05053033   -0.01563229
     atom   38 type  1   force =     0.01209481   -0.01984229    0.03584736
     atom   39 type  1   force =    -0.01151547   -0.06186716   -0.07272914
     atom   40 type  1   force =     0.08778218    0.00150119    0.02839125
     atom   41 type  1   force =     0.10705211   -0.02770500   -0.01624734
     atom   42 type  1   force =     0.12269742    0.08300808    0.06569572
     atom   43 type  1   force =    -0.02474840    0.09198447   -0.02092209
     atom   44 type  1   force =     0.02075129   -0.03332022   -0.02250119
     atom   45 type  1   force =    -0.01367744    0.04853775   -0.04401111
     atom   46 type  1   force =    -0.04530982    0.04778717    0.07982888
     atom   47 type  1   force =    -0.08364823   -0.06735985   -0.03827951
     atom   48 type  1   force =     0.09445849    0.13000477    0.08063105
     atom   49 type  1   force =    -0.08367680    0.01740693   -0.00063039
     atom   50 type  1   force =     0.09478240   -0.08475992    0.06069149
     atom   51 type  1   force =    -0.13008656    0.07899653   -0.08032559
     atom   52 type  1   force =    -0.03400703    0.05281500    0.06836909
     atom   53 type  1   force =     0.09420722   -0.13924993    0.12300855
     atom   54 type  1   force =     0.12836513   -0.09132295   -0.07748184
     atom   55 type  1   force =     0.00068769   -0.02496984    0.09801434
     atom   56 type  1   force =     0.01347026    0.09156775    0.01261979
     atom   57 type  1   force =     0.04282963   -0.01231970   -0.02008625
     atom   58 type  1   force =     0.01512619   -0.11463889   -0.04012836
     atom   59 type  1   force =    -0.01518663    0.01376020    0.01261916
     atom   60 type  1   force =     0.13655878   -0.09364434   -0.09431250
     atom   61 type  1   force =    -0.10123354   -0.01068338    0.04145638
     atom   62 type  1   force =     0.02899706    0.03659917    0.06854075
     atom   63 type  1   force =    -0.05048925   -0.03561209   -0.04837451
     atom   64 type  1   force =     0.05640032    0.11282461    0.04113802

     Total force =     1.284816     Total SCF correction =     0.001103


     Computing stress (Cartesian axis) and pressure

          total   stress  (Ry/bohr**3)                   (kbar)     P=       56.67
   0.00041855   0.00010307  -0.00004126           61.57       15.16       -6.07
   0.00010307   0.00028753   0.00017067           15.16       42.30       25.11
  -0.00004126   0.00017067   0.00044953           -6.07       25.11       66.13

 
     init_run     :      1.21s CPU      5.09s WALL (       1 calls)
     electrons    :      1.78s CPU      1.89s WALL (       1 calls)
     forces       :      0.04s CPU      0.05s WALL (       1 calls)
     stress       :      0.16s CPU      0.17s WALL (       1 calls)

     Called by init_run:
     wfcinit      :      0.57s CPU      4.27s WALL (       1 calls)
                                        4.27s GPU  (       1 calls)
     potinit      :      0.20s CPU      0.30s WALL (       1 calls)
     hinit0       :      0.41s CPU      0.44s WALL (       1 calls)

     Called by electrons:
     c_bands      :      1.12s CPU      1.17s WALL (      15 calls)
     sum_band     :      0.34s CPU      0.37s WALL (      15 calls)
     v_of_rho     :      0.16s CPU      0.27s WALL (      15 calls)
     mix_rho      :      0.14s CPU      0.15s WALL (      15 calls)

     Called by c_bands:
     init_us_2    :      0.05s CPU      0.06s WALL (      31 calls)
     init_us_2:gp :      0.05s CPU      0.06s WALL (      31 calls)
     regterg      :      0.98s CPU      1.03s WALL (      15 calls)

     Called by *egterg:
     rdiaghg      :      0.41s CPU      1.18s WALL (      87 calls)
                                        1.16s GPU  (      87 calls)
     h_psi        :      0.97s CPU      3.93s WALL (      89 calls)
                                        3.93s GPU  (      89 calls)
     g_psi        :      0.00s CPU      0.00s WALL (      73 calls)
                                        0.00s GPU  (      73 calls)

     Called by h_psi:
     h_psi:calbec :      0.51s CPU      3.40s WALL (      89 calls)
                                        3.40s GPU  (      89 calls)
     vloc_psi     :      0.40s CPU      0.47s WALL (      89 calls)
                                        0.47s GPU  (      89 calls)
     add_vuspsi   :      0.04s CPU      0.05s WALL (      89 calls)
                                        0.05s GPU  (      89 calls)

     General routines
     calbec       :      0.52s CPU      3.40s WALL (      94 calls)
     fft          :      0.51s CPU      0.65s WALL (     127 calls)
                                        0.14s GPU  (      81 calls)
     ffts         :      0.04s CPU      0.05s WALL (      15 calls)
     fftw         :      0.46s CPU      0.61s WALL (    1629 calls)
                                        0.54s GPU  (    1629 calls)
 
     Parallel routines
 
     PWSCF        :      3.24s CPU      7.28s WALL

 
   This run was terminated on:  11:43:50  10May2023            

=------------------------------------------------------------------------------=
   JOB DONE.
=------------------------------------------------------------------------------=
