An instance of this daemon is already running
An instance of this daemon is already running

     Program PWSCF v.7.1 starts on 10May2023 at 11:33:13 

     This program is part of the open-source Quantum ESPRESSO suite
     for quantum simulation of materials; please cite
         "P. Giannozzi et al., J. Phys.:Condens. Matter 21 395502 (2009);
         "P. Giannozzi et al., J. Phys.:Condens. Matter 29 465901 (2017);
         "P. Giannozzi et al., J. Chem. Phys. 152 154105 (2020);
          URL http://www.quantum-espresso.org", 
     in publications or presentations arising from this work. More details at
     http://www.quantum-espresso.org/quote

     Parallel version (MPI & OpenMP), running on       4 processor cores
     Number of MPI processes:                 4
     Threads/MPI process:                     1

     MPI processes distributed on     1 nodes
     706976 MiB available memory on the printing compute node when the environment starts
 
     Reading input from pw-si-18.in
Warning: card &CELL ignored
Warning: card / ignored

     Current dimensions of program PWSCF are:
     Max number of different atomic species (ntypx) = 10
     Max number of k-points (npk) =  40000
     Max angular momentum in pseudopotentials (lmaxx) =  4

     IMPORTANT: XC functional enforced from input :
     Exchange-correlation= PBE
                           (   1   4   3   4   0   0   0)
     Any further DFT definition will be discarded
     Please, verify this is what you really want


     gamma-point specific algorithms are used
 
     K-points division:     npool     =       2
     R & G space division:  proc/nbgrp/npool/nimage =       2
     Subspace diagonalization in iterative solution of the eigenvalue problem:
     a serial algorithm will be used

     Message from routine divide_et_impera:
     suboptimal parallelization: some nodes have no k-points
 
     Parallelization info
     --------------------
     sticks:   dense  smooth     PW     G-vecs:    dense   smooth      PW
     Min        1968    1968    520                91995    91995   12528
     Max        1969    1969    521                91996    91996   12533
     Sum        3937    3937   1041               183991   183991   25061
 
     Using Slab Decomposition
 


     bravais-lattice index     =            0
     lattice parameter (alat)  =      20.4074  a.u.
     unit-cell volume          =    8289.1201 (a.u.)^3
     number of atoms/cell      =           64
     number of atomic types    =            1
     number of electrons       =       256.00
     number of Kohn-Sham states=          154
     kinetic-energy cutoff     =      30.0000  Ry
     charge density cutoff     =     120.0000  Ry
     scf convergence threshold =      1.0E-06
     mixing beta               =       0.5000
     number of iterations used =            8  plain     mixing
     Exchange-correlation= PBE
                           (   1   4   3   4   0   0   0)

     GPU acceleration is ACTIVE.
     GPU-aware MPI enabled

     Message from routine print_cuda_info:
     High GPU oversubscription detected. Are you sure this is what you want?

     celldm(1)=  20.407407  celldm(2)=   0.000000  celldm(3)=   0.000000
     celldm(4)=   0.000000  celldm(5)=   0.000000  celldm(6)=   0.000000

     crystal axes: (cart. coord. in units of alat)
               a(1) = (   1.000000   0.000000   0.000000 )  
               a(2) = (   0.000000   0.988946   0.000000 )  
               a(3) = (   0.000000   0.000000   0.986217 )  

     reciprocal axes: (cart. coord. in units 2 pi/alat)
               b(1) = (  1.000000  0.000000  0.000000 )  
               b(2) = (  0.000000  1.011178  0.000000 )  
               b(3) = (  0.000000  0.000000  1.013976 )  


     PseudoPot. # 1 for Si read from file:
     /home/ppiaggi/pseudos/Si_ONCV_PBE_sr.upf
     MD5 check sum: 8553c464762ac42b85b1eed164b4d029
     Pseudo is Norm-conserving, Zval =  4.0
     Generated using ONCVPSP code by D. R. Hamann
     Using radial grid of 1510 points,  4 beta functions with: 
                l(1) =   0
                l(2) =   0
                l(3) =   1
                l(4) =   1

     atomic species   valence    mass     pseudopotential
        Si             4.00    28.08500     Si( 1.00)

     No symmetry found



   Cartesian axes

     site n.     atom                  positions (alat units)
         1           Si  tau(   1) = (  -0.0016849  -0.0106714  -0.0110652  )
         2           Si  tau(   2) = (   0.0031324   0.2249667   0.2435149  )
         3           Si  tau(   3) = (   0.2388988   0.0044746   0.2433153  )
         4           Si  tau(   4) = (   0.2411727   0.2225098   0.0005280  )
         5           Si  tau(   5) = (   0.1327170   0.1168771   0.1093114  )
         6           Si  tau(   6) = (   0.4771624  -0.0161980  -0.0065467  )
         7           Si  tau(   7) = (   0.5114877   0.2409779   0.2686215  )
         8           Si  tau(   8) = (   0.6025818   0.1092297   0.1233768  )
         9           Si  tau(   9) = (   0.7464030   0.0045277   0.2657526  )
        10           Si  tau(  10) = (   0.7272794   0.2230505  -0.0026420  )
        11           Si  tau(  11) = (  -0.0049860   0.4740051  -0.0160784  )
        12           Si  tau(  12) = (   0.2399848   0.4793606   0.2331356  )
        13           Si  tau(  13) = (   0.1129564   0.6081869   0.1101733  )
        14           Si  tau(  14) = (   0.3830660   0.3407615   0.1073487  )
        15           Si  tau(  15) = (   0.4825492   0.4794938   0.0146438  )
        16           Si  tau(  16) = (   0.6249597   0.5996947   0.1353038  )
        17           Si  tau(  17) = (   0.8492702   0.3420649   0.1192262  )
        18           Si  tau(  18) = (   0.7276881   0.4622445   0.2519204  )
        19           Si  tau(  19) = (   0.0133191   0.7140547   0.2574437  )
        20           Si  tau(  20) = (   0.2368088   0.7285425   0.0137564  )
        21           Si  tau(  21) = (   0.3755800   0.8230583   0.1240397  )
        22           Si  tau(  22) = (   0.4784850   0.7264843   0.2604020  )
        23           Si  tau(  23) = (   0.7462542   0.7007823   0.0142161  )
        24           Si  tau(  24) = (   0.8781557   0.8243123   0.1364259  )
        25           Si  tau(  25) = (   0.0097853   0.0123597   0.4979692  )
        26           Si  tau(  26) = (   0.2406674   0.2268518   0.4862384  )
        27           Si  tau(  27) = (   0.1215248   0.1058836   0.6428138  )
        28           Si  tau(  28) = (   0.3576730   0.1263315   0.3645136  )
        29           Si  tau(  29) = (   0.4924947  -0.0087614   0.4941531  )
        30           Si  tau(  30) = (   0.6249886   0.1096705   0.6191039  )
        31           Si  tau(  31) = (   0.8642000   0.1146363   0.3905593  )
        32           Si  tau(  32) = (   0.7378976   0.2521912   0.4856327  )
        33           Si  tau(  33) = (   0.1369507   0.3506444   0.3922486  )
        34           Si  tau(  34) = (  -0.0078199   0.4800172   0.4925638  )
        35           Si  tau(  35) = (   0.1386702   0.5889010   0.6274785  )
        36           Si  tau(  36) = (   0.6123387   0.3596524   0.3855103  )
        37           Si  tau(  37) = (   0.3632557   0.5962188   0.3825695  )
        38           Si  tau(  38) = (   0.3610284   0.3680069   0.6265630  )
        39           Si  tau(  39) = (   0.4851196   0.4745885   0.5156337  )
        40           Si  tau(  40) = (   0.6136706   0.5902392   0.6165334  )
        41           Si  tau(  41) = (   0.8564374   0.5994170   0.3752439  )
        42           Si  tau(  42) = (   0.8751526   0.3672268   0.6183195  )
        43           Si  tau(  43) = (   0.1186863   0.8361154   0.3707099  )
        44           Si  tau(  44) = (   0.2310845   0.6956778   0.4977546  )
        45           Si  tau(  45) = (   0.6300474   0.8308793   0.3900029  )
        46           Si  tau(  46) = (   0.3681520   0.8262425   0.6227259  )
        47           Si  tau(  47) = (   0.7283283   0.7146248   0.5013928  )
        48           Si  tau(  48) = (   0.8548305   0.8464613   0.6139977  )
        49           Si  tau(  49) = (  -0.0045097   0.2448153   0.7483813  )
        50           Si  tau(  50) = (   0.2498288   0.0128625   0.7600803  )
        51           Si  tau(  51) = (   0.3752049   0.1115091   0.8823450  )
        52           Si  tau(  52) = (   0.4905690   0.2410848   0.7360157  )
        53           Si  tau(  53) = (   0.7410330   0.0024308   0.7659160  )
        54           Si  tau(  54) = (   0.8589985   0.1165641   0.8652237  )
        55           Si  tau(  55) = (   0.1362270   0.3470628   0.8606415  )
        56           Si  tau(  56) = (   0.2548997   0.4607761   0.7625971  )
        57           Si  tau(  57) = (   0.6296221   0.3561433   0.8934083  )
        58           Si  tau(  58) = (   0.3674800   0.5919809   0.8796713  )
        59           Si  tau(  59) = (   0.7521353   0.4834767   0.7536104  )
        60           Si  tau(  60) = (   0.8703133   0.6062349   0.8731748  )
        61           Si  tau(  61) = (   0.0092533   0.7189936   0.7473463  )
        62           Si  tau(  62) = (   0.1305027   0.8425155   0.8843601  )
        63           Si  tau(  63) = (   0.4999911   0.7284400   0.7390654  )
        64           Si  tau(  64) = (   0.6335830   0.8300708   0.8866740  )

     number of k points=     1  Fermi-Dirac smearing, width (Ry)=  0.0100
                       cart. coord. in units 2pi/alat
        k(    1) = (   0.0000000   0.0000000   0.0000000), wk =   2.0000000

     Dense  grid:    91996 G-vectors     FFT dimensions: (  72,  72,  72)

     Estimated max dynamical RAM per process >     147.45 MB

     Estimated total dynamical RAM >     567.32 MB

     Initial potential from superposition of free atoms

     starting charge     255.9608, renormalised to     256.0000
     Starting wfcs are  256 randomized atomic wfcs

     total cpu time spent up to now is        5.3 secs

     Self-consistent Calculation

     iteration #  1     ecut=    30.00 Ry     beta= 0.50
     Davidson diagonalization with overlap
     ethr =  1.00E-02,  avg # of iterations =  3.0

     Threshold (ethr) on eigenvalues was too large:
     Diagonalizing with lowered threshold

     Davidson diagonalization with overlap
     ethr =  7.61E-04,  avg # of iterations =  8.0

     total cpu time spent up to now is        5.6 secs

     total energy              =    -502.34395999 Ry
     estimated scf accuracy    <       2.20143362 Ry

     iteration #  2     ecut=    30.00 Ry     beta= 0.50
     Davidson diagonalization with overlap
     ethr =  8.60E-04,  avg # of iterations =  2.0

     total cpu time spent up to now is        5.7 secs

     total energy              =    -502.22253669 Ry
     estimated scf accuracy    <       0.86399469 Ry

     iteration #  3     ecut=    30.00 Ry     beta= 0.50
     Davidson diagonalization with overlap
     ethr =  3.37E-04,  avg # of iterations =  7.0

     total cpu time spent up to now is        5.8 secs

     total energy              =    -502.05550071 Ry
     estimated scf accuracy    <       3.24419392 Ry

     iteration #  4     ecut=    30.00 Ry     beta= 0.50
     Davidson diagonalization with overlap
     ethr =  3.37E-04,  avg # of iterations =  5.0

     total cpu time spent up to now is        5.9 secs

     total energy              =    -502.46416142 Ry
     estimated scf accuracy    <       0.11083935 Ry

     iteration #  5     ecut=    30.00 Ry     beta= 0.50
     Davidson diagonalization with overlap
     ethr =  4.33E-05,  avg # of iterations = 14.0

     total cpu time spent up to now is        6.1 secs

     total energy              =    -502.47282773 Ry
     estimated scf accuracy    <       0.04405978 Ry

     iteration #  6     ecut=    30.00 Ry     beta= 0.50
     Davidson diagonalization with overlap
     ethr =  1.72E-05,  avg # of iterations =  6.0

     total cpu time spent up to now is        6.2 secs

     total energy              =    -502.47470296 Ry
     estimated scf accuracy    <       0.01728395 Ry

     iteration #  7     ecut=    30.00 Ry     beta= 0.50
     Davidson diagonalization with overlap
     ethr =  6.75E-06,  avg # of iterations =  6.0

     total cpu time spent up to now is        6.3 secs

     total energy              =    -502.47681441 Ry
     estimated scf accuracy    <       0.00110006 Ry

     iteration #  8     ecut=    30.00 Ry     beta= 0.50
     Davidson diagonalization with overlap
     ethr =  4.30E-07,  avg # of iterations =  7.0

     total cpu time spent up to now is        6.5 secs

     total energy              =    -502.47711217 Ry
     estimated scf accuracy    <       0.00083873 Ry

     iteration #  9     ecut=    30.00 Ry     beta= 0.50
     Davidson diagonalization with overlap
     ethr =  3.28E-07,  avg # of iterations =  2.0

     total cpu time spent up to now is        6.6 secs

     total energy              =    -502.47712815 Ry
     estimated scf accuracy    <       0.00036241 Ry

     iteration # 10     ecut=    30.00 Ry     beta= 0.50
     Davidson diagonalization with overlap
     ethr =  1.42E-07,  avg # of iterations =  2.0

     total cpu time spent up to now is        6.7 secs

     total energy              =    -502.47715218 Ry
     estimated scf accuracy    <       0.00007065 Ry

     iteration # 11     ecut=    30.00 Ry     beta= 0.50
     Davidson diagonalization with overlap
     ethr =  2.76E-08,  avg # of iterations =  4.0

     total cpu time spent up to now is        6.8 secs

     total energy              =    -502.47716258 Ry
     estimated scf accuracy    <       0.00000422 Ry

     iteration # 12     ecut=    30.00 Ry     beta= 0.50
     Davidson diagonalization with overlap
     ethr =  1.65E-09,  avg # of iterations =  5.0

     total cpu time spent up to now is        6.9 secs

     total energy              =    -502.47716392 Ry
     estimated scf accuracy    <       0.00000840 Ry

     iteration # 13     ecut=    30.00 Ry     beta= 0.50
     Davidson diagonalization with overlap
     ethr =  1.65E-09,  avg # of iterations =  2.0

     total cpu time spent up to now is        7.0 secs

     total energy              =    -502.47716401 Ry
     estimated scf accuracy    <       0.00000299 Ry

     iteration # 14     ecut=    30.00 Ry     beta= 0.50
     Davidson diagonalization with overlap
     ethr =  1.17E-09,  avg # of iterations =  2.0

     total cpu time spent up to now is        7.1 secs

     End of self-consistent calculation

          k = 0.0000 0.0000 0.0000 ( 11518 PWs)   bands (ev):

    -5.8456  -5.0841  -4.8782  -4.8474  -4.6196  -4.5438  -4.3924  -4.1860
    -4.0679  -4.0090  -3.8200  -3.7612  -3.6223  -3.5800  -3.5302  -3.4594
    -3.3837  -3.3186  -3.3141  -3.0628  -3.0432  -2.9620  -2.5901  -1.8601
    -1.7605  -1.6471  -1.5923  -1.4822  -1.3892  -1.3607  -1.3111  -1.2030
    -1.1614  -1.0967  -1.0504  -0.9997  -0.9746  -0.9265  -0.8456  -0.7400
    -0.7154  -0.6217  -0.4982  -0.3617  -0.1270   0.6606   0.7575   0.7966
     0.8551   0.9599   1.0353   1.0539   1.1734   1.1750   1.2450   1.3609
     1.3868   2.1196   2.2067   2.2330   2.2885   2.3138   2.3478   2.3806
     2.4126   2.4638   2.4950   2.5525   2.6000   2.6131   2.6382   2.6705
     2.7264   2.7593   2.7991   2.8486   2.8866   2.9306   2.9712   3.0341
     3.1050   3.1922   3.2778   3.3827   3.4305   3.4767   3.4815   3.5835
     3.6484   3.6954   3.7867   3.8226   3.9444   4.3204   4.3643   4.4574
     4.4833   4.5039   4.5853   4.6786   4.7648   4.8114   4.8331   4.8711
     4.9541   4.9838   5.0129   5.0929   5.1705   5.2270   5.2745   5.2785
     5.3315   5.3622   5.4890   5.5450   5.5701   5.6222   5.6541   5.7219
     5.7493   5.8393   5.9719   6.1696   6.4939   6.5621   6.7049   6.8074
     6.8904   6.9660   7.0855   7.1650   7.3099   7.4294   7.5222   7.5930
     7.6178   7.7022   7.7902   7.8580   8.0461   8.0965   8.1362   8.2036
     8.4911   8.5802   8.6926   8.7293   8.7722   8.8431   8.8961   8.9336
     8.9584   8.9783

     the Fermi energy is     6.8329 ev

!    total energy              =    -502.47716423 Ry
     estimated scf accuracy    <       0.00000019 Ry
     smearing contrib. (-TS)   =      -0.08474566 Ry
     internal energy E=F+TS    =    -502.39241857 Ry

     The total energy is F=E-TS. E is the sum of the following terms:
     one-electron contribution =     153.40605617 Ry
     hartree contribution      =      38.50028260 Ry
     xc contribution           =    -155.56402560 Ry
     ewald contribution        =    -538.73473175 Ry

     convergence has been achieved in  14 iterations

     Forces acting on atoms (cartesian axes, Ry/au):

     atom    1 type  1   force =    -0.03672545   -0.01683690    0.05979236
     atom    2 type  1   force =    -0.03040208    0.03392982    0.02877683
     atom    3 type  1   force =     0.02378580   -0.11997802    0.01620941
     atom    4 type  1   force =     0.09870044    0.11985101   -0.05886758
     atom    5 type  1   force =    -0.16376884   -0.11005555    0.09212232
     atom    6 type  1   force =     0.12331499   -0.14524102    0.11646071
     atom    7 type  1   force =    -0.09956201   -0.06901956   -0.11956565
     atom    8 type  1   force =     0.02153028   -0.03634905    0.04536428
     atom    9 type  1   force =    -0.04234339   -0.10785312   -0.06388828
     atom   10 type  1   force =     0.06868767   -0.09710922    0.09752902
     atom   11 type  1   force =    -0.00059738   -0.03444845    0.06761058
     atom   12 type  1   force =     0.02842773   -0.03021742    0.02565016
     atom   13 type  1   force =    -0.03494044   -0.10775913    0.04154708
     atom   14 type  1   force =    -0.06939823   -0.04790909    0.13400262
     atom   15 type  1   force =     0.12639740    0.04761833   -0.01888621
     atom   16 type  1   force =    -0.11586607   -0.02743813    0.04635444
     atom   17 type  1   force =     0.08375446    0.01825751    0.02196683
     atom   18 type  1   force =     0.07092457    0.04462968   -0.00577012
     atom   19 type  1   force =    -0.11376454   -0.04542854   -0.01702553
     atom   20 type  1   force =     0.09466713   -0.06702330   -0.02431466
     atom   21 type  1   force =    -0.03553977    0.15471699   -0.01207577
     atom   22 type  1   force =     0.11713948   -0.05048246    0.05616950
     atom   23 type  1   force =     0.03917493    0.07421576    0.02771018
     atom   24 type  1   force =    -0.01197173    0.09649021   -0.01152722
     atom   25 type  1   force =    -0.03373940   -0.12203208   -0.01086993
     atom   26 type  1   force =     0.04154055   -0.05418560    0.21036887
     atom   27 type  1   force =    -0.02182770    0.08113262   -0.06393720
     atom   28 type  1   force =     0.10557945   -0.07609486   -0.01475728
     atom   29 type  1   force =    -0.02012762   -0.03992217    0.00201339
     atom   30 type  1   force =    -0.01753235    0.02861132   -0.00142603
     atom   31 type  1   force =     0.05328330    0.04629445   -0.03478106
     atom   32 type  1   force =     0.08035675   -0.08113917    0.13017545
     atom   33 type  1   force =    -0.14212870    0.12757491   -0.16635492
     atom   34 type  1   force =     0.04635030    0.02696393    0.00246488
     atom   35 type  1   force =    -0.11532756   -0.07934359    0.08921340
     atom   36 type  1   force =    -0.04426153    0.09929319    0.02459079
     atom   37 type  1   force =     0.02690621   -0.05128384   -0.05873718
     atom   38 type  1   force =    -0.00728997   -0.14138079   -0.04345203
     atom   39 type  1   force =     0.00322072    0.02516177   -0.10688172
     atom   40 type  1   force =     0.03285001    0.01175415    0.09738183
     atom   41 type  1   force =     0.03916832   -0.01703012   -0.03536023
     atom   42 type  1   force =    -0.03845904   -0.03751421    0.02022886
     atom   43 type  1   force =     0.06070765    0.11931000    0.07086508
     atom   44 type  1   force =     0.05040838    0.15653286   -0.04383342
     atom   45 type  1   force =    -0.12466107    0.16812553   -0.13716180
     atom   46 type  1   force =    -0.05094632    0.10539100   -0.04673350
     atom   47 type  1   force =     0.11766249   -0.06478891    0.06756522
     atom   48 type  1   force =     0.06743591    0.04019692    0.05095418
     atom   49 type  1   force =    -0.03351493   -0.03672376   -0.02641807
     atom   50 type  1   force =     0.01807739   -0.16448093   -0.00215276
     atom   51 type  1   force =     0.00447381    0.11170483   -0.11774901
     atom   52 type  1   force =     0.04220652   -0.01765057    0.05554566
     atom   53 type  1   force =    -0.07639463   -0.15253220   -0.10901873
     atom   54 type  1   force =     0.13700268    0.05513077    0.04539911
     atom   55 type  1   force =    -0.11144061   -0.03690035    0.07974962
     atom   56 type  1   force =     0.00374349    0.14367429   -0.04427156
     atom   57 type  1   force =    -0.11472967    0.12596650   -0.15843810
     atom   58 type  1   force =    -0.00386026    0.09920467   -0.04597911
     atom   59 type  1   force =    -0.04879978   -0.02378230   -0.02120443
     atom   60 type  1   force =     0.04952660   -0.00175502   -0.06706488
     atom   61 type  1   force =    -0.03119372    0.03401051   -0.02197605
     atom   62 type  1   force =    -0.05592722    0.08920960   -0.13254123
     atom   63 type  1   force =     0.03208950   -0.06057794    0.08497432
     atom   64 type  1   force =    -0.06205291    0.08731426   -0.06573572

     Total force =     1.084317     Total SCF correction =     0.000756


     Computing stress (Cartesian axis) and pressure

          total   stress  (Ry/bohr**3)                   (kbar)     P=      103.15
   0.00068561  -0.00006448   0.00017147          100.86       -9.49       25.22
  -0.00006448   0.00071140  -0.00018776           -9.49      104.65      -27.62
   0.00017147  -0.00018776   0.00070667           25.22      -27.62      103.95

 
     init_run     :      1.26s CPU      5.22s WALL (       1 calls)
     electrons    :      1.66s CPU      1.78s WALL (       1 calls)
     forces       :      0.04s CPU      0.04s WALL (       1 calls)
     stress       :      0.15s CPU      0.16s WALL (       1 calls)

     Called by init_run:
     wfcinit      :      0.53s CPU      4.31s WALL (       1 calls)
                                        4.31s GPU  (       1 calls)
     potinit      :      0.20s CPU      0.29s WALL (       1 calls)
     hinit0       :      0.51s CPU      0.54s WALL (       1 calls)

     Called by electrons:
     c_bands      :      1.06s CPU      1.12s WALL (      15 calls)
     sum_band     :      0.30s CPU      0.33s WALL (      15 calls)
     v_of_rho     :      0.15s CPU      0.25s WALL (      15 calls)
     mix_rho      :      0.13s CPU      0.15s WALL (      15 calls)

     Called by c_bands:
     init_us_2    :      0.05s CPU      0.06s WALL (      31 calls)
     init_us_2:gp :      0.05s CPU      0.06s WALL (      31 calls)
     regterg      :      0.93s CPU      0.98s WALL (      15 calls)

     Called by *egterg:
     rdiaghg      :      0.43s CPU      1.21s WALL (      89 calls)
                                        1.20s GPU  (      89 calls)
     h_psi        :      0.86s CPU      3.88s WALL (      91 calls)
                                        3.88s GPU  (      91 calls)
     g_psi        :      0.00s CPU      0.00s WALL (      75 calls)
                                        0.00s GPU  (      75 calls)

     Called by h_psi:
     h_psi:calbec :      0.48s CPU      3.43s WALL (      91 calls)
                                        3.43s GPU  (      91 calls)
     vloc_psi     :      0.33s CPU      0.39s WALL (      91 calls)
                                        0.39s GPU  (      91 calls)
     add_vuspsi   :      0.04s CPU      0.06s WALL (      91 calls)
                                        0.05s GPU  (      91 calls)

     General routines
     calbec       :      0.48s CPU      3.43s WALL (      96 calls)
     fft          :      0.59s CPU      0.73s WALL (     127 calls)
                                        0.13s GPU  (      81 calls)
     ffts         :      0.03s CPU      0.04s WALL (      15 calls)
     fftw         :      0.39s CPU      0.51s WALL (    1635 calls)
                                        0.45s GPU  (    1635 calls)
 
     Parallel routines
 
     PWSCF        :      3.16s CPU      7.29s WALL

 
   This run was terminated on:  11:33:21  10May2023            

=------------------------------------------------------------------------------=
   JOB DONE.
=------------------------------------------------------------------------------=
